Title
82264
    1SAPS     N    1   3.577   6.614  11.393 -0.4728  0.0819 -0.2359
    1SAPS   HN1    2   3.658   6.675  11.370  0.3695 -0.6733  0.6679
    1SAPS   HN2    3   3.512   6.632  11.314 -0.6648  0.6009  0.0364
    1SAPS   HN3    4   3.535   6.640  11.485  1.6055 -2.1408  1.4139
    1SAPS   C12    5   3.600   6.469  11.396 -0.0484 -0.8881 -0.1451
    1SAPS  H12A    6   3.703   6.451  11.372  0.6582  0.5019  1.6593
    1SAPS   C13    7   3.581   6.402  11.531 -0.5759 -0.1902  0.9118
    1SAPS  O13A    8   3.504   6.458  11.612  0.2275  0.1797 -0.3146
    1SAPS  O13B    9   3.598   6.273  11.533 -0.1820  0.5472  0.5890
    1SAPS   C11   10   3.502   6.389  11.299  0.1831 -0.5964  0.0500
    1SAPS  H11A   11   3.397   6.406  11.332 -0.2195  0.4162 -1.6775
    1SAPS  H11B   12   3.522   6.281  11.311  1.9205 -0.4189 -1.2102
    1SAPS     P   13   3.530   6.352  11.036  0.1643 -0.0116 -0.1260
    1SAPS   O13   14   3.667   6.292  11.038  0.3397  0.1929 -0.2557
    1SAPS   O14   15   3.412   6.265  11.021  0.1279 -0.0592  0.1583
    1SAPS   O12   16   3.510   6.444  11.164  0.0066 -0.0782 -0.0649
    1SAPS   O11   17   3.517   6.457  10.930  0.3927  0.0992  0.6259
    1SAPS    C1   18   3.403   6.541  10.926  0.1617  0.7076 -0.0688
    1SAPS    HA   19   3.321   6.495  10.985  2.0605 -0.8836  1.4101
    1SAPS    HB   20   3.423   6.646  10.956 -0.4821  0.8817 -0.2368
    1SAPS    C2   21   3.348   6.568  10.784 -0.0411 -0.3158  0.8547
    1SAPS    HS   22   3.279   6.655  10.784  0.7524  0.3241 -0.4342
    1SAPS   O21   23   3.299   6.451  10.723 -0.1577  0.3306 -0.2564
    1SAPS   C21   24   3.179   6.408  10.757  0.2069 -0.3051  0.7900
    1SAPS   O22   25   3.100   6.464  10.829  0.1778  0.4791 -0.1845
    1SAPS   C22   26   3.149   6.268  10.694  0.1431  0.4342 -0.2916
    1SAPS   H2R   27   3.205   6.259  10.599  2.7334  0.2057  1.2103
    1SAPS   H2S   28   3.204   6.198  10.761 -1.0455 -0.4559 -0.2455
    1SAPS    C3   29   3.460   6.606  10.692 -0.1330  0.0393 -0.1638
    1SAPS    HX   30   3.541   6.532  10.709 -0.8163 -1.5457 -3.3685
    1SAPS    HY   31   3.493   6.704  10.731 -1.7009 -0.1971  1.8920
    1SAPS   O31   32   3.424   6.611  10.549  0.4522 -1.1848 -0.7133
    1SAPS   C31   33   3.529   6.613  10.464 -0.1235  0.6453 -0.2078
    1SAPS   O32   34   3.642   6.643  10.498 -0.2413  0.2574  0.5971
    1SAPS   C32   35   3.488   6.574  10.322 -0.1960  0.0216 -0.1547
    1SAPS   H2X   36   3.436   6.661  10.275 -1.3215  0.3161  1.5822
    1SAPS   H2Y   37   3.417   6.488  10.327 -0.1066 -0.1878 -2.2055
    1SAPS   C23   38   3.001   6.227  10.694 -0.3913  0.0147 -0.1519
    1SAPS   H3R   39   2.950   6.267  10.784  1.7661  0.7865  0.7801
    1SAPS   H3S   40   3.011   6.118  10.711 -0.7640  0.0699  0.4297
    1SAPS   C24   41   2.938   6.258  10.562 -0.1972  0.2011 -0.8186
    1SAPS   H4R   42   2.840   6.206  10.549  0.4822 -1.3836  0.2588
    1SAPS   H4S   43   3.001   6.221  10.478  0.6054  0.7402 -0.4520
    1SAPS   C25   44   2.907   6.408  10.543  0.4338  0.3563 -0.5628
    1SAPS   H5R   45   2.815   6.447  10.589  0.4234  1.9833 -1.9263
    1SAPS   C26   46   2.977   6.493  10.460  0.0090 -0.4263 -0.2349
    1SAPS   H6R   47   2.929   6.591  10.443  0.3119 -0.1103  0.7184
    1SAPS   C27   48   3.107   6.480  10.386 -0.4207  0.5561 -0.0952
    1SAPS   H7R   49   3.168   6.401  10.434 -0.7678 -0.3655 -1.1302
    1SAPS   H7S   50   3.176   6.566  10.380  0.3317 -0.1821 -3.0568
    1SAPS   C28   51   3.068   6.433  10.248 -0.0850  0.8197 -0.3391
    1SAPS   H8R   52   3.001   6.347  10.236 -1.3020  1.7008  0.1424
    1SAPS   C29   53   3.100   6.491  10.130 -0.5574 -0.4032  0.3616
    1SAPS   H9R   54   3.062   6.440  10.041 -0.3997  1.2218 -0.6560
    1SAPS  C210   55   3.174   6.624  10.105  0.4580 -0.4354  0.4624
    1SAPS  H10R   56   3.237   6.616  10.014 -0.6105 -0.1619 -0.3084
    1SAPS  H10S   57   3.250   6.640  10.185  1.1362 -2.0693  0.1695
    1SAPS  C211   58   3.079   6.743  10.089 -0.1472 -0.9555  0.3606
    1SAPS  H11R   59   3.039   6.791  10.179  0.1991 -1.6967  0.9096
    1SAPS  C212   60   3.048   6.803   9.972 -0.1627 -0.8070 -0.2089
    1SAPS  H12R   61   2.963   6.873   9.979  0.8511  0.4566 -0.3774
    1SAPS  C213   62   3.099   6.771   9.831  0.5766 -0.8184 -0.1982
    1SAPS  H13R   63   3.209   6.781   9.828  0.4871  0.4501  0.3016
    1SAPS  H13S   64   3.061   6.846   9.758 -0.3989 -1.9005 -0.8217
    1SAPS  C214   65   3.060   6.637   9.781 -0.2021  0.2701 -0.0297
    1SAPS  H14R   66   2.975   6.593   9.835 -0.5221  1.6832  0.6620
    1SAPS  C215   67   3.121   6.570   9.685 -0.0128  0.5394 -0.4443
    1SAPS  H15R   68   3.070   6.476   9.656  1.3091 -0.2978 -0.0850
    1SAPS  C216   69   3.248   6.603   9.609 -0.4773 -0.7425  0.7088
    1SAPS  H16R   70   3.327   6.524   9.605  0.1867 -0.1877  2.4816
    1SAPS  H16S   71   3.299   6.695   9.645  0.0162 -0.2409 -1.2089
    1SAPS  C217   72   3.223   6.625   9.454  0.7207 -0.3925  0.4183
    1SAPS  H17R   73   3.151   6.706   9.429  0.5978 -0.4091  0.7118
    1SAPS  H17S   74   3.178   6.533   9.412  0.6207  0.4619 -1.4151
    1SAPS  C218   75   3.359   6.652   9.384  0.2850 -0.0697  0.2340
    1SAPS  H18R   76   3.417   6.559   9.403  1.2005  0.8998  2.2632
    1SAPS  H18S   77   3.430   6.731   9.416  0.7826 -0.0737 -0.8307
    1SAPS  C219   78   3.336   6.673   9.228 -0.0474  0.5898 -0.7349
    1SAPS  H19R   79   3.288   6.772   9.216 -0.3767  0.8583  2.2899
    1SAPS  H19S   80   3.270   6.596   9.183 -1.1061  1.0456 -0.0078
    1SAPS  C220   81   3.463   6.671   9.139 -0.0740 -0.2158  0.2229
    1SAPS  H20R   82   3.445   6.694   9.032  1.9379  1.5140  0.2202
    1SAPS  H20S   83   3.515   6.573   9.150 -1.3979 -0.9482  0.0830
    1SAPS  H20T   84   3.541   6.745   9.167 -1.7767  2.4391 -1.7555
    1SAPS   C33   85   3.599   6.536  10.222  0.1027 -0.7499  0.1560
    1SAPS   H3X   86   3.641   6.439  10.256  1.0803 -0.8941 -1.3634
    1SAPS   H3Y   87   3.676   6.616  10.210 -0.9782  0.1624 -0.8458
    1SAPS   C34   88   3.534   6.530  10.076 -0.2158  0.0097  0.0069
    1SAPS   H4X   89   3.465   6.614  10.054 -1.9581 -1.5291 -0.5232
    1SAPS   H4Y   90   3.473   6.439  10.064 -1.0457  0.5556  0.0712
    1SAPS   C35   91   3.637   6.519   9.964 -0.1986 -0.6179 -0.1584
    1SAPS   H5X   92   3.694   6.430   9.998 -1.6016 -1.4814 -0.0513
    1SAPS   H5Y   93   3.710   6.602   9.958  2.1748 -2.7079 -0.9971
    1SAPS   C36   94   3.581   6.497   9.820 -0.5547 -0.3221 -0.3027
    1SAPS   H6X   95   3.520   6.581   9.780 -0.6239  0.8199  2.1089
    1SAPS   H6Y   96   3.523   6.402   9.819 -4.1067  1.7510 -0.8623
    1SAPS   C37   97   3.691   6.460   9.717 -0.0270 -0.2408 -0.0775
    1SAPS   H7X   98   3.740   6.364   9.740 -1.0739 -0.7854 -0.0906
    1SAPS   H7Y   99   3.771   6.536   9.730  0.1453 -0.3940 -0.2588
    1SAPS   C38  100   3.631   6.452   9.577  0.0119 -0.5655 -0.0947
    1SAPS   H8X  101   3.608   6.558   9.553  0.4565 -0.4414  0.0216
    1SAPS   H8Y  102   3.540   6.389   9.570  0.4727 -1.2736  0.2358
    1SAPS   C39  103   3.735   6.390   9.472 -0.4747  0.2488  0.0937
    1SAPS   H9X  104   3.754   6.281   9.485 -0.3097 -0.1982 -3.4412
    1SAPS   H9Y  105   3.824   6.455   9.481  0.2706 -0.4833 -1.8422
    1SAPS  C310  106   3.689   6.408   9.320  0.0641  0.0799 -0.7981
    1SAPS  H10X  107   3.706   6.516   9.298 -0.0249  0.1009 -0.7660
    1SAPS  H10Y  108   3.581   6.384   9.304 -0.1023 -0.2251  0.6534
    1SAPS  C311  109   3.785   6.346   9.216 -0.2739  0.8913  0.6611
    1SAPS  H11X  110   3.805   6.241   9.245 -0.6695  0.9689  1.2235
    1SAPS  H11Y  111   3.879   6.404   9.233 -0.1432  1.1280 -0.8381
    1SAPS  C312  112   3.740   6.347   9.067  0.8368 -0.5107 -0.0405
    1SAPS  H12X  113   3.676   6.432   9.037 -1.3813 -2.7752 -1.9458
    1SAPS  H12Y  114   3.677   6.256   9.055 -0.6953  0.5018  0.1431
    1SAPS  C313  115   3.853   6.344   8.960  0.1067  0.3829 -0.1133
    1SAPS  H13X  116   3.917   6.253   8.965  0.3956  0.3959 -2.8911
    1SAPS  H13Y  117   3.917   6.433   8.981  1.1062 -0.1935 -0.6729
    1SAPS  C314  118   3.801   6.355   8.816  0.9426  0.2725  0.4688
    1SAPS  H14X  119   3.882   6.406   8.760 -0.5393  1.6785 -0.4772
    1SAPS  H14Y  120   3.710   6.419   8.811 -0.3485 -1.4557  1.3783
    1SAPS  C315  121   3.768   6.216   8.754  0.3437  0.6078  0.4089
    1SAPS  H15X  122   3.669   6.183   8.792  0.4838 -0.9361 -0.5097
    1SAPS  H15Y  123   3.836   6.134   8.786  0.1227  0.4180  0.3937
    1SAPS  C316  124   3.752   6.244   8.604 -0.1281  0.0769  0.1755
    1SAPS  H16X  125   3.849   6.280   8.564 -0.7301  0.9399 -0.5206
    1SAPS  H16Y  126   3.670   6.318   8.592 -0.0857 -0.4095 -3.5903
    1SAPS  C317  127   3.729   6.108   8.538  0.5131 -1.7263 -0.0439
    1SAPS  H17X  128   3.638   6.054   8.572 -1.7171  0.6803 -2.0863
    1SAPS  H17Y  129   3.809   6.035   8.567 -1.5309 -4.0913 -0.2062
    1SAPS  C318  130   3.716   6.110   8.389 -0.5482  0.1789  0.5726
    1SAPS  H18X  131   3.624   6.162   8.353 -1.1482 -1.5379 -0.4337
    1SAPS  H18Y  132   3.699   6.005   8.356 -1.0448 -0.1551  1.8630
    1SAPS  H18Z  133   3.801   6.152   8.330 -2.3533  0.5859 -1.8092
    2SAPS     N  134   1.240   0.471  10.886  0.0542 -0.2177 -0.6323
    2SAPS   HN1  135   1.299   0.535  10.830 -0.8265  1.3658  0.2145
    2SAPS   HN2  136   1.156   0.443  10.831  0.3177 -0.1213 -1.0913
    2SAPS   HN3  137   1.205   0.521  10.971 -2.7208 -1.9659 -0.6659
    2SAPS   C12  138   1.305   0.343  10.925 -0.6491  0.4449  0.2625
    2SAPS  H12A  139   1.374   0.360  11.006 -2.0615  0.6461  1.4568
    2SAPS   C13  140   1.215   0.231  10.975  0.1032 -0.4064  0.1335
    2SAPS  O13A  141   1.091   0.236  10.950 -0.3421  0.1180  0.2439
    2SAPS  O13B  142   1.264   0.119  11.002 -0.9434 -0.1842  0.2978
    2SAPS   C11  143   1.387   0.298  10.801  0.5518 -0.6156  0.1125
    2SAPS  H11A  144   1.323   0.262  10.718  0.9021 -0.6516 -0.1436
    2SAPS  H11B  145   1.449   0.211  10.829 -0.0386 -1.8671 -2.3123
    2SAPS     P  146   1.549   0.408  10.619  0.0779  0.2931 -0.2270
    2SAPS   O13  147   1.473   0.527  10.566  0.0123  0.2365 -0.1760
    2SAPS   O14  148   1.691   0.430  10.647 -0.3799  0.2312  0.1605
    2SAPS   O12  149   1.480   0.390  10.761 -0.3189  0.1179  0.3113
    2SAPS   O11  150   1.521   0.284  10.531  0.2184 -0.3742 -0.0857
    2SAPS    C1  151   1.593   0.166  10.560  0.2486 -0.4279  0.1952
    2SAPS    HA  152   1.599   0.137  10.666 -0.1816 -0.1489  0.2963
    2SAPS    HB  153   1.532   0.086  10.514 -1.4871  0.6262  0.6198
    2SAPS    C2  154   1.733   0.154  10.490 -0.0975 -0.9537 -0.4189
    2SAPS    HS  155   1.814   0.189  10.557 -2.4447  1.9841  1.0271
    2SAPS   O21  156   1.737   0.224  10.364 -0.2045  0.0178 -0.0175
    2SAPS   C21  157   1.852   0.230  10.303  1.1212  0.1613  0.0517
    2SAPS   O22  158   1.961   0.192  10.350  0.0643 -0.2125  0.3894
    2SAPS   C22  159   1.833   0.279  10.163 -0.0514  0.8674 -0.1951
    2SAPS   H2R  160   1.728   0.292  10.130 -0.1349 -1.8818 -1.1654
    2SAPS   H2S  161   1.866   0.384  10.153 -1.6539  1.4207  0.2091
    2SAPS    C3  162   1.769   0.007  10.460 -0.2357  0.2701 -0.4342
    2SAPS    HX  163   1.742  -0.056  10.548 -0.1307  0.3871 -0.3178
    2SAPS    HY  164   1.876  -0.014  10.441 -0.1233 -0.2431  0.7253
    2SAPS   O31  165   1.688  -0.041  10.354  0.2975 -0.0046  0.2465
    2SAPS   C31  166   1.695  -0.169  10.329  0.3721 -0.1705  0.4026
    2SAPS   O32  167   1.765  -0.251  10.389  0.3712 -0.6212 -0.1382
    2SAPS   C32  168   1.603  -0.211  10.212  0.9491  1.2164  0.3017
    2SAPS   H2X  169   1.511  -0.151  10.226  0.1720 -0.0837  0.8612
    2SAPS   H2Y  170   1.575  -0.318  10.206  1.0353  1.1223  1.4816
    2SAPS   C23  171   1.909   0.186  10.065  0.6839  0.1718 -0.0226
    2SAPS   H3R  172   1.912   0.085  10.110  0.0833 -0.3119 -1.0466
    2SAPS   H3S  173   2.013   0.218  10.044  0.4652  2.1641  1.7930
    2SAPS   C24  174   1.830   0.166   9.934 -0.4243 -0.7840  0.0627
    2SAPS   H4R  175   1.722   0.147   9.949 -0.3032  0.6442  2.9630
    2SAPS   H4S  176   1.870   0.076   9.882 -0.5579 -1.0792  0.4751
    2SAPS   C25  177   1.830   0.286   9.847  0.1957  0.0396 -0.2452
    2SAPS   H5R  178   1.828   0.383   9.900  2.6768 -0.0154 -0.0203
    2SAPS   C26  179   1.818   0.293   9.704 -1.0261  0.1469 -1.0988
    2SAPS   H6R  180   1.812   0.394   9.662  0.4129  0.6276 -0.1776
    2SAPS   C27  181   1.821   0.176   9.612 -0.2600 -0.1884 -0.0287
    2SAPS   H7R  182   1.736   0.204   9.545 -0.1196  0.0512 -0.1060
    2SAPS   H7S  183   1.777   0.085   9.658 -0.8060  0.0541 -0.0680
    2SAPS   C28  184   1.949   0.162   9.537 -0.4842 -0.0778 -0.3760
    2SAPS   H8R  185   2.039   0.169   9.599  0.8426 -1.4625 -2.0720
    2SAPS   C29  186   1.969   0.163   9.408  0.4532 -0.2221 -0.2004
    2SAPS   H9R  187   2.074   0.151   9.376  0.4765 -2.2448  0.5575
    2SAPS  C210  188   1.867   0.169   9.297 -0.2879 -0.6309  0.4857
    2SAPS  H10R  189   1.799   0.251   9.328  1.2671  0.0931  2.0785
    2SAPS  H10S  190   1.796   0.084   9.307 -2.2691  0.9431  0.0305
    2SAPS  C211  191   1.912   0.167   9.156 -0.1526  0.0795 -0.4797
    2SAPS  H11R  192   2.018   0.140   9.141 -0.0188 -0.9653  2.0303
    2SAPS  C212  193   1.834   0.190   9.042 -0.3123  0.5528 -0.6116
    2SAPS  H12R  194   1.889   0.175   8.948  0.7040 -3.5795  0.5591
    2SAPS  C213  195   1.690   0.228   9.029  0.2956  0.5251 -0.4403
    2SAPS  H13R  196   1.678   0.322   8.971 -1.4262  0.1707 -0.6840
    2SAPS  H13S  197   1.652   0.254   9.130  0.3412 -2.4501  0.3956
    2SAPS  C214  198   1.615   0.109   8.977 -0.4014 -0.8520  0.0857
    2SAPS  H14R  199   1.645   0.007   9.006  0.9432 -0.3370  0.5596
    2SAPS  C215  200   1.502   0.132   8.906  0.2964 -0.3234  0.1451
    2SAPS  H15R  201   1.442   0.045   8.877 -0.5656 -0.4157  2.1217
    2SAPS  C216  202   1.447   0.261   8.859  0.2340 -0.1928  0.7771
    2SAPS  H16R  203   1.444   0.336   8.940  0.6038  0.2251  0.4080
    2SAPS  H16S  204   1.340   0.247   8.832  0.9503 -2.0363 -1.3276
    2SAPS  C217  205   1.540   0.307   8.742 -0.1873  0.0421  0.6147
    2SAPS  H17R  206   1.648   0.284   8.753  0.2073  2.0173  0.9672
    2SAPS  H17S  207   1.545   0.418   8.735  1.9707 -0.1978 -2.7174
    2SAPS  C218  208   1.491   0.249   8.613 -0.4036  0.0156  0.1004
    2SAPS  H18R  209   1.410   0.311   8.570  0.7936  0.4870 -1.5777
    2SAPS  H18S  210   1.448   0.148   8.628  0.3866  0.0036  2.4922
    2SAPS  C219  211   1.595   0.245   8.504  0.1196  0.0950 -0.3063
    2SAPS  H19R  212   1.549   0.190   8.418  3.0603 -0.1470 -1.7811
    2SAPS  H19S  213   1.691   0.198   8.536  0.6823  1.4914  0.0765
    2SAPS  C220  214   1.628   0.382   8.442  0.4153 -1.0071  0.1571
    2SAPS  H20R  215   1.683   0.365   8.347  3.0093  0.4777  1.3226
    2SAPS  H20S  216   1.691   0.446   8.508  0.7285 -1.7097  0.5397
    2SAPS  H20T  217   1.531   0.433   8.425  0.7541 -0.1547  0.7348
    2SAPS   C33  218   1.653  -0.179  10.070 -0.2295  0.0345  0.8576
    2SAPS   H3X  219   1.758  -0.214  10.066 -0.8221 -1.5724 -1.7166
    2SAPS   H3Y  220   1.664  -0.070  10.051  0.5556 -0.2343 -0.2609
    2SAPS   C34  221   1.580  -0.254   9.964  0.2942 -0.4280 -0.6667
    2SAPS   H4X  222   1.477  -0.212   9.967  0.2304 -0.6310  0.0598
    2SAPS   H4Y  223   1.578  -0.364   9.977 -1.0871 -0.2913  0.3336
    2SAPS   C35  224   1.647  -0.231   9.825  0.4120  0.0623  0.3178
    2SAPS   H5X  225   1.755  -0.254   9.831  0.3876  0.4101  2.4205
    2SAPS   H5Y  226   1.638  -0.127   9.788 -0.8995 -0.3509 -0.5937
    2SAPS   C36  227   1.592  -0.315   9.709  0.0302 -0.3164 -0.3692
    2SAPS   H6X  228   1.482  -0.304   9.705  0.1780  0.9844 -1.0754
    2SAPS   H6Y  229   1.610  -0.422   9.733  1.9080 -0.2976 -1.6102
    2SAPS   C37  230   1.657  -0.283   9.579  0.8194 -0.0678  0.9717
    2SAPS   H7X  231   1.761  -0.278   9.616  1.2109  0.5379 -0.1824
    2SAPS   H7Y  232   1.634  -0.181   9.541  0.3514  0.2581  2.1204
    2SAPS   C38  233   1.618  -0.383   9.465 -1.0408  0.0480 -0.0870
    2SAPS   H8X  234   1.518  -0.353   9.426 -0.1698  4.0289  0.5199
    2SAPS   H8Y  235   1.620  -0.490   9.496  1.4358  0.0601 -0.1138
    2SAPS   C39  236   1.718  -0.375   9.349  0.5490 -0.1847  0.5931
    2SAPS   H9X  237   1.725  -0.472   9.296  0.4139  0.0943  0.0648
    2SAPS   H9Y  238   1.821  -0.353   9.384  1.0416  1.4455 -1.7176
    2SAPS  C310  239   1.679  -0.283   9.231 -0.0749 -0.8683  0.2107
    2SAPS  H10X  240   1.766  -0.274   9.162  0.1887  0.1567  0.6634
    2SAPS  H10Y  241   1.669  -0.180   9.270  1.1890  0.0447 -1.7980
    2SAPS  C311  242   1.545  -0.329   9.163  0.7391  0.6646  0.1719
    2SAPS  H11X  243   1.510  -0.233   9.120 -0.7225  0.3597  0.6720
    2SAPS  H11Y  244   1.460  -0.359   9.228  1.3501  0.5132  0.9106
    2SAPS  C312  245   1.560  -0.426   9.048 -0.9245 -0.2605 -0.5489
    2SAPS  H12X  246   1.591  -0.524   9.091 -0.0216 -0.0212 -0.6422
    2SAPS  H12Y  247   1.638  -0.390   8.979  1.0109 -0.5099  1.4416
    2SAPS  C313  248   1.433  -0.447   8.973 -0.2411 -0.0967 -0.8871
    2SAPS  H13X  249   1.342  -0.476   9.031  1.8567 -0.0048  2.5856
    2SAPS  H13Y  250   1.451  -0.535   8.909  0.1747 -1.0847  0.5572
    2SAPS  C314  251   1.393  -0.335   8.879 -0.8614  0.3300 -0.4448
    2SAPS  H14X  252   1.356  -0.249   8.938 -0.0829 -0.9042  1.9240
    2SAPS  H14Y  253   1.311  -0.367   8.811  0.4217  1.5421 -2.6131
    2SAPS  C315  254   1.516  -0.281   8.799 -0.2740  0.9184  0.2502
    2SAPS  H15X  255   1.587  -0.357   8.760  2.9118  2.8893  2.0823
    2SAPS  H15Y  256   1.580  -0.206   8.850 -0.7133 -0.8039  3.4711
    2SAPS  C316  257   1.477  -0.199   8.674  0.5175  0.4810 -0.0162
    2SAPS  H16X  258   1.411  -0.113   8.697  0.2561  0.6602 -1.4411
    2SAPS  H16Y  259   1.420  -0.265   8.605 -0.6928 -0.2709  1.6713
    2SAPS  C317  260   1.605  -0.145   8.612  0.2347  0.0982  0.6296
    2SAPS  H17X  261   1.685  -0.219   8.635 -1.5597 -2.4962 -1.0759
    2SAPS  H17Y  262   1.628  -0.040   8.639  1.5995 -0.1493  0.4848
    2SAPS  C318  263   1.584  -0.144   8.459 -0.1719  0.5200  0.5640
    2SAPS  H18X  264   1.492  -0.089   8.427 -0.4656 -0.4245 -0.2506
    2SAPS  H18Y  265   1.583  -0.246   8.415  0.1772  1.1136 -0.8594
    2SAPS  H18Z  266   1.667  -0.090   8.409 -0.9645  1.0618 -0.1812
    3SAPS     N  267   2.434   1.580  10.608 -0.2261  0.0809  0.0226
    3SAPS   HN1  268   2.389   1.646  10.541  0.0380 -0.4151 -0.6434
    3SAPS   HN2  269   2.502   1.523  10.554 -1.5574 -2.3218  0.8103
    3SAPS   HN3  270   2.359   1.519  10.648  0.6134 -1.7833 -1.1734
    3SAPS   C12  271   2.497   1.663  10.721  0.5190  0.1987 -0.1649
    3SAPS  H12A  272   2.538   1.594  10.793  1.6794 -0.4968 -1.4515
    3SAPS   C13  273   2.616   1.755  10.658  0.7252  0.1044  0.1331
    3SAPS  O13A  274   2.652   1.740  10.539 -0.8533 -0.2297 -0.5413
    3SAPS  O13B  275   2.696   1.803  10.746  0.3846 -0.7003  0.2501
    3SAPS   C11  276   2.399   1.761  10.795 -0.2091 -0.3874 -0.5177
    3SAPS  H11A  277   2.347   1.835  10.730 -2.4839 -1.0168  0.5353
    3SAPS  H11B  278   2.451   1.819  10.874 -1.3581 -2.0164  1.4736
    3SAPS     P  279   2.174   1.627  10.842  0.4957 -0.1808  0.0670
    3SAPS   O13  280   2.159   1.493  10.903 -0.3914 -0.2177 -0.0776
    3SAPS   O14  281   2.075   1.730  10.884  0.6707 -0.0502  0.3074
    3SAPS   O12  282   2.316   1.676  10.880 -0.5075 -0.0109  0.1113
    3SAPS   O11  283   2.165   1.609  10.691  0.2841 -0.0834  0.6630
    3SAPS    C1  284   2.037   1.609  10.622 -0.2567 -0.6149 -0.3365
    3SAPS    HA  285   1.989   1.512  10.648 -2.4319  0.5614  0.1801
    3SAPS    HB  286   1.971   1.689  10.662  1.6561 -0.0100  1.6864
    3SAPS    C2  287   2.050   1.620  10.470  0.2263  0.3200 -0.1338
    3SAPS    HS  288   2.130   1.547  10.444  1.2816  0.6934  1.9408
    3SAPS   O21  289   2.070   1.756  10.436  0.5907  0.0624  0.3084
    3SAPS   C21  290   2.197   1.788  10.416  0.2456  0.0331 -0.0898
    3SAPS   O22  291   2.295   1.710  10.421  0.3841  0.0998 -0.1786
    3SAPS   C22  292   2.208   1.937  10.386  0.1698 -0.4516 -0.6795
    3SAPS   H2R  293   2.115   1.998  10.382  0.7887  0.6881  1.8562
    3SAPS   H2S  294   2.273   1.984  10.463  0.1828 -1.3333 -0.1506
    3SAPS    C3  295   1.924   1.555  10.392  0.1822  0.7555 -0.0070
    3SAPS    HX  296   1.833   1.584  10.449  0.0511  0.6188 -0.1463
    3SAPS    HY  297   1.956   1.449  10.400  0.4400  0.7481 -1.0573
    3SAPS   O31  298   1.910   1.589  10.247  0.4922  0.5007  0.1484
    3SAPS   C31  299   1.790   1.600  10.200 -0.2893  0.0757  0.7144
    3SAPS   O32  300   1.689   1.595  10.258  0.6030 -0.7605 -0.0183
    3SAPS   C32  301   1.810   1.637  10.050  0.6225 -0.1256 -0.3515
    3SAPS   H2X  302   1.903   1.582  10.023 -0.3391 -1.9155 -0.1492
    3SAPS   H2Y  303   1.824   1.747  10.051 -1.6137  0.1909 -0.6085
    3SAPS   C23  304   2.278   1.948  10.256 -0.1407 -0.2584  0.5745
    3SAPS   H3R  305   2.380   1.904  10.252 -0.8369 -1.7438 -1.8890
    3SAPS   H3S  306   2.293   2.056  10.238 -0.7218 -0.2558  0.0786
    3SAPS   C24  307   2.179   1.898  10.140 -0.4202 -0.0057  0.6268
    3SAPS   H4R  308   2.089   1.962  10.141 -0.9569 -0.6417 -2.4657
    3SAPS   H4S  309   2.164   1.792  10.172  4.4776 -0.4135  2.1239
    3SAPS   C25  310   2.251   1.908  10.010 -0.1736 -0.5874 -0.6101
    3SAPS   H5R  311   2.333   1.980  10.010 -0.0210 -0.7458 -1.9253
    3SAPS   C26  312   2.228   1.834   9.896 -0.0776 -0.1792 -0.2350
    3SAPS   H6R  313   2.294   1.852   9.810 -0.7490 -2.6812 -1.3053
    3SAPS   C27  314   2.120   1.725   9.870 -0.3398 -0.0559 -0.8243
    3SAPS   H7R  315   2.082   1.698   9.970 -0.1096  1.2732 -0.3732
    3SAPS   H7S  316   2.165   1.636   9.821  0.8665 -1.4820  2.7071
    3SAPS   C28  317   2.020   1.789   9.781 -0.4172  1.0141  0.1144
    3SAPS   H8R  318   1.944   1.861   9.815 -1.8256 -0.7556  0.8186
    3SAPS   C29  319   2.004   1.769   9.650 -0.1346  0.0372 -0.1799
    3SAPS   H9R  320   1.927   1.821   9.590 -1.0063 -0.8290  0.1687
    3SAPS  C210  321   2.097   1.670   9.578 -0.1339  0.3259  0.2619
    3SAPS  H10R  322   2.203   1.664   9.610 -0.0430 -2.3546 -0.4321
    3SAPS  H10S  323   2.108   1.713   9.476 -1.7746  0.2776  0.0618
    3SAPS  C211  324   2.058   1.523   9.576 -0.1281 -0.0517  0.6840
    3SAPS  H11R  325   2.070   1.476   9.675 -1.0775  0.2861  0.9677
    3SAPS  C212  326   2.006   1.448   9.477 -0.4594  0.0721 -0.4190
    3SAPS  H12R  327   1.985   1.342   9.493  0.6977 -0.5135 -2.6632
    3SAPS  C213  328   1.993   1.497   9.333  0.0845  0.5610 -0.2256
    3SAPS  H13R  329   1.980   1.607   9.336 -0.9235  0.5342 -2.3937
    3SAPS  H13S  330   1.900   1.448   9.296  0.6479 -0.2065 -0.6154
    3SAPS  C214  331   2.102   1.464   9.245  0.1314  0.1206 -0.5401
    3SAPS  H14R  332   2.181   1.405   9.295 -0.8083  0.5526  1.4837
    3SAPS  C215  333   2.125   1.519   9.126  0.5930  0.4078  0.2114
    3SAPS  H15R  334   2.212   1.488   9.066 -0.4208 -1.5311 -0.3085
    3SAPS  C216  335   2.028   1.618   9.068  0.8921  0.0239  0.8185
    3SAPS  H16R  336   2.085   1.692   9.007 -1.8314  1.1602 -0.4407
    3SAPS  H16S  337   1.966   1.669   9.145 -0.2804 -1.3830  0.8198
    3SAPS  C217  338   1.921   1.539   8.982  0.3086  0.2025  0.4894
    3SAPS  H17R  339   1.883   1.454   9.043  1.4146 -0.5458  0.1500
    3SAPS  H17S  340   1.959   1.489   8.891  0.9400  0.3214  0.6882
    3SAPS  C218  341   1.809   1.635   8.951 -0.7408  0.2677  0.0129
    3SAPS  H18R  342   1.767   1.659   9.051  0.2746 -2.3053  1.1164
    3SAPS  H18S  343   1.729   1.590   8.887  1.2923 -2.8102 -0.4977
    3SAPS  C219  344   1.847   1.764   8.868 -0.3736  0.0134 -0.3131
    3SAPS  H19R  345   1.899   1.735   8.774 -0.2012  0.6478 -0.4108
    3SAPS  H19S  346   1.910   1.836   8.924  0.2029  0.3455 -1.3764
    3SAPS  C220  347   1.729   1.849   8.825 -0.0901 -0.6763  0.3449
    3SAPS  H20R  348   1.678   1.895   8.912 -0.8339 -1.4018  0.2967
    3SAPS  H20S  349   1.660   1.791   8.760  1.7512 -1.5869 -0.8361
    3SAPS  H20T  350   1.753   1.926   8.748 -2.3599 -0.5140 -0.2279
    3SAPS   C33  351   1.691   1.579   9.968 -0.5952 -0.2036 -0.2439
    3SAPS   H3X  352   1.593   1.624   9.996  0.2238  0.7521  1.1470
    3SAPS   H3Y  353   1.680   1.469   9.978 -0.6133 -0.2293 -0.5249
    3SAPS   C34  354   1.706   1.608   9.820 -0.0422 -0.3336 -0.0081
    3SAPS   H4X  355   1.800   1.569   9.776  0.6416  1.3737 -0.1017
    3SAPS   H4Y  356   1.693   1.715   9.793  3.7105  0.5151  1.3087
    3SAPS   C35  357   1.611   1.517   9.733 -0.8791 -0.5932 -0.8676
    3SAPS   H5X  358   1.508   1.525   9.774 -0.2081 -0.3953  0.7892
    3SAPS   H5Y  359   1.631   1.412   9.764 -0.9661 -1.5495 -3.8331
    3SAPS   C36  360   1.631   1.540   9.585 -0.3670  0.3788  0.3411
    3SAPS   H6X  361   1.728   1.520   9.535 -0.0517  2.6184  0.0050
    3SAPS   H6Y  362   1.604   1.643   9.552 -1.7797  0.0412  0.3756
    3SAPS   C37  363   1.537   1.449   9.506 -0.1551  0.0548  0.1610
    3SAPS   H7X  364   1.435   1.492   9.516  0.2236  1.6382 -2.4434
    3SAPS   H7Y  365   1.540   1.347   9.550 -0.6761  0.5425  1.3541
    3SAPS   C38  366   1.554   1.435   9.349 -0.3453 -0.2024 -0.3967
    3SAPS   H8X  367   1.472   1.376   9.304 -1.8589 -0.5190  2.6692
    3SAPS   H8Y  368   1.652   1.384   9.336  0.5856  0.7998  2.3101
    3SAPS   C39  369   1.579   1.562   9.273  0.2728 -0.4411 -0.0827
    3SAPS   H9X  370   1.581   1.524   9.168 -1.8449  0.3790 -0.4673
    3SAPS   H9Y  371   1.673   1.613   9.301 -1.0332  1.6209  0.7375
    3SAPS  C310  372   1.453   1.657   9.281  0.1580  0.4841  0.0350
    3SAPS  H10X  373   1.420   1.676   9.385  1.2769 -0.3629  0.5545
    3SAPS  H10Y  374   1.368   1.605   9.233  0.0078  1.8648 -1.2439
    3SAPS  C311  375   1.470   1.783   9.202  0.3147  0.7156  0.2827
    3SAPS  H11X  376   1.564   1.832   9.235  1.7828 -0.9941 -1.2673
    3SAPS  H11Y  377   1.381   1.845   9.227 -1.0887 -0.8336 -0.7470
    3SAPS  C312  378   1.469   1.765   9.047 -0.2405  0.0746 -0.3245
    3SAPS  H12X  379   1.529   1.676   9.018  2.6307  2.2522 -1.3067
    3SAPS  H12Y  380   1.510   1.855   8.996  0.7780 -0.3561 -0.2868
    3SAPS  C313  381   1.327   1.756   8.985 -0.0088  0.6262 -0.1424
    3SAPS  H13X  382   1.270   1.852   8.984  0.4591  0.9069 -1.1296
    3SAPS  H13Y  383   1.263   1.677   9.029  2.3496 -1.8324 -1.0344
    3SAPS  C314  384   1.332   1.715   8.833 -0.0109 -0.4804 -0.3472
    3SAPS  H14X  385   1.367   1.610   8.829  2.6005  0.3076  0.9409
    3SAPS  H14Y  386   1.414   1.777   8.791  1.4425 -1.8828  0.3681
    3SAPS  C315  387   1.200   1.732   8.750 -0.4827 -0.1247  0.5172
    3SAPS  H15X  388   1.171   1.839   8.743 -1.3926 -0.2117  2.5401
    3SAPS  H15Y  389   1.113   1.685   8.800  0.4478 -0.5943  1.7071
    3SAPS  C316  390   1.214   1.677   8.608 -0.3513  0.0665  0.1286
    3SAPS  H16X  391   1.263   1.577   8.608 -0.4677  0.0092  0.2964
    3SAPS  H16Y  392   1.282   1.749   8.558 -1.0080 -0.1253 -1.0477
    3SAPS  C317  393   1.080   1.669   8.533  0.5083  0.2444 -0.1266
    3SAPS  H17X  394   1.043   1.774   8.523 -0.0883 -0.0571 -1.2256
    3SAPS  H17Y  395   1.015   1.606   8.597  2.2447  0.0242  1.4593
    3SAPS  C318  396   1.113   1.615   8.394 -0.7037 -0.2538 -0.1345
    3SAPS  H18X  397   1.028   1.616   8.323  1.9219 -0.6057 -3.4417
    3SAPS  H18Y  398   1.151   1.510   8.396 -1.7678 -0.6560 -0.9311
    3SAPS  H18Z  399   1.182   1.677   8.333 -2.4378 -0.2095 -2.1108
    4SAPS     N  400   3.331   2.688  10.728 -0.3418 -0.6445 -0.9523
    4SAPS   HN1  401   3.327   2.777  10.674 -1.6908  2.0494  3.2998
    4SAPS   HN2  402   3.427   2.654  10.707 -0.4724 -1.9554  0.5095
    4SAPS   HN3  403   3.270   2.618  10.682 -0.2998  0.2322 -2.3631
    4SAPS   C12  404   3.318   2.721  10.872  0.2238  0.4520 -0.2140
    4SAPS  H12A  405   3.214   2.735  10.894  0.1999 -1.1316  0.7406
    4SAPS   C13  406   3.358   2.607  10.965  0.5922  0.6390 -0.3380
    4SAPS  O13A  407   3.434   2.510  10.924 -0.6331 -0.6974 -0.1976
    4SAPS  O13B  408   3.362   2.632  11.088  0.0357  0.1512 -0.3951
    4SAPS   C11  409   3.405   2.842  10.900 -0.6281 -0.2806 -0.3614
    4SAPS  H11A  410   3.511   2.808  10.901 -0.5937 -0.1649 -0.2093
    4SAPS  H11B  411   3.385   2.879  11.003  0.1935 -0.2212 -0.2169
    4SAPS     P  412   3.468   3.075  10.809  0.4615 -0.2479 -0.0519
    4SAPS   O13  413   3.371   3.179  10.846  0.4348 -0.4789  0.6526
    4SAPS   O14  414   3.588   3.060  10.893  0.6358  0.4083 -0.0598
    4SAPS   O12  415   3.383   2.943  10.804  0.0837  0.3672  0.2452
    4SAPS   O11  416   3.511   3.092  10.651 -0.0663  0.1350 -0.6249
    4SAPS    C1  417   3.540   2.969  10.588  0.5139  0.4114  0.4216
    4SAPS    HA  418   3.586   2.888  10.648  0.6457  0.3642  0.2572
    4SAPS    HB  419   3.443   2.928  10.553 -0.8347  0.8030  3.5481
    4SAPS    C2  420   3.629   2.983  10.458  0.4231  0.8024 -0.8144
    4SAPS    HS  421   3.619   2.882  10.414 -0.7028  0.8877 -0.7646
    4SAPS   O21  422   3.763   3.004  10.503 -0.2514  0.2546  0.2417
    4SAPS   C21  423   3.849   2.956  10.415 -0.0962 -0.3315 -0.9585
    4SAPS   O22  424   3.825   2.890  10.318 -0.0720 -0.1431 -0.2404
    4SAPS   C22  425   3.984   2.992  10.479  0.3018  0.5647 -0.4096
    4SAPS   H2R  426   4.000   3.100  10.463  0.7089  0.4267 -0.9134
    4SAPS   H2S  427   3.985   2.972  10.589 -1.8467 -0.5190 -0.5552
    4SAPS    C3  428   3.573   3.086  10.362 -0.2458  0.2723  0.0939
    4SAPS    HX  429   3.586   3.182  10.416 -2.0541 -0.2803  1.5305
    4SAPS    HY  430   3.464   3.065  10.359 -0.4395  1.0695  1.6164
    4SAPS   O31  431   3.640   3.093  10.235 -0.1999  0.3617 -0.4184
    4SAPS   C31  432   3.591   3.005  10.141  0.8412  1.0612 -0.6114
    4SAPS   O32  433   3.487   2.937  10.162 -0.0744  0.4011  0.0415
    4SAPS   C32  434   3.667   2.997  10.008 -0.5047 -0.0140  0.2310
    4SAPS   H2X  435   3.760   3.056  10.020 -1.4673  1.9506 -1.6630
    4SAPS   H2Y  436   3.599   3.052   9.940 -0.2348 -1.1535 -0.9685
    4SAPS   C23  437   4.094   2.913  10.413  0.4153  0.4652 -0.0266
    4SAPS   H3R  438   4.073   2.804  10.413  0.6181  0.4117  1.6960
    4SAPS   H3S  439   4.181   2.916  10.482  0.3786  1.3049 -0.0135
    4SAPS   C24  440   4.132   2.948  10.273 -0.0488  0.0920  0.1573
    4SAPS   H4R  441   4.166   3.053  10.289 -0.3646  0.3146 -0.6502
    4SAPS   H4S  442   4.040   2.951  10.211 -0.5992 -1.9234  0.8262
    4SAPS   C25  443   4.243   2.868  10.215 -0.2517  0.5608  0.4979
    4SAPS   H5R  444   4.336   2.858  10.273 -0.7168  0.6631  1.2674
    4SAPS   C26  445   4.223   2.798  10.095 -0.7366  0.4137  0.2359
    4SAPS   H6R  446   4.310   2.740  10.059 -0.1675  1.2573  0.2522
    4SAPS   C27  447   4.104   2.792  10.004 -0.2617  0.1791  0.0928
    4SAPS   H7R  448   4.004   2.804  10.051 -0.2236  0.0123  0.2153
    4SAPS   H7S  449   4.114   2.688   9.966  1.0867 -0.0324  1.0152
    4SAPS   C28  450   4.107   2.899   9.898  0.4796 -0.8310  0.4436
    4SAPS   H8R  451   4.076   3.001   9.924 -1.2568 -0.9205 -1.1631
    4SAPS   C29  452   4.153   2.880   9.776  0.1210  0.4151 -0.3394
    4SAPS   H9R  453   4.157   2.964   9.705 -0.0933 -0.4131 -1.3401
    4SAPS  C210  454   4.214   2.763   9.705  0.7122  0.1038  0.4437
    4SAPS  H10R  455   4.284   2.712   9.775  1.4904  1.4484  0.6695
    4SAPS  H10S  456   4.288   2.787   9.626  1.7183 -0.5765  1.1660
    4SAPS  C211  457   4.109   2.669   9.648  0.4168 -0.4918  0.4411
    4SAPS  H11R  458   4.045   2.615   9.719 -1.8819  2.5503  0.7568
    4SAPS  C212  459   4.083   2.649   9.519  0.0256  0.6300 -0.1744
    4SAPS  H12R  460   4.011   2.569   9.499  0.3203  0.2914  0.0951
    4SAPS  C213  461   4.146   2.705   9.396 -0.0185 -0.2149  0.0151
    4SAPS  H13R  462   4.171   2.623   9.324  1.4613  0.3264 -0.1107
    4SAPS  H13S  463   4.247   2.741   9.426 -0.4022  1.0081 -0.1705
    4SAPS  C214  464   4.079   2.814   9.322  0.2983  0.1188  0.1135
    4SAPS  H14R  465   4.055   2.893   9.394 -0.8683  0.2233 -0.3794
    4SAPS  C215  466   4.056   2.823   9.193  0.1835  0.6238 -0.3156
    4SAPS  H15R  467   4.024   2.922   9.157  1.3513  0.9850 -0.4034
    4SAPS  C216  468   4.079   2.722   9.082 -0.0956  1.2155  0.0585
    4SAPS  H16R  469   3.993   2.728   9.013  0.6668 -0.7757 -1.1148
    4SAPS  H16S  470   4.072   2.622   9.130 -0.5980  0.9310 -0.6060
    4SAPS  C217  471   4.210   2.733   8.999 -0.1707  0.0531  0.1378
    4SAPS  H17R  472   4.210   2.641   8.938  2.6851 -0.1010  0.2972
    4SAPS  H17S  473   4.304   2.749   9.057  1.2584  3.1614 -2.8303
    4SAPS  C218  474   4.217   2.843   8.894  0.0131 -0.2884  0.6267
    4SAPS  H18R  475   4.234   2.942   8.942  1.7881  0.0288 -0.5783
    4SAPS  H18S  476   4.128   2.835   8.827  2.0475 -1.5278 -2.0465
    4SAPS  C219  477   4.340   2.825   8.796  0.2327 -0.6446 -0.6259
    4SAPS  H19R  478   4.349   2.720   8.763  3.0815 -0.2269 -1.2481
    4SAPS  H19S  479   4.434   2.845   8.851  0.4258 -0.0549 -1.1609
    4SAPS  C220  480   4.323   2.928   8.688 -0.1278  0.1231 -0.1357
    4SAPS  H20R  481   4.403   2.921   8.611 -1.0217  0.8644 -1.1518
    4SAPS  H20S  482   4.327   3.029   8.735 -1.4370 -0.4017  1.1145
    4SAPS  H20T  483   4.225   2.920   8.637 -0.7656 -0.5230  1.1630
    4SAPS   C33  484   3.698   2.855   9.951 -0.2827  0.1494  0.4982
    4SAPS   H3X  485   3.721   2.788  10.037 -3.2221 -0.7393  0.6345
    4SAPS   H3Y  486   3.791   2.868   9.891  0.4281  0.7013  1.6832
    4SAPS   C34  487   3.582   2.788   9.879  0.4459 -0.1677 -0.6603
    4SAPS   H4X  488   3.565   2.858   9.795  1.5973 -0.1080 -0.8512
    4SAPS   H4Y  489   3.486   2.795   9.934  1.2020  2.6161  0.4204
    4SAPS   C35  490   3.616   2.645   9.846 -0.5160 -0.3985  0.5843
    4SAPS   H5X  491   3.524   2.586   9.827 -0.1361 -1.1143  0.9660
    4SAPS   H5Y  492   3.674   2.606   9.932 -0.3895 -1.1927  0.1394
    4SAPS   C36  493   3.708   2.636   9.728  0.2028 -0.4504 -1.0062
    4SAPS   H6X  494   3.810   2.674   9.750  0.2101  0.1245 -2.0055
    4SAPS   H6Y  495   3.669   2.687   9.637 -0.2221  3.0700  1.0819
    4SAPS   C37  496   3.744   2.489   9.692 -0.4318 -0.4555  1.1619
    4SAPS   H7X  497   3.679   2.434   9.764 -0.0405 -1.7403  0.5548
    4SAPS   H7Y  498   3.845   2.455   9.724  0.1120 -1.5973 -1.5896
    4SAPS   C38  499   3.721   2.460   9.542 -0.5712  0.2171 -0.3936
    4SAPS   H8X  500   3.736   2.555   9.486  1.1175 -0.0721 -0.4311
    4SAPS   H8Y  501   3.614   2.431   9.535 -1.4446  3.0933  0.4483
    4SAPS   C39  502   3.816   2.355   9.484  1.1792  0.3599 -0.0505
    4SAPS   H9X  503   3.772   2.256   9.512 -0.4963  0.8435 -0.8987
    4SAPS   H9Y  504   3.916   2.375   9.528  1.6407 -0.8439 -0.5180
    4SAPS  C310  505   3.819   2.360   9.327 -0.4649 -0.1738 -0.4196
    4SAPS  H10X  506   3.899   2.288   9.297  2.5118  1.6446  2.8232
    4SAPS  H10Y  507   3.853   2.462   9.302 -0.0279 -0.2654 -0.2059
    4SAPS  C311  508   3.684   2.332   9.260 -0.3689 -0.1444 -1.1622
    4SAPS  H11X  509   3.612   2.410   9.290  1.0430  1.0611 -0.8464
    4SAPS  H11Y  510   3.643   2.240   9.305  1.2094  0.1959  1.0592
    4SAPS  C312  511   3.692   2.321   9.100  0.1620  0.5970 -0.6224
    4SAPS  H12X  512   3.767   2.247   9.067 -0.6937 -0.1580 -0.8861
    4SAPS  H12Y  513   3.731   2.419   9.066  0.9137  0.5371  0.0357
    4SAPS  C313  514   3.564   2.298   9.027  0.0049  0.0858  0.2758
    4SAPS  H13X  515   3.475   2.344   9.074  0.8370 -0.7436  2.7654
    4SAPS  H13Y  516   3.534   2.191   9.033  0.3147 -0.0916 -1.2026
    4SAPS  C314  517   3.581   2.340   8.878 -0.7864  0.5362  0.2362
    4SAPS  H14X  518   3.647   2.260   8.836 -2.5932 -0.5794 -0.5609
    4SAPS  H14Y  519   3.630   2.439   8.873  2.2165 -0.9313 -0.5592
    4SAPS  C315  520   3.453   2.337   8.798  0.1756  0.5735 -0.5241
    4SAPS  H15X  521   3.388   2.425   8.817  0.8085  1.1732 -1.1003
    4SAPS  H15Y  522   3.394   2.244   8.809  2.3240 -1.1164 -2.5748
    4SAPS  C316  523   3.476   2.339   8.643 -0.2447  0.4588  0.4148
    4SAPS  H16X  524   3.559   2.269   8.620 -0.7410 -0.7344  2.1764
    4SAPS  H16Y  525   3.505   2.443   8.616  1.1748  0.0171  0.1923
    4SAPS  C317  526   3.347   2.283   8.568  0.3413 -0.3472  0.0727
    4SAPS  H17X  527   3.268   2.357   8.594  0.6083 -0.5449  1.4860
    4SAPS  H17Y  528   3.327   2.183   8.614 -4.2246  0.0822 -0.7337
    4SAPS  C318  529   3.357   2.265   8.419 -0.2331 -0.0482 -0.0109
    4SAPS  H18X  530   3.271   2.203   8.384 -3.4000  2.1528  3.4198
    4SAPS  H18Y  531   3.455   2.218   8.398 -0.3503 -0.0052 -0.6556
    4SAPS  H18Z  532   3.356   2.362   8.364  0.4829 -0.8660 -1.4879
    5SAPS     N  533   1.591   1.651  11.085 -0.0403  0.3590 -0.1623
    5SAPS   HN1  534   1.558   1.563  11.131 -0.7445  1.5711  1.6909
    5SAPS   HN2  535   1.517   1.680  11.019 -0.0424  1.0540  0.1489
    5SAPS   HN3  536   1.680   1.637  11.032  0.5746  0.8012  0.7293
    5SAPS   C12  537   1.601   1.757  11.189  0.8214 -0.3780  0.0988
    5SAPS  H12A  538   1.499   1.784  11.212  0.7787 -0.0970 -0.4229
    5SAPS   C13  539   1.686   1.709  11.310  0.6771 -0.7995  0.7214
    5SAPS  O13A  540   1.734   1.588  11.317  0.5628 -0.1229  0.3517
    5SAPS  O13B  541   1.677   1.780  11.411  0.1959 -0.1990 -0.0693
    5SAPS   C11  542   1.679   1.878  11.124  0.0243  0.0655 -0.5546
    5SAPS  H11A  543   1.780   1.849  11.090  0.1869  1.2267 -1.0919
    5SAPS  H11B  544   1.691   1.946  11.210 -0.2745  1.7598 -1.8238
    5SAPS     P  545   1.611   2.071  10.961 -0.3744 -0.1198 -0.1957
    5SAPS   O13  546   1.569   2.175  11.058 -0.0112  0.2809 -0.3126
    5SAPS   O14  547   1.743   2.091  10.893  0.2371  0.4236  0.2345
    5SAPS   O12  548   1.598   1.935  11.028 -0.2636  0.5444  0.5065
    5SAPS   O11  549   1.501   2.063  10.856  0.3587  0.5047  0.1676
    5SAPS    C1  550   1.490   1.952  10.766 -0.4643 -0.9813  0.7096
    5SAPS    HA  551   1.542   1.860  10.800 -0.8157 -0.9935  1.2185
    5SAPS    HB  552   1.383   1.923  10.753 -0.4789 -0.9758  0.8184
    5SAPS    C2  553   1.520   1.994  10.623  0.4994 -0.0776 -0.2321
    5SAPS    HS  554   1.607   2.061  10.613 -1.5047  2.5577 -0.3921
    5SAPS   O21  555   1.405   2.043  10.554 -1.1209  0.0123  0.0798
    5SAPS   C21  556   1.398   2.176  10.581  0.3042  0.7182 -1.0695
    5SAPS   O22  557   1.482   2.249  10.627  0.1522 -0.1003 -0.3454
    5SAPS   C22  558   1.256   2.220  10.544 -0.0802 -1.1570  0.1533
    5SAPS   H2R  559   1.238   2.198  10.436 -0.9380 -0.5316  0.1577
    5SAPS   H2S  560   1.186   2.167  10.612  2.3510 -0.5567  3.2182
    5SAPS    C3  561   1.576   1.878  10.540  0.5935  0.2689 -0.3691
    5SAPS    HX  562   1.525   1.781  10.556  0.6853  0.0848 -1.1835
    5SAPS    HY  563   1.681   1.853  10.568 -0.7266 -2.2149  2.7602
    5SAPS   O31  564   1.576   1.897  10.397  0.6329 -0.1056 -0.2323
    5SAPS   C31  565   1.665   1.981  10.346 -0.9725  0.2730 -0.0724
    5SAPS   O32  566   1.744   2.052  10.406  0.2400  0.0558  0.2350
    5SAPS   C32  567   1.634   2.001  10.193 -0.3834  0.9970 -0.0886
    5SAPS   H2X  568   1.529   2.029  10.168 -0.1466 -1.0660 -3.7683
    5SAPS   H2Y  569   1.637   1.894  10.160 -0.1092  0.4594  1.6235
    5SAPS   C23  570   1.221   2.372  10.544  0.7375  0.1369 -0.3419
    5SAPS   H3R  571   1.245   2.406  10.647  2.5119 -0.6320 -0.4797
    5SAPS   H3S  572   1.116   2.406  10.540  0.0108 -2.2165 -1.5898
    5SAPS   C24  573   1.297   2.464  10.434  0.4343  0.4220 -0.1928
    5SAPS   H4R  574   1.406   2.445  10.445  0.4006 -1.0074 -2.0914
    5SAPS   H4S  575   1.288   2.572  10.456 -0.1134  0.0369  1.5616
    5SAPS   C25  576   1.257   2.436  10.296 -0.7551  0.3568  0.5695
    5SAPS   H5R  577   1.169   2.369  10.296 -2.8711  2.9789 -2.7781
    5SAPS   C26  578   1.306   2.501  10.187  0.3832  0.0932  0.2140
    5SAPS   H6R  579   1.270   2.464  10.090 -2.4051  0.6840  0.9816
    5SAPS   C27  580   1.407   2.613  10.180  0.3184 -0.0082  0.2584
    5SAPS   H7R  581   1.403   2.675  10.272 -0.9439  0.9370 -0.4031
    5SAPS   H7S  582   1.377   2.681  10.098 -0.2530 -1.8573 -1.1039
    5SAPS   C28  583   1.538   2.549  10.149 -0.2845 -0.0157  0.1809
    5SAPS   H8R  584   1.590   2.515  10.239 -0.2534 -0.9264 -0.1739
    5SAPS   C29  585   1.584   2.518  10.031  0.2444 -0.4774  0.0490
    5SAPS   H9R  586   1.675   2.456  10.029  0.2968 -0.3806 -0.6133
    5SAPS  C210  587   1.523   2.536   9.894  0.2820  0.1579  0.1197
    5SAPS  H10R  588   1.414   2.552   9.913 -0.1930 -2.5554 -0.1058
    5SAPS  H10S  589   1.532   2.448   9.827 -0.6928 -0.3234  0.6124
    5SAPS  C211  590   1.558   2.663   9.818 -0.5564 -0.5453  0.2548
    5SAPS  H11R  591   1.558   2.754   9.880 -1.8946  0.3428 -1.0035
    5SAPS  C212  592   1.596   2.675   9.687  0.1562  0.3269  0.2307
    5SAPS  H12R  593   1.595   2.775   9.641  0.1128  0.0433 -0.3892
    5SAPS  C213  594   1.590   2.567   9.580 -0.3283 -0.2481  0.4895
    5SAPS  H13R  595   1.501   2.591   9.519 -0.7931  1.4130  1.7561
    5SAPS  H13S  596   1.560   2.470   9.624 -2.0021  0.3198  0.6206
    5SAPS  C214  597   1.715   2.568   9.494  0.2557  0.2406  0.2936
    5SAPS  H14R  598   1.796   2.507   9.537 -0.8181 -0.4191  1.3909
    5SAPS  C215  599   1.730   2.623   9.369  0.1371  0.3561 -0.1770
    5SAPS  H15R  600   1.825   2.603   9.317  0.1837 -1.3807  0.5653
    5SAPS  C216  601   1.612   2.693   9.299 -0.0641 -0.2906 -0.2962
    5SAPS  H16R  602   1.515   2.668   9.347  0.5525  1.0443  1.7439
    5SAPS  H16S  603   1.615   2.646   9.199 -1.7166 -1.6573  0.2648
    5SAPS  C217  604   1.635   2.847   9.276 -0.9576  0.4929  0.3614
    5SAPS  H17R  605   1.574   2.892   9.194  2.4102  2.3499 -1.2682
    5SAPS  H17S  606   1.737   2.876   9.243 -0.2459 -2.2786  0.0630
    5SAPS  C218  607   1.590   2.935   9.395  0.3481  0.4790  0.0376
    5SAPS  H18R  608   1.483   2.910   9.412  0.5852 -0.9469 -0.5042
    5SAPS  H18S  609   1.656   2.915   9.483  0.0561  0.0965  0.1707
    5SAPS  C219  610   1.595   3.081   9.360 -0.2427  0.6458  0.7300
    5SAPS  H19R  611   1.522   3.144   9.416 -0.4295  1.7765 -0.7556
    5SAPS  H19S  612   1.557   3.090   9.256  2.5590  0.8596 -0.3194
    5SAPS  C220  613   1.731   3.146   9.364  0.4254  0.1394 -0.7022
    5SAPS  H20R  614   1.812   3.086   9.316  0.1830 -0.3475 -0.5113
    5SAPS  H20S  615   1.765   3.151   9.470  1.3537 -0.1651 -0.9793
    5SAPS  H20T  616   1.722   3.251   9.329 -0.8585 -0.0301 -0.9010
    5SAPS   C33  617   1.746   2.079  10.112 -0.6995  0.1549 -0.0218
    5SAPS   H3X  618   1.839   2.029  10.147 -0.8410  0.6551  1.0757
    5SAPS   H3Y  619   1.748   2.186  10.142  0.7032 -0.6737  3.0499
    5SAPS   C34  620   1.728   2.068   9.962 -0.8031 -0.6546  0.7832
    5SAPS   H4X  621   1.639   2.124   9.928  0.9100  2.4594  1.2266
    5SAPS   H4Y  622   1.708   1.961   9.939 -0.2414 -0.2553 -1.8288
    5SAPS   C35  623   1.847   2.131   9.886 -0.0858  0.2880 -0.2624
    5SAPS   H5X  624   1.846   2.102   9.779 -1.1018 -3.5304  0.7005
    5SAPS   H5Y  625   1.934   2.089   9.941 -0.3374  0.3343  0.1774
    5SAPS   C36  626   1.857   2.279   9.894  0.0371  0.2631 -0.3819
    5SAPS   H6X  627   1.835   2.311   9.998  0.1368  0.0643 -0.2997
    5SAPS   H6Y  628   1.789   2.337   9.829  0.5623  1.3879  0.0532
    5SAPS   C37  629   2.000   2.325   9.854  0.1768 -0.2075 -0.1898
    5SAPS   H7X  630   2.015   2.279   9.754 -1.2404  0.4476 -0.7182
    5SAPS   H7Y  631   2.077   2.296   9.929 -0.0505  1.0796  0.5634
    5SAPS   C38  632   2.015   2.479   9.847  0.3106 -0.5116  0.4314
    5SAPS   H8X  633   2.003   2.529   9.946 -0.7097  0.0563  0.0188
    5SAPS   H8Y  634   1.939   2.521   9.779 -0.3908 -2.3238  0.0537
    5SAPS   C39  635   2.151   2.519   9.800 -0.8501  0.1820 -0.2696
    5SAPS   H9X  636   2.229   2.505   9.877  0.6977  4.1414 -0.9704
    5SAPS   H9Y  637   2.144   2.628   9.776  1.0200  0.1094 -1.2396
    5SAPS  C310  638   2.205   2.451   9.678  0.7321  0.2072  0.5294
    5SAPS  H10X  639   2.203   2.344   9.707  0.0902 -0.1716 -0.8616
    5SAPS  H10Y  640   2.312   2.476   9.664  0.4105  0.8773 -0.9048
    5SAPS  C311  641   2.134   2.486   9.541 -0.9339 -0.4777 -0.9335
    5SAPS  H11X  642   2.155   2.593   9.520  2.4953 -1.6545 -4.0285
    5SAPS  H11Y  643   2.027   2.472   9.564 -0.4215 -1.4271  0.9477
    5SAPS  C312  644   2.190   2.388   9.436  0.1467 -0.4867 -0.6669
    5SAPS  H12X  645   2.158   2.293   9.485  0.7754 -1.1993 -1.6166
    5SAPS  H12Y  646   2.300   2.403   9.436 -0.0783  1.5562  2.2894
    5SAPS  C313  647   2.126   2.408   9.292 -0.3757 -0.4152  0.4938
    5SAPS  H13X  648   2.126   2.519   9.278 -2.9345 -0.2438  1.3716
    5SAPS  H13Y  649   2.018   2.380   9.292 -0.5096  0.0870  0.5228
    5SAPS  C314  650   2.197   2.342   9.177 -0.2343 -0.3736 -0.2132
    5SAPS  H14X  651   2.160   2.238   9.175 -3.6927  0.7310  1.4956
    5SAPS  H14Y  652   2.307   2.344   9.196 -0.4355  1.4526  0.8988
    5SAPS  C315  653   2.185   2.421   9.046 -0.0253 -0.0163 -0.2930
    5SAPS  H15X  654   2.221   2.525   9.061  2.3499 -0.9879  1.0999
    5SAPS  H15Y  655   2.082   2.427   9.007  0.1978  0.1078 -0.8651
    5SAPS  C316  656   2.260   2.354   8.933 -0.2953 -0.0346 -0.0704
    5SAPS  H16X  657   2.231   2.247   8.939 -1.1829  0.2743  1.3759
    5SAPS  H16Y  658   2.369   2.358   8.956 -0.1295 -1.4089 -0.5513
    5SAPS  C317  659   2.240   2.419   8.795 -0.5380  0.2366 -0.5821
    5SAPS  H17X  660   2.277   2.522   8.810 -1.7070  0.5551  0.1774
    5SAPS  H17Y  661   2.130   2.423   8.781 -0.7499  2.4920  1.4740
    5SAPS  C318  662   2.316   2.335   8.688 -0.0969 -0.4791  0.2879
    5SAPS  H18X  663   2.349   2.406   8.609  2.3856  0.2487  1.9072
    5SAPS  H18Y  664   2.235   2.264   8.662 -0.1713 -0.9180  1.6941
    5SAPS  H18Z  665   2.394   2.275   8.741 -0.8931  1.1056  3.3300
    6SAPS     N  666   0.752   1.421  11.102  0.4775 -0.1023 -0.5060
    6SAPS   HN1  667   0.843   1.373  11.093  1.7688  1.9865  0.8487
    6SAPS   HN2  668   0.771   1.456  11.199 -2.7700  3.2159 -0.9383
    6SAPS   HN3  669   0.664   1.366  11.104  0.2278  0.3238  2.7418
    6SAPS   C12  670   0.731   1.541  11.013 -0.0984  0.0159 -0.6132
    6SAPS  H12A  671   0.628   1.572  11.004  0.1855  0.9727 -0.5884
    6SAPS   C13  672   0.802   1.666  11.074 -0.0621  0.3710 -0.3215
    6SAPS  O13A  673   0.871   1.661  11.178 -0.4485 -0.1393 -0.1490
    6SAPS  O13B  674   0.754   1.781  11.036 -0.7549  0.8965  0.1722
    6SAPS   C11  675   0.779   1.517  10.864  0.3416 -0.4814  0.0833
    6SAPS  H11A  676   0.889   1.500  10.865  0.4005 -0.0976  0.0828
    6SAPS  H11B  677   0.763   1.608  10.802  1.2788 -1.0711 -1.0555
    6SAPS     P  678   0.596   1.417  10.710  0.0985  0.0413 -0.2493
    6SAPS   O13  679   0.539   1.280  10.702 -0.0171  0.1719  0.4013
    6SAPS   O14  680   0.514   1.534  10.746 -0.2787  0.2231 -0.0209
    6SAPS   O12  681   0.714   1.408  10.812 -0.4463  0.1556  0.1534
    6SAPS   O11  682   0.674   1.445  10.578 -0.2358  0.2854 -0.0383
    6SAPS    C1  683   0.770   1.359  10.515  0.3609  0.3430 -0.4173
    6SAPS    HA  684   0.863   1.417  10.499  0.4854  0.5381  0.9138
    6SAPS    HB  685   0.799   1.282  10.590 -0.8631  1.5310  1.3136
    6SAPS    C2  686   0.725   1.290  10.379  0.4942 -0.4472  0.2296
    6SAPS    HS  687   0.804   1.225  10.335  0.9314  0.2787 -0.0748
    6SAPS   O21  688   0.694   1.402  10.293 -0.2271 -0.1475  0.2335
    6SAPS   C21  689   0.800   1.466  10.242 -0.7790  0.3293 -0.3999
    6SAPS   O22  690   0.915   1.425  10.251 -0.3110 -0.9566 -0.0195
    6SAPS   C22  691   0.754   1.587  10.163  1.3529  0.0617  0.0665
    6SAPS   H2R  692   0.650   1.563  10.131  0.4122  3.7657  0.0754
    6SAPS   H2S  693   0.741   1.664  10.242  4.0564  0.8989 -0.2498
    6SAPS    C3  694   0.597   1.200  10.405 -0.2652 -0.1667 -0.3624
    6SAPS    HX  695   0.510   1.254  10.447 -0.1881 -1.2633  1.2411
    6SAPS    HY  696   0.624   1.131  10.487 -1.8064  1.2395  1.3411
    6SAPS   O31  697   0.565   1.131  10.278  0.1469 -0.6168 -0.2531
    6SAPS   C31  698   0.465   1.048  10.295  0.2440 -0.7224 -0.0626
    6SAPS   O32  699   0.398   1.035  10.395  0.0284  0.2493  0.2268
    6SAPS   C32  700   0.439   0.969  10.168 -0.3331  0.0454 -0.2969
    6SAPS   H2X  701   0.502   1.004  10.083  0.0692  1.6097  0.6335
    6SAPS   H2Y  702   0.331   0.981  10.144 -0.8938  1.0046  2.6090
    6SAPS   C23  703   0.847   1.630  10.044 -0.1684  0.3172 -0.0264
    6SAPS   H3R  704   0.869   1.534   9.993  2.0657 -0.6836  2.7385
    6SAPS   H3S  705   0.945   1.660  10.086 -0.7847  0.2897  1.4602
    6SAPS   C24  706   0.793   1.742   9.962  0.5774 -0.3755 -0.3181
    6SAPS   H4R  707   0.875   1.782   9.898 -0.1237 -0.9287 -1.5701
    6SAPS   H4S  708   0.787   1.821  10.040  0.1819  0.5359 -1.2709
    6SAPS   C25  709   0.661   1.726   9.895  0.2585  0.7375  0.2748
    6SAPS   H5R  710   0.578   1.744   9.965  2.1242 -0.6310  2.9406
    6SAPS   C26  711   0.651   1.720   9.763  0.0822 -0.0880  0.3858
    6SAPS   H6R  712   0.550   1.705   9.723 -0.2490 -3.5455  2.3032
    6SAPS   C27  713   0.757   1.718   9.658 -0.0282 -0.5376  0.6923
    6SAPS   H7R  714   0.858   1.752   9.688  0.8363 -1.0396 -1.5149
    6SAPS   H7S  715   0.732   1.774   9.565  0.7053  0.9104  1.3489
    6SAPS   C28  716   0.781   1.575   9.611  0.6543 -0.1368  0.6609
    6SAPS   H8R  717   0.787   1.501   9.692  2.9707 -0.6062  0.0746
    6SAPS   C29  718   0.803   1.537   9.483 -0.2388  0.4227  0.3356
    6SAPS   H9R  719   0.810   1.431   9.456 -1.2890  0.6916 -1.0282
    6SAPS  C210  720   0.806   1.628   9.361  0.4307 -0.5878  0.6772
    6SAPS  H10R  721   0.744   1.719   9.371  0.7231 -0.1554 -1.2606
    6SAPS  H10S  722   0.754   1.579   9.275  0.5281  0.9621 -0.2804
    6SAPS  C211  723   0.944   1.680   9.333 -0.0410  0.2515  0.3831
    6SAPS  H11R  724   1.012   1.695   9.418  1.4346  2.4982 -1.1547
    6SAPS  C212  725   0.994   1.718   9.208 -0.0645  0.0485 -0.4206
    6SAPS  H12R  726   1.098   1.749   9.190  0.0086 -0.3983 -0.7894
    6SAPS  C213  727   0.913   1.693   9.081 -0.0035 -0.9347 -0.1994
    6SAPS  H13R  728   0.834   1.617   9.096  0.5047 -0.8481  3.2642
    6SAPS  H13S  729   0.993   1.656   9.012  0.6631  0.5374 -0.2277
    6SAPS  C214  730   0.866   1.822   9.020 -0.0567 -0.5034  0.1531
    6SAPS  H14R  731   0.875   1.915   9.078 -1.0772 -0.9488  1.0299
    6SAPS  C215  732   0.811   1.837   8.902 -0.3346 -0.3519 -0.6877
    6SAPS  H15R  733   0.799   1.942   8.872  2.6973  0.8628  2.0453
    6SAPS  C216  734   0.787   1.740   8.795 -1.1389  0.6797 -0.2060
    6SAPS  H16R  735   0.724   1.653   8.824  1.9045 -0.7771  2.2305
    6SAPS  H16S  736   0.887   1.693   8.797 -0.9223  1.1713  0.8560
    6SAPS  C217  737   0.759   1.796   8.655  0.2431  0.0450 -0.2373
    6SAPS  H17R  738   0.763   1.713   8.581  0.1065  0.5241 -0.7886
    6SAPS  H17S  739   0.834   1.874   8.629 -0.9735  1.1205 -0.6010
    6SAPS  C218  740   0.621   1.870   8.656 -0.9722  0.1832  0.2089
    6SAPS  H18R  741   0.598   1.923   8.750 -3.4769  1.3489 -1.0180
    6SAPS  H18S  742   0.541   1.795   8.638 -0.2105 -0.5643 -0.1389
    6SAPS  C219  743   0.607   1.972   8.547  0.5957  0.1585 -0.0175
    6SAPS  H19R  744   0.688   2.048   8.556  2.1930 -1.6611  1.3875
    6SAPS  H19S  745   0.509   2.022   8.556 -0.3294 -1.4756 -0.8011
    6SAPS  C220  746   0.602   1.936   8.405  0.5722  0.8364  0.0477
    6SAPS  H20R  747   0.515   1.870   8.384  1.6390 -0.0423 -1.6739
    6SAPS  H20S  748   0.695   1.883   8.375 -0.8382 -1.2903 -0.6599
    6SAPS  H20T  749   0.602   2.029   8.345  0.6264  1.1978  0.6081
    6SAPS   C33  750   0.469   0.818  10.182 -0.3977 -0.8943 -0.1378
    6SAPS   H3X  751   0.377   0.779  10.231 -0.1536 -0.6829  0.4879
    6SAPS   H3Y  752   0.559   0.808  10.246 -0.1979  0.7217 -0.1455
    6SAPS   C34  753   0.493   0.744  10.043  0.3730 -0.6858 -0.0560
    6SAPS   H4X  754   0.504   0.636  10.067  1.1201 -1.2537 -2.7860
    6SAPS   H4Y  755   0.593   0.771  10.003  0.2372  0.8921  0.6340
    6SAPS   C35  756   0.389   0.757   9.941  0.1655 -0.0018 -0.3573
    6SAPS   H5X  757   0.378   0.865   9.916 -3.1128  0.1611  1.4731
    6SAPS   H5Y  758   0.294   0.720   9.985  0.3722  1.9264  1.7674
    6SAPS   C36  759   0.409   0.676   9.810  0.1871 -0.6133 -0.4916
    6SAPS   H6X  760   0.320   0.672   9.743  0.9018 -1.7960 -1.3940
    6SAPS   H6Y  761   0.432   0.574   9.847  2.0680  0.4589  1.3814
    6SAPS   C37  762   0.537   0.710   9.732 -0.3885  0.6968 -0.8620
    6SAPS   H7X  763   0.620   0.672   9.794 -0.5410  0.4801 -0.7894
    6SAPS   H7Y  764   0.542   0.821   9.724  0.0023  0.8876  1.6367
    6SAPS   C38  765   0.549   0.645   9.593 -1.1204 -0.2284  1.1450
    6SAPS   H8X  766   0.513   0.542   9.614 -1.8541 -0.4281 -1.0138
    6SAPS   H8Y  767   0.648   0.638   9.543 -1.7034  2.8938 -0.5690
    6SAPS   C39  768   0.459   0.710   9.487  0.0942 -0.6510 -0.2569
    6SAPS   H9X  769   0.497   0.813   9.471  1.6034 -0.7486  2.3799
    6SAPS   H9Y  770   0.352   0.713   9.516 -0.0694 -0.7240 -0.8626
    6SAPS  C310  771   0.470   0.631   9.353 -0.6377  0.3789  0.0262
    6SAPS  H10X  772   0.575   0.643   9.321 -0.6550  1.6457  0.4117
    6SAPS  H10Y  773   0.401   0.676   9.278 -0.3852  3.1891  1.4490
    6SAPS  C311  774   0.452   0.481   9.363 -0.9737 -0.0940  0.2455
    6SAPS  H11X  775   0.357   0.462   9.418 -0.5979 -0.0082  0.9253
    6SAPS  H11Y  776   0.535   0.430   9.416  1.6125  2.2963 -1.3743
    6SAPS  C312  777   0.421   0.407   9.223 -0.2230 -0.6652  0.2606
    6SAPS  H12X  778   0.334   0.455   9.172 -0.5120 -0.2505  1.1463
    6SAPS  H12Y  779   0.387   0.302   9.235  1.9229 -1.3352  0.6716
    6SAPS  C313  780   0.549   0.409   9.136 -0.8357  0.4629 -0.3969
    6SAPS  H13X  781   0.625   0.345   9.185  0.1553  2.2711  0.4739
    6SAPS  H13Y  782   0.600   0.506   9.120  2.2565 -0.9172  0.7691
    6SAPS  C314  783   0.529   0.373   8.989  0.2401 -0.2208 -0.1286
    6SAPS  H14X  784   0.489   0.457   8.927  0.6437  0.8631  1.0567
    6SAPS  H14Y  785   0.451   0.300   8.958 -2.6394  3.0908 -1.0791
    6SAPS  C315  786   0.654   0.326   8.925  0.1439 -0.2719 -0.0604
    6SAPS  H15X  787   0.696   0.241   8.982  0.7977 -0.0213 -0.1581
    6SAPS  H15Y  788   0.745   0.389   8.919 -0.8447  1.5138  2.8365
    6SAPS  C316  789   0.632   0.273   8.776  0.2777 -0.5028 -0.3624
    6SAPS  H16X  790   0.555   0.193   8.785 -0.2783  0.2261  1.6442
    6SAPS  H16Y  791   0.727   0.224   8.744  0.7893 -1.2793  2.2127
    6SAPS  C317  792   0.583   0.376   8.677  0.0172  0.6421  0.1544
    6SAPS  H17X  793   0.650   0.464   8.684  0.5482  0.3352 -0.9084
    6SAPS  H17Y  794   0.481   0.408   8.706 -0.8895 -0.3523 -1.8257
    6SAPS  C318  795   0.584   0.323   8.532 -0.0722 -0.2677 -0.0217
    6SAPS  H18X  796   0.530   0.226   8.533  0.7291 -0.7110  0.9863
    6SAPS  H18Y  797   0.691   0.303   8.508 -0.3463 -0.8091 -0.7936
    6SAPS  H18Z  798   0.536   0.392   8.460  0.0749 -0.3957 -0.2432
    7SAPS     N  799   2.353   3.096  10.578 -0.6142 -0.0103  0.2533
    7SAPS   HN1  800   2.443   3.119  10.531 -0.4285  0.1497  0.6798
    7SAPS   HN2  801   2.340   2.993  10.581  1.2948 -0.3771 -2.6629
    7SAPS   HN3  802   2.275   3.146  10.531 -0.7628 -0.9791 -0.5455
    7SAPS   C12  803   2.361   3.140  10.721 -0.4186 -0.3431 -0.5634
    7SAPS  H12A  804   2.368   3.247  10.716  0.0558 -0.3801 -0.7244
    7SAPS   C13  805   2.232   3.103  10.796 -0.3900  0.3682  0.2376
    7SAPS  O13A  806   2.141   3.047  10.735  0.7625  0.0558  0.1923
    7SAPS  O13B  807   2.203   3.160  10.905 -0.1408 -0.1078  0.0445
    7SAPS   C11  808   2.495   3.077  10.800 -0.1925 -0.0570  0.6215
    7SAPS  H11A  809   2.514   3.135  10.893 -0.9101  1.9262 -0.4444
    7SAPS  H11B  810   2.583   3.094  10.734  1.7010 -1.5183  2.7004
    7SAPS     P  811   2.537   2.822  10.734  0.4198 -0.1476  0.0688
    7SAPS   O13  812   2.676   2.806  10.785 -0.1460  0.1573  0.8913
    7SAPS   O14  813   2.440   2.711  10.745  0.5118  0.0829  0.4349
    7SAPS   O12  814   2.473   2.942  10.815 -0.2991  0.1114  0.0147
    7SAPS   O11  815   2.538   2.876  10.588 -0.3913  0.4232  0.6277
    7SAPS    C1  816   2.626   2.848  10.480 -0.3066 -0.4463  0.1554
    7SAPS    HA  817   2.683   2.942  10.466  0.1787 -0.9483 -1.4229
    7SAPS    HB  818   2.697   2.765  10.504 -0.8528 -1.2562 -0.9357
    7SAPS    C2  819   2.542   2.803  10.359 -0.5107  0.1029  0.6569
    7SAPS    HS  820   2.502   2.897  10.316  2.5039  1.1802  0.1022
    7SAPS   O21  821   2.435   2.709  10.402  0.0530 -0.0095  0.2946
    7SAPS   C21  822   2.318   2.760  10.418  0.2588 -1.5308 -0.0499
    7SAPS   O22  823   2.287   2.877  10.394 -0.0494  0.1821  0.4200
    7SAPS   C22  824   2.229   2.648  10.487  0.0353 -0.0742 -0.0849
    7SAPS   H2R  825   2.274   2.548  10.475 -2.3750 -1.4265  1.8252
    7SAPS   H2S  826   2.228   2.682  10.592 -1.1143 -0.8107  0.1466
    7SAPS    C3  827   2.626   2.736  10.247 -0.1473  0.2171  0.1654
    7SAPS    HX  828   2.661   2.638  10.287 -3.3994 -0.7527  0.7718
    7SAPS    HY  829   2.717   2.797  10.230 -0.3584  0.5117  0.0962
    7SAPS   O31  830   2.555   2.720  10.122 -0.4024  0.1843  0.0538
    7SAPS   C31  831   2.609   2.638  10.038  0.0732 -0.5024  0.8690
    7SAPS   O32  832   2.720   2.591  10.047 -0.0762  0.2720 -0.1908
    7SAPS   C32  833   2.517   2.616   9.918  0.2680  0.6294  0.5526
    7SAPS   H2X  834   2.494   2.715   9.873 -2.7852  0.1007  0.8875
    7SAPS   H2Y  835   2.428   2.566   9.961 -0.7441  1.7475 -0.2016
    7SAPS   C23  836   2.089   2.648  10.433  0.2120  0.8081  0.7960
    7SAPS   H3R  837   2.052   2.750  10.454 -0.7350  0.6875 -0.1805
    7SAPS   H3S  838   2.027   2.588  10.504 -1.5515 -0.7264 -1.9163
    7SAPS   C24  839   2.061   2.584  10.296 -0.0669 -0.1786  0.2991
    7SAPS   H4R  840   2.145   2.622  10.234  0.2078  0.4070  1.0250
    7SAPS   H4S  841   1.965   2.608  10.245  0.2036  0.4046  0.0567
    7SAPS   C25  842   2.079   2.435  10.314  0.2329 -0.1983 -0.1566
    7SAPS   H5R  843   1.996   2.384  10.365 -1.8287 -0.0809 -3.3340
    7SAPS   C26  844   2.181   2.366  10.271  0.2460 -0.3267  0.4330
    7SAPS   H6R  845   2.181   2.259  10.296 -0.6592 -0.0132  1.8226
    7SAPS   C27  846   2.306   2.410  10.192  0.4666 -0.1797 -0.4841
    7SAPS   H7R  847   2.325   2.519  10.195 -1.0014  0.0479  1.0388
    7SAPS   H7S  848   2.310   2.362  10.092 -2.3059 -0.5169 -0.4629
    7SAPS   C28  849   2.420   2.358  10.271 -0.5178 -0.2880 -0.0581
    7SAPS   H8R  850   2.423   2.404  10.371  3.3865 -1.9361  0.6801
    7SAPS   C29  851   2.523   2.278  10.241 -0.0955 -0.1428  0.6293
    7SAPS   H9R  852   2.583   2.234  10.323  0.1881  0.1041  0.5564
    7SAPS  C210  853   2.547   2.220  10.105 -0.4133  0.4087  0.1265
    7SAPS  H10R  854   2.585   2.307  10.047 -2.5723  0.0289 -1.9402
    7SAPS  H10S  855   2.451   2.186  10.060 -1.4208 -0.6777  2.9581
    7SAPS  C211  856   2.634   2.097  10.110  0.2744 -0.2564  0.0411
    7SAPS  H11R  857   2.636   2.044  10.207  3.2603 -1.7329 -0.7580
    7SAPS  C212  858   2.717   2.055  10.014 -0.3188  0.0273  0.5722
    7SAPS  H12R  859   2.785   1.971  10.033  1.2810  0.7332 -1.7554
    7SAPS  C213  860   2.730   2.116   9.878  0.3994  0.8558 -0.4282
    7SAPS  H13R  861   2.833   2.156   9.871  1.6452 -2.1745 -0.1060
    7SAPS  H13S  862   2.671   2.209   9.863 -1.9501 -0.4516  0.5280
    7SAPS  C214  863   2.697   2.004   9.779 -0.3941  0.2912 -0.1924
    7SAPS  H14R  864   2.757   1.912   9.784 -0.6839  0.1739  1.6107
    7SAPS  C215  865   2.593   2.011   9.689 -0.0305 -0.3555  0.4232
    7SAPS  H15R  866   2.572   1.916   9.638 -1.4899 -0.3074  0.8939
    7SAPS  C216  867   2.500   2.125   9.666  0.2874 -0.0210  0.7779
    7SAPS  H16R  868   2.506   2.216   9.730  1.4949  1.2570 -1.0965
    7SAPS  H16S  869   2.393   2.100   9.684 -0.0013 -0.5733 -1.5132
    7SAPS  C217  870   2.519   2.179   9.522  0.3291 -0.2989  0.2542
    7SAPS  H17R  871   2.628   2.200   9.521  0.2743 -0.0105  0.0603
    7SAPS  H17S  872   2.469   2.278   9.513  1.2995  0.5220  3.2764
    7SAPS  C218  873   2.489   2.084   9.402  0.9038  0.1044 -0.1024
    7SAPS  H18R  874   2.563   2.001   9.410  1.3859  0.4950 -0.4109
    7SAPS  H18S  875   2.492   2.135   9.303 -1.1907  0.6986  0.1225
    7SAPS  C219  876   2.358   2.007   9.411 -0.3725 -0.7738 -0.4508
    7SAPS  H19R  877   2.279   2.084   9.419  0.6064  0.1210  0.7461
    7SAPS  H19S  878   2.353   1.941   9.500  0.2734 -0.0230  0.1510
    7SAPS  C220  879   2.330   1.909   9.293  0.6394 -1.1073 -0.0610
    7SAPS  H20R  880   2.418   1.842   9.281  1.5288  0.1493 -0.7606
    7SAPS  H20S  881   2.316   1.966   9.198  0.2833  1.6159  1.5682
    7SAPS  H20T  882   2.234   1.857   9.307 -0.8842  2.3503  3.1935
    7SAPS   C33  883   2.587   2.531   9.809  0.6673  0.9280  0.3230
    7SAPS   H3X  884   2.509   2.481   9.748 -0.8282 -0.3638  3.1880
    7SAPS   H3Y  885   2.639   2.443   9.852  0.6624  0.7680  0.0060
    7SAPS   C34  886   2.684   2.600   9.713  0.4949  0.3888 -0.1699
    7SAPS   H4X  887   2.788   2.600   9.751  0.7314 -2.5409 -0.6943
    7SAPS   H4Y  888   2.644   2.703   9.704  0.9800  0.5106 -1.0244
    7SAPS   C35  889   2.686   2.527   9.575  0.1987  0.0124  0.2469
    7SAPS   H5X  890   2.688   2.417   9.587  2.0963  0.0728  0.5513
    7SAPS   H5Y  891   2.778   2.558   9.521 -0.2767  2.5561  0.8240
    7SAPS   C36  892   2.574   2.563   9.483  0.3823 -0.2330  0.0234
    7SAPS   H6X  893   2.576   2.673   9.469 -0.0710 -0.2436 -0.1273
    7SAPS   H6Y  894   2.476   2.530   9.524  0.8206 -1.9975 -0.2979
    7SAPS   C37  895   2.585   2.509   9.342  0.1007 -0.2611 -0.6619
    7SAPS   H7X  896   2.509   2.430   9.326  1.1553 -1.4418  0.0359
    7SAPS   H7Y  897   2.684   2.460   9.330  0.2365 -0.0760 -0.3003
    7SAPS   C38  898   2.560   2.616   9.237 -0.0227  0.1899  0.4617
    7SAPS   H8X  899   2.645   2.687   9.227  0.7178 -0.5574  1.3347
    7SAPS   H8Y  900   2.470   2.676   9.259  1.4035  3.5489 -2.2534
    7SAPS   C39  901   2.544   2.568   9.093 -0.2115  0.1103  0.0646
    7SAPS   H9X  902   2.441   2.528   9.082  0.4122 -2.6045  3.3176
    7SAPS   H9Y  903   2.617   2.486   9.074 -1.8659 -0.8467 -2.4663
    7SAPS  C310  904   2.558   2.687   8.997  0.6631  0.1360 -0.0217
    7SAPS  H10X  905   2.657   2.731   9.023  0.8058  0.1473 -0.5713
    7SAPS  H10Y  906   2.483   2.768   9.006  0.5693  0.2211 -1.3924
    7SAPS  C311  907   2.545   2.643   8.843 -0.3246  0.0894  0.2807
    7SAPS  H11X  908   2.440   2.661   8.813  1.1043  3.3496 -3.2115
    7SAPS  H11Y  909   2.565   2.535   8.826 -0.8619  0.2415 -1.3955
    7SAPS  C312  910   2.645   2.724   8.753  0.5377 -0.3963 -0.4447
    7SAPS  H12X  911   2.744   2.708   8.801 -0.7000 -0.1329  2.3271
    7SAPS  H12Y  912   2.629   2.834   8.754 -1.6326 -0.6413 -3.0628
    7SAPS  C313  913   2.650   2.668   8.609  0.4315  0.1499 -0.5780
    7SAPS  H13X  914   2.717   2.733   8.550 -1.8460  1.6441 -1.5996
    7SAPS  H13Y  915   2.550   2.673   8.559 -1.2240 -0.9983  2.4574
    7SAPS  C314  916   2.699   2.524   8.609  0.3661  0.2407 -0.4044
    7SAPS  H14X  917   2.623   2.458   8.656 -1.1420  1.3978 -1.1668
    7SAPS  H14Y  918   2.794   2.515   8.665 -0.1431  0.4818  0.5145
    7SAPS  C315  919   2.729   2.474   8.461  0.3040  0.0207 -0.9376
    7SAPS  H15X  920   2.757   2.367   8.475  0.5583  0.4679  2.1399
    7SAPS  H15Y  921   2.811   2.529   8.410  0.0256 -1.0512 -2.5859
    7SAPS  C316  922   2.615   2.476   8.360  0.1929  0.0423 -0.0978
    7SAPS  H16X  923   2.584   2.582   8.351  0.4992  0.2222  0.8734
    7SAPS  H16Y  924   2.534   2.408   8.392 -0.5008  0.4016 -1.0483
    7SAPS  C317  925   2.660   2.437   8.210  0.4515  0.8821  0.1908
    7SAPS  H17X  926   2.735   2.513   8.180  0.5401  1.1816  1.1685
    7SAPS  H17Y  927   2.572   2.438   8.142 -0.5322 -2.5353  1.3197
    7SAPS  C318  928   2.741   2.313   8.201  0.2837  0.0674  0.0017
    7SAPS  H18X  929   2.846   2.329   8.235  0.5996  1.4713 -1.5646
    7SAPS  H18Y  930   2.756   2.296   8.092  1.2314 -1.2738  0.3362
    7SAPS  H18Z  931   2.704   2.216   8.239  0.7673 -1.7097 -3.8079
    8SAPS     N  932   0.029   3.496  11.332 -0.3729  0.6474 -0.3543
    8SAPS   HN1  933  -0.008   3.485  11.428 -1.0026  1.5591 -0.4814
    8SAPS   HN2  934  -0.037   3.553  11.275 -1.5893 -1.0664 -0.6810
    8SAPS   HN3  935   0.040   3.399  11.297 -1.0621  1.2206 -2.2198
    8SAPS   C12  936   0.157   3.567  11.347 -0.0472 -0.5123  0.0284
    8SAPS  H12A  937   0.149   3.648  11.418 -1.4538 -0.7722  0.1780
    8SAPS   C13  938   0.263   3.483  11.419  0.0393 -0.2158  0.2420
    8SAPS  O13A  939   0.243   3.359  11.430  0.5603  0.4994  0.0971
    8SAPS  O13B  940   0.381   3.526  11.436 -0.0408 -0.2662 -0.7281
    8SAPS   C11  941   0.204   3.602  11.199 -0.1592 -0.0418  0.1876
    8SAPS  H11A  942   0.259   3.524  11.142  0.1852  0.9087 -0.7922
    8SAPS  H11B  943   0.281   3.681  11.210  0.2269 -0.2741 -0.7927
    8SAPS     P  944   0.133   3.703  10.963 -0.1816  0.1196 -0.0897
    8SAPS   O13  945   0.141   3.579  10.886 -0.3081  0.3546 -0.4413
    8SAPS   O14  946   0.025   3.798  10.931  0.2470 -0.2142  0.5639
    8SAPS   O12  947   0.111   3.675  11.119 -0.0545  0.2878  0.0175
    8SAPS   O11  948   0.270   3.777  10.955 -0.5094 -0.5959  0.0837
    8SAPS    C1  949   0.261   3.913  10.897 -0.2019 -0.0873  0.6504
    8SAPS    HA  950   0.187   3.973  10.954  0.9061  0.8684  1.0958
    8SAPS    HB  951   0.356   3.963  10.925 -0.6372  1.0110  0.1765
    8SAPS    C2  952   0.241   3.913  10.740 -0.4794 -0.6222 -0.3670
    8SAPS    HS  953   0.131   3.904  10.731 -0.7709  2.4283 -0.3795
    8SAPS   O21  954   0.309   3.798  10.689 -0.0962 -0.4813 -0.2087
    8SAPS   C21  955   0.250   3.734  10.590 -0.1790  0.3321 -0.1701
    8SAPS   O22  956   0.138   3.756  10.544 -0.3643 -0.3272  0.1995
    8SAPS   C22  957   0.350   3.624  10.533  0.1509  0.1252  0.0597
    8SAPS   H2R  958   0.381   3.659  10.432 -2.0791 -0.8359 -0.9858
    8SAPS   H2S  959   0.445   3.628  10.592 -0.1846  0.6651  0.5758
    8SAPS    C3  960   0.289   4.041  10.661 -0.5401  0.5986 -0.7563
    8SAPS    HX  961   0.399   4.042  10.650 -0.8154  0.6988 -4.1245
    8SAPS    HY  962   0.256   4.132  10.716  0.7269  0.5304  0.1453
    8SAPS   O31  963   0.240   4.037  10.526  0.1191 -0.0712 -0.6267
    8SAPS   C31  964   0.112   4.073  10.516  0.5365  0.1439  0.2338
    8SAPS   O32  965   0.055   4.134  10.602  0.3660 -0.0971  0.1253
    8SAPS   C32  966   0.062   4.041  10.373 -0.1438  0.5667 -0.9348
    8SAPS   H2X  967   0.051   3.931  10.372  3.2466  0.1501  0.2476
    8SAPS   H2Y  968   0.142   4.073  10.302 -0.0846  1.0480 -0.6583
    8SAPS   C23  969   0.299   3.483  10.537 -0.5798  0.0492 -0.3075
    8SAPS   H3R  970   0.216   3.478  10.463  0.0806  2.5567 -1.2422
    8SAPS   H3S  971   0.252   3.459  10.635  0.7083 -2.4201 -0.2589
    8SAPS   C24  972   0.408   3.380  10.505 -0.3862  0.4221  0.2149
    8SAPS   H4R  973   0.498   3.389  10.570 -1.4819  0.6958  1.7331
    8SAPS   H4S  974   0.446   3.387  10.401 -0.2332 -0.8493  0.1693
    8SAPS   C25  975   0.363   3.234  10.517  0.0937  0.3969 -0.2047
    8SAPS   H5R  976   0.335   3.202  10.618 -1.3427  0.2934 -0.6305
    8SAPS   C26  977   0.341   3.151  10.418  0.3223 -0.1360 -0.2855
    8SAPS   H6R  978   0.311   3.048  10.444 -0.4343 -0.2356 -1.5067
    8SAPS   C27  979   0.357   3.166  10.272 -0.7933 -0.0896  1.3806
    8SAPS   H7R  980   0.309   3.259  10.235 -0.8961 -0.2740  1.0523
    8SAPS   H7S  981   0.305   3.087  10.213 -0.5591  1.9550 -1.6477
    8SAPS   C28  982   0.501   3.162  10.227 -0.2308 -0.5732  0.2918
    8SAPS   H8R  983   0.574   3.125  10.300  1.1854 -1.1842 -1.3993
    8SAPS   C29  984   0.547   3.203  10.110  0.5573 -0.2222 -0.0252
    8SAPS   H9R  985   0.654   3.185  10.087  1.2473  0.3229  2.5934
    8SAPS  C210  986   0.479   3.249   9.982 -0.1017  1.1393 -0.1597
    8SAPS  H10R  987   0.373   3.269  10.007  0.6532  2.8438  1.8273
    8SAPS  H10S  988   0.462   3.167   9.910  2.5480 -0.6755  1.1753
    8SAPS  C211  989   0.559   3.371   9.939 -0.2314 -0.3126  0.0856
    8SAPS  H11R  990   0.592   3.434  10.022 -0.1531  1.4381 -1.2392
    8SAPS  C212  991   0.566   3.426   9.818 -0.0157 -0.1045 -0.8324
    8SAPS  H12R  992   0.613   3.523   9.798 -0.1335 -0.3369 -2.2894
    8SAPS  C213  993   0.519   3.376   9.685  0.1683 -0.1022 -0.1862
    8SAPS  H13R  994   0.426   3.435   9.663  0.5790  0.0098 -1.7100
    8SAPS  H13S  995   0.477   3.273   9.687 -0.2070 -0.0273 -2.4173
    8SAPS  C214  996   0.619   3.390   9.573 -0.1511  0.1324  0.9205
    8SAPS  H14R  997   0.723   3.420   9.594 -0.2504  1.3370 -0.2408
    8SAPS  C215  998   0.595   3.344   9.448 -0.2498 -0.0044  0.0917
    8SAPS  H15R  999   0.679   3.340   9.376 -0.3019 -1.4697  0.1043
    8SAPS  C216 1000   0.469   3.280   9.390 -0.1823  0.3608  0.0308
    8SAPS  H16R 1001   0.378   3.295   9.451 -0.2931 -1.7100  0.4131
    8SAPS  H16S 1002   0.479   3.169   9.389  2.2447  0.5244  1.3582
    8SAPS  C217 1003   0.434   3.346   9.256  0.1624 -0.1169  0.0171
    8SAPS  H17R 1004   0.503   3.428   9.225  0.0937  0.2680  0.8709
    8SAPS  H17S 1005   0.327   3.376   9.261 -0.1838 -1.4488  0.7956
    8SAPS  C218 1006   0.452   3.252   9.136 -0.1748  0.3918  0.5633
    8SAPS  H18R 1007   0.396   3.157   9.148 -1.3490  0.8139 -1.4140
    8SAPS  H18S 1008   0.560   3.227   9.142  0.0696  1.2736 -0.1055
    8SAPS  C219 1009   0.402   3.315   9.009 -0.1320 -0.2828  0.4354
    8SAPS  H19R 1010   0.453   3.413   9.016  0.9436 -0.7605 -0.4837
    8SAPS  H19S 1011   0.291   3.321   9.006 -0.1979 -0.4750  2.0584
    8SAPS  C220 1012   0.443   3.241   8.882 -0.3728  0.7997 -0.3192
    8SAPS  H20R 1013   0.376   3.157   8.855  0.8228  0.0854 -1.1177
    8SAPS  H20S 1014   0.549   3.207   8.884 -0.5592  0.2025 -0.4897
    8SAPS  H20T 1015   0.440   3.315   8.799 -0.0996 -1.5823 -2.5358
    8SAPS   C33 1016  -0.063   4.114  10.326 -0.3650 -0.1568  0.4177
    8SAPS   H3X 1017  -0.058   4.221  10.355  0.2210 -0.0840  0.0603
    8SAPS   H3Y 1018  -0.159   4.074  10.364 -0.2283  0.0902  1.0211
    8SAPS   C34 1019  -0.078   4.115  10.174  0.6462  0.5231 -0.0344
    8SAPS   H4X 1020   0.014   4.151  10.122  1.2517  0.8046  1.1980
    8SAPS   H4Y 1021  -0.159   4.186  10.149  1.0583  0.9788 -0.0859
    8SAPS   C35 1022  -0.115   3.975  10.113 -0.1935 -0.6234 -0.4995
    8SAPS   H5X 1023  -0.214   3.944  10.152  0.6047 -2.5575  0.0595
    8SAPS   H5Y 1024  -0.027   3.907  10.126 -0.5850 -0.9007  0.7677
    8SAPS   C36 1025  -0.136   3.988   9.960  0.1969 -0.6526 -0.0677
    8SAPS   H6X 1026  -0.043   4.030   9.915  0.9524 -1.0008  1.1315
    8SAPS   H6Y 1027  -0.222   4.055   9.939 -0.0917 -0.3767  1.8787
    8SAPS   C37 1028  -0.173   3.849   9.900 -0.0974 -0.1460 -0.3665
    8SAPS   H7X 1029  -0.269   3.804   9.933  0.4798 -2.1674 -1.3620
    8SAPS   H7Y 1030  -0.096   3.772   9.922  0.1443  0.2698  0.2621
    8SAPS   C38 1031  -0.190   3.858   9.745 -0.1132 -0.2534 -0.3389
    8SAPS   H8X 1032  -0.092   3.886   9.702  0.4151 -1.6108 -0.0351
    8SAPS   H8Y 1033  -0.269   3.935   9.728  1.9695  1.7346 -1.2679
    8SAPS   C39 1034  -0.252   3.732   9.692  0.5481 -0.0629  1.0542
    8SAPS   H9X 1035  -0.356   3.728   9.733 -0.1637  0.9013 -0.5943
    8SAPS   H9Y 1036  -0.189   3.642   9.702 -0.2035 -0.4602  2.2872
    8SAPS  C310 1037  -0.278   3.747   9.536  0.4552 -0.1166  0.8080
    8SAPS  H10X 1038  -0.183   3.713   9.489  0.1104  0.4891 -0.3573
    8SAPS  H10Y 1039  -0.310   3.852   9.517 -0.8036 -0.4721  0.9738
    8SAPS  C311 1040  -0.398   3.665   9.490  0.3325  0.3353  0.2026
    8SAPS  H11X 1041  -0.485   3.691   9.554 -0.1677  2.0740 -1.1710
    8SAPS  H11Y 1042  -0.371   3.557   9.494 -0.5279  0.1621  1.6884
    8SAPS  C312 1043  -0.438   3.695   9.344 -0.4331 -0.0411 -0.3852
    8SAPS  H12X 1044  -0.464   3.802   9.337 -1.4974 -0.1422  1.6498
    8SAPS  H12Y 1045  -0.531   3.639   9.321 -1.1507  0.6201  0.8618
    8SAPS  C313 1046  -0.326   3.652   9.246 -0.1941 -0.3802 -0.0851
    8SAPS  H13X 1047  -0.310   3.543   9.257  0.2713 -0.2134  0.9011
    8SAPS  H13Y 1048  -0.231   3.701   9.276 -0.3184  1.5512 -2.6785
    8SAPS  C314 1049  -0.372   3.701   9.107  0.1818  0.3187  0.3714
    8SAPS  H14X 1050  -0.367   3.812   9.099 -1.0625  0.3780  0.2913
    8SAPS  H14Y 1051  -0.470   3.656   9.081  2.2099 -3.4222 -1.1557
    8SAPS  C315 1052  -0.296   3.641   8.987 -0.1824  0.1352 -0.5019
    8SAPS  H15X 1053  -0.343   3.688   8.898  0.4378  0.8986 -0.4326
    8SAPS  H15Y 1054  -0.316   3.532   8.976  0.2825 -0.0985  0.8656
    8SAPS  C316 1055  -0.141   3.666   8.963 -0.2140  0.5031 -0.5057
    8SAPS  H16X 1056  -0.094   3.616   9.050  0.7908  2.5248  0.1610
    8SAPS  H16Y 1057  -0.129   3.774   8.987  0.0206  0.5028 -0.6218
    8SAPS  C317 1058  -0.095   3.624   8.823 -0.0219  0.2521 -0.0659
    8SAPS  H17X 1059   0.011   3.655   8.817  0.5891 -1.7602  0.2919
    8SAPS  H17Y 1060  -0.159   3.679   8.750 -1.0633  1.3796  1.6456
    8SAPS  C318 1061  -0.083   3.475   8.803 -0.1541  0.3406  0.2010
    8SAPS  H18X 1062  -0.007   3.422   8.866 -2.7278 -1.5521  1.8100
    8SAPS  H18Y 1063  -0.056   3.462   8.696  0.2837  1.8567  0.1183
    8SAPS  H18Z 1064  -0.178   3.417   8.805  1.9044 -3.2834 -1.1486
    9SAPS     N 1065   3.118   6.060   6.288  1.0296 -0.3282 -0.1603
    9SAPS   HN1 1066   3.055   5.983   6.256  0.8035  0.1851 -0.9617
    9SAPS   HN2 1067   3.101   6.158   6.261 -0.9154 -0.8645 -0.9716
    9SAPS   HN3 1068   3.217   6.036   6.269  1.5794  0.7759  1.2352
    9SAPS   C12 1069   3.124   6.052   6.440 -0.4480 -0.7680  0.0379
    9SAPS  H12A 1070   3.031   6.089   6.482 -0.0007  0.7339 -0.2789
    9SAPS   C13 1071   3.139   5.906   6.477 -0.9496  0.0869  0.3100
    9SAPS  O13A 1072   3.162   5.817   6.390  0.8848 -0.3085 -0.6559
    9SAPS  O13B 1073   3.152   5.877   6.598 -0.0070 -0.2246  0.4669
    9SAPS   C11 1074   3.248   6.128   6.491 -0.3497  0.0696  0.4463
    9SAPS  H11A 1075   3.344   6.075   6.479 -0.6687 -0.3521 -0.2680
    9SAPS  H11B 1076   3.238   6.139   6.601  0.1408 -2.2205  0.7380
    9SAPS     P 1077   3.192   6.385   6.464  0.1441 -0.4558  0.2872
    9SAPS   O13 1078   3.287   6.493   6.412  0.0914 -0.0435  0.7647
    9SAPS   O14 1079   3.050   6.384   6.418  0.0374 -0.0901 -0.2430
    9SAPS   O12 1080   3.269   6.252   6.425  0.5599 -0.4793  0.1678
    9SAPS   O11 1081   3.196   6.380   6.621 -0.8739 -0.3752  0.0291
    9SAPS    C1 1082   3.261   6.471   6.706 -0.0175 -0.1711  0.2708
    9SAPS    HA 1083   3.267   6.568   6.651 -1.1188 -1.6437 -2.5264
    9SAPS    HB 1084   3.204   6.484   6.800 -0.5700 -0.4734 -0.0250
    9SAPS    C2 1085   3.411   6.441   6.740 -0.0411  0.1727  0.2962
    9SAPS    HS 1086   3.457   6.462   6.642 -1.8466  4.9231  0.3547
    9SAPS   O21 1087   3.408   6.301   6.781  0.1965  0.1817  0.4635
    9SAPS   C21 1088   3.522   6.232   6.763 -0.4423  0.3658 -0.0034
    9SAPS   O22 1089   3.630   6.283   6.738  0.1616 -0.1599  0.0563
    9SAPS   C22 1090   3.490   6.084   6.781  0.1679  0.1405 -0.0375
    9SAPS   H2R 1091   3.382   6.070   6.806 -0.0921  1.3837 -0.4104
    9SAPS   H2S 1092   3.499   6.030   6.685 -1.7074 -1.7338  0.7857
    9SAPS    C3 1093   3.485   6.525   6.852 -0.4544 -0.4335  0.1284
    9SAPS    HX 1094   3.453   6.630   6.836  0.0352 -0.2788  0.1409
    9SAPS    HY 1095   3.595   6.519   6.834  0.0763 -2.8773  3.7829
    9SAPS   O31 1096   3.463   6.488   6.987  0.1652  0.4044 -0.1934
    9SAPS   C31 1097   3.374   6.557   7.058  0.4236 -0.3101  0.1840
    9SAPS   O32 1098   3.293   6.633   7.009  0.1234  0.3890  0.0532
    9SAPS   C32 1099   3.376   6.524   7.205  0.2066  0.3138  0.6626
    9SAPS   H2X 1100   3.463   6.457   7.223 -0.2610  0.3394  3.2537
    9SAPS   H2Y 1101   3.287   6.467   7.242 -0.3393  0.5220 -0.3202
    9SAPS   C23 1102   3.593   6.043   6.893 -0.3570 -0.2710 -0.1499
    9SAPS   H3R 1103   3.697   6.059   6.858 -0.9414  0.6877 -1.4871
    9SAPS   H3S 1104   3.589   5.932   6.900 -2.1249 -0.2002  0.4403
    9SAPS   C24 1105   3.583   6.113   7.028 -0.0713  0.8144  0.0385
    9SAPS   H4R 1106   3.588   6.221   7.000 -1.0047  0.6938 -0.6519
    9SAPS   H4S 1107   3.668   6.096   7.097 -1.0833  0.8399  1.3152
    9SAPS   C25 1108   3.449   6.093   7.100 -0.2374  0.1425 -0.2167
    9SAPS   H5R 1109   3.356   6.112   7.045 -1.0755 -3.1119 -0.0268
    9SAPS   C26 1110   3.444   6.063   7.233 -0.3624  0.2001  0.5682
    9SAPS   H6R 1111   3.346   6.051   7.282 -0.3176 -1.2007  0.3134
    9SAPS   C27 1112   3.563   6.037   7.324 -0.7555 -0.3612 -0.2692
    9SAPS   H7R 1113   3.657   6.017   7.268 -0.1712  1.5451 -0.0231
    9SAPS   H7S 1114   3.546   5.945   7.384 -1.6639 -0.7841 -1.1526
    9SAPS   C28 1115   3.598   6.150   7.415  0.0918 -0.0633  0.8040
    9SAPS   H8R 1116   3.675   6.224   7.388 -1.0849  1.4009  1.4023
    9SAPS   C29 1117   3.550   6.160   7.538  0.7270  0.4012 -0.6730
    9SAPS   H9R 1118   3.568   6.247   7.604 -0.0819  0.3758 -0.4193
    9SAPS  C210 1119   3.451   6.070   7.605  1.2364 -0.4260 -0.2530
    9SAPS  H10R 1120   3.397   6.023   7.520 -0.7167  0.1188  0.6785
    9SAPS  H10S 1121   3.391   6.129   7.677  1.2170 -1.7218  0.8150
    9SAPS  C211 1122   3.523   5.966   7.689 -0.3760  0.7272  0.1958
    9SAPS  H11R 1123   3.604   5.920   7.631  0.4330 -1.2052  2.7843
    9SAPS  C212 1124   3.503   5.932   7.817  0.2692 -0.0000  0.5798
    9SAPS  H12R 1125   3.561   5.845   7.851  2.0153  0.3565 -1.4063
    9SAPS  C213 1126   3.388   5.979   7.905 -0.6068 -0.4008 -0.2114
    9SAPS  H13R 1127   3.304   5.908   7.890 -0.5630 -0.3815 -0.5549
    9SAPS  H13S 1128   3.347   6.078   7.873  1.8671  1.0341  0.9475
    9SAPS  C214 1129   3.425   5.975   8.048  0.3891  0.1854  0.0905
    9SAPS  H14R 1130   3.459   5.876   8.080 -0.4362 -0.1927 -0.1870
    9SAPS  C215 1131   3.436   6.077   8.134 -0.2462 -0.7071 -0.8226
    9SAPS  H15R 1132   3.464   6.060   8.239 -4.5737 -0.2153  0.4994
    9SAPS  C216 1133   3.404   6.222   8.108  0.3405 -0.1440 -0.2127
    9SAPS  H16R 1134   3.358   6.272   8.196 -1.2720 -1.3469 -0.3621
    9SAPS  H16S 1135   3.341   6.247   8.020  1.1009 -2.3123 -1.3956
    9SAPS  C217 1136   3.536   6.303   8.086  0.2989 -0.1790 -0.4591
    9SAPS  H17R 1137   3.612   6.250   8.147 -1.2011 -1.3612  0.4162
    9SAPS  H17S 1138   3.513   6.407   8.116  0.8056 -0.8090  2.2012
    9SAPS  C218 1139   3.583   6.324   7.942 -0.1610 -0.3294 -0.0515
    9SAPS  H18R 1140   3.487   6.328   7.886  0.2096  0.5831 -0.6215
    9SAPS  H18S 1141   3.643   6.238   7.904 -0.6942 -1.0974  0.8153
    9SAPS  C219 1142   3.667   6.450   7.909  1.2481  0.2056 -0.3891
    9SAPS  H19R 1143   3.753   6.436   7.978  1.5592 -0.2028 -0.8578
    9SAPS  H19S 1144   3.625   6.551   7.932 -1.6375 -0.8243 -1.0009
    9SAPS  C220 1145   3.709   6.451   7.763  0.3482  0.1497  0.3005
    9SAPS  H20R 1146   3.764   6.539   7.723 -0.0468 -0.5492 -1.8327
    9SAPS  H20S 1147   3.625   6.422   7.697  1.3684 -1.4739 -0.3121
    9SAPS  H20T 1148   3.790   6.378   7.748  0.4518  0.3356 -0.0386
    9SAPS   C33 1149   3.403   6.644   7.302  0.2495 -0.2720 -0.3349
    9SAPS   H3X 1150   3.308   6.696   7.326 -0.3378 -1.7888  0.7148
    9SAPS   H3Y 1151   3.477   6.717   7.264  0.4715 -0.7374 -0.8040
    9SAPS   C34 1152   3.465   6.583   7.429  0.5286 -0.1515  0.3002
    9SAPS   H4X 1153   3.565   6.555   7.390 -1.6563 -2.6370 -3.8483
    9SAPS   H4Y 1154   3.414   6.491   7.464 -2.4649  0.1249 -3.0978
    9SAPS   C35 1155   3.475   6.684   7.541  0.1104  0.3099 -0.1552
    9SAPS   H5X 1156   3.513   6.779   7.499  0.2669  1.1626  1.8532
    9SAPS   H5Y 1157   3.543   6.637   7.615 -1.0944 -1.3571 -0.0820
    9SAPS   C36 1158   3.335   6.716   7.592 -0.5113 -0.2196  0.5273
    9SAPS   H6X 1159   3.268   6.627   7.596 -1.1807  0.3457  2.4328
    9SAPS   H6Y 1160   3.281   6.773   7.514 -0.2049 -1.5768 -0.7127
    9SAPS   C37 1161   3.334   6.789   7.726 -0.8486  0.3859  0.0029
    9SAPS   H7X 1162   3.230   6.821   7.746 -1.2303  0.1123 -1.5115
    9SAPS   H7Y 1163   3.400   6.878   7.725  0.2357 -0.4011 -1.1392
    9SAPS   C38 1164   3.384   6.700   7.843  0.3452  0.4237  0.2594
    9SAPS   H8X 1165   3.495   6.696   7.843  0.3849  0.4373 -2.4725
    9SAPS   H8Y 1166   3.343   6.597   7.840 -0.1825  0.5829  1.6974
    9SAPS   C39 1167   3.337   6.754   7.979  0.4058 -0.5383  0.9983
    9SAPS   H9X 1168   3.226   6.750   7.985  0.3429  1.2253  1.3660
    9SAPS   H9Y 1169   3.361   6.862   7.980 -0.9394 -0.2239  0.6479
    9SAPS  C310 1170   3.397   6.682   8.101  0.0229  0.1097 -0.5873
    9SAPS  H10X 1171   3.502   6.706   8.128  0.0077 -1.3512  0.7791
    9SAPS  H10Y 1172   3.380   6.575   8.077  0.7577 -0.2440  0.4646
    9SAPS  C311 1173   3.317   6.709   8.230  0.0597 -0.0517 -0.7119
    9SAPS  H11X 1174   3.207   6.701   8.217 -0.1887  2.8130 -0.7076
    9SAPS  H11Y 1175   3.342   6.812   8.263 -2.5167  0.0014  1.1827
    9SAPS  C312 1176   3.372   6.621   8.342  0.3792  0.8088 -0.7358
    9SAPS  H12X 1177   3.478   6.589   8.347  0.5479  1.3010 -1.1895
    9SAPS  H12Y 1178   3.312   6.527   8.343 -0.1368  1.1274  0.7123
    9SAPS  C313 1179   3.352   6.676   8.489  0.0310  0.1707  0.0798
    9SAPS  H13X 1180   3.425   6.760   8.497 -0.2051  0.3118  0.8049
    9SAPS  H13Y 1181   3.382   6.601   8.566  0.8544  1.2357  0.8319
    9SAPS  C314 1182   3.211   6.732   8.518  1.1540  0.6244  0.2446
    9SAPS  H14X 1183   3.144   6.644   8.521  1.7158  0.2314  1.6230
    9SAPS  H14Y 1184   3.177   6.796   8.434 -0.2516  0.0118  0.3465
    9SAPS  C315 1185   3.196   6.824   8.632 -0.3752 -0.4725  0.0439
    9SAPS  H15X 1186   3.247   6.922   8.622  0.3673 -0.6037  2.4025
    9SAPS  H15Y 1187   3.247   6.773   8.717 -0.7332 -1.9631 -0.6076
    9SAPS  C316 1188   3.046   6.873   8.667  0.1045  0.2776 -0.0635
    9SAPS  H16X 1189   3.041   6.908   8.773  2.0704 -2.5785  1.0425
    9SAPS  H16Y 1190   2.979   6.785   8.658 -0.8200  0.7905  1.6925
    9SAPS  C317 1191   2.990   6.984   8.575 -0.9005 -0.2817 -0.7125
    9SAPS  H17X 1192   3.001   6.951   8.469 -0.0777 -1.6868 -0.2035
    9SAPS  H17Y 1193   3.062   7.068   8.584 -0.5625 -0.3752 -2.3582
    9SAPS  C318 1194   2.846   7.009   8.607 -0.3569 -0.2991 -0.5398
    9SAPS  H18X 1195   2.778   6.931   8.565 -1.7313  0.0046  1.0535
    9SAPS  H18Y 1196   2.806   7.091   8.544  1.2014 -0.5431 -1.8670
    9SAPS  H18Z 1197   2.819   7.019   8.715  0.5807 -0.0112 -0.3244
   10SAPS     N 1198   3.185   5.628   6.210  0.1126  0.2238  0.3436
   10SAPS   HN1 1199   3.191   5.667   6.113  1.1915 -1.3066 -0.2175
   10SAPS   HN2 1200   3.192   5.709   6.275  0.8102 -1.2910  2.1894
   10SAPS   HN3 1201   3.263   5.561   6.227 -1.4459 -1.9519 -0.9149
   10SAPS   C12 1202   3.059   5.555   6.245  0.7729 -0.7617  0.2900
   10SAPS  H12A 1203   3.036   5.601   6.340 -0.8728  0.0177 -0.4713
   10SAPS   C13 1204   2.931   5.567   6.151 -0.9414 -1.1328  0.2982
   10SAPS  O13A 1205   2.932   5.636   6.048  0.1986 -0.1529 -0.2944
   10SAPS  O13B 1206   2.824   5.503   6.177  0.0137 -0.6273  0.5496
   10SAPS   C11 1207   3.087   5.400   6.262  0.2209 -0.0745  0.3413
   10SAPS  H11A 1208   3.088   5.356   6.160  1.1397  0.6434  0.0312
   10SAPS  H11B 1209   3.000   5.354   6.314  1.3124 -1.7012  0.7797
   10SAPS     P 1210   3.198   5.336   6.486  0.0094 -0.2189  0.3200
   10SAPS   O13 1211   3.078   5.397   6.542  0.1577  0.4959  0.6859
   10SAPS   O14 1212   3.221   5.194   6.508  0.2344  0.3208  0.6812
   10SAPS   O12 1213   3.205   5.379   6.334  0.5681  0.2515 -0.1257
   10SAPS   O11 1214   3.320   5.418   6.534 -0.2159  0.9931  0.0834
   10SAPS    C1 1215   3.405   5.396   6.658  0.3396  0.0859 -0.4790
   10SAPS    HA 1216   3.427   5.290   6.682 -3.5402 -1.1292 -1.8327
   10SAPS    HB 1217   3.500   5.450   6.636  1.0288 -1.2570 -0.8386
   10SAPS    C2 1218   3.356   5.452   6.788 -0.0527 -0.5569 -0.5522
   10SAPS    HS 1219   3.421   5.424   6.874 -1.1017  1.2392  0.8686
   10SAPS   O21 1220   3.226   5.395   6.825 -0.4551 -0.7866 -0.1517
   10SAPS   C21 1221   3.210   5.267   6.858  0.6493  0.9546  0.2946
   10SAPS   O22 1222   3.296   5.185   6.852 -0.1302  0.6045  0.7500
   10SAPS   C22 1223   3.077   5.247   6.932  0.2012  0.2542 -0.1146
   10SAPS   H2R 1224   3.073   5.316   7.019 -1.4637 -1.6988  1.4197
   10SAPS   H2S 1225   2.990   5.269   6.866  0.2044 -0.5192 -0.3866
   10SAPS    C3 1226   3.349   5.609   6.798  0.6927  0.0130 -0.1401
   10SAPS    HX 1227   3.272   5.644   6.727 -0.6088 -2.0884  0.1736
   10SAPS    HY 1228   3.446   5.657   6.773  0.7716 -0.3225 -0.4727
   10SAPS   O31 1229   3.310   5.641   6.930 -0.0775 -0.1345 -0.2378
   10SAPS   C31 1230   3.179   5.652   6.972 -0.5705  0.4410 -1.2476
   10SAPS   O32 1231   3.087   5.634   6.902 -0.4027 -0.5197 -0.3156
   10SAPS   C32 1232   3.184   5.686   7.114  0.2743 -0.3599 -0.2223
   10SAPS   H2X 1233   3.087   5.729   7.148  1.1109  1.7687 -0.4430
   10SAPS   H2Y 1234   3.264   5.759   7.137  0.1112 -0.0480 -0.6463
   10SAPS   C23 1235   3.063   5.109   7.000 -0.0174 -0.2410  0.0606
   10SAPS   H3R 1236   3.077   5.025   6.929 -1.0183 -1.2322  0.9992
   10SAPS   H3S 1237   2.957   5.094   7.031 -0.0809 -2.3604 -1.0707
   10SAPS   C24 1238   3.159   5.097   7.117 -0.0870  0.7851 -0.0765
   10SAPS   H4R 1239   3.168   5.189   7.177  0.5845  0.4359  0.3684
   10SAPS   H4S 1240   3.261   5.069   7.085 -0.0806  0.8523 -0.1115
   10SAPS   C25 1241   3.111   4.983   7.196 -0.3695 -0.2845 -0.3852
   10SAPS   H5R 1242   3.096   4.891   7.137 -1.9011  0.9479 -1.9877
   10SAPS   C26 1243   3.076   4.981   7.324  0.4888 -0.0080  0.6254
   10SAPS   H6R 1244   3.025   4.891   7.361  0.9131 -0.4815  0.0625
   10SAPS   C27 1245   3.082   5.090   7.426 -0.7454  0.3115 -0.2716
   10SAPS   H7R 1246   3.030   5.181   7.390 -0.5211 -0.4754 -2.6248
   10SAPS   H7S 1247   3.186   5.126   7.437 -0.6165 -0.0596 -0.2824
   10SAPS   C28 1248   3.017   5.062   7.560  0.0547 -0.3683  0.0149
   10SAPS   H8R 1249   2.923   5.108   7.593 -1.5424 -1.1173 -3.3380
   10SAPS   C29 1250   3.084   4.998   7.659  0.2948  0.1361 -0.3111
   10SAPS   H9R 1251   3.028   4.965   7.747  0.8079 -0.3637 -0.1654
   10SAPS  C210 1252   3.223   4.934   7.653 -0.5217  0.1188  0.0900
   10SAPS  H10R 1253   3.269   4.937   7.552  1.0867  1.1815  0.8353
   10SAPS  H10S 1254   3.203   4.828   7.679  0.2153 -0.3909 -1.3737
   10SAPS  C211 1255   3.335   4.983   7.749 -0.7703  0.1288  0.8152
   10SAPS  H11R 1256   3.423   5.013   7.691  0.2433 -1.7920  1.3299
   10SAPS  C212 1257   3.325   5.008   7.880 -0.3452 -0.6113  0.4952
   10SAPS  H12R 1258   3.416   5.036   7.933  0.8362  1.0476 -2.2699
   10SAPS  C213 1259   3.209   4.992   7.973  0.4753 -0.0601 -0.1469
   10SAPS  H13R 1260   3.217   4.903   8.039  0.8937 -0.7694 -1.1395
   10SAPS  H13S 1261   3.114   4.974   7.920 -1.6369  2.1702  2.7066
   10SAPS  C214 1262   3.181   5.112   8.059 -0.9294 -0.3267 -0.1569
   10SAPS  H14R 1263   3.084   5.163   8.049 -1.3294 -1.2374 -1.0527
   10SAPS  C215 1264   3.254   5.151   8.164  0.5098  0.0693  0.2241
   10SAPS  H15R 1265   3.220   5.229   8.234  0.7778  1.0759 -0.7462
   10SAPS  C216 1266   3.386   5.088   8.216  0.1557  0.5954 -0.3296
   10SAPS  H16R 1267   3.468   5.161   8.231  1.3712 -1.2809  2.6679
   10SAPS  H16S 1268   3.416   5.014   8.139  1.8773  1.2034 -0.2724
   10SAPS  C217 1269   3.369   5.016   8.353  0.2063  0.1148  0.4768
   10SAPS  H17R 1270   3.345   5.087   8.435  1.9885 -0.1891  1.2723
   10SAPS  H17S 1271   3.464   4.974   8.392  1.5772  2.9218  0.3278
   10SAPS  C218 1272   3.252   4.912   8.360  0.1822  0.0463  0.0899
   10SAPS  H18R 1273   3.267   4.843   8.274  1.9855  1.5027 -0.8065
   10SAPS  H18S 1274   3.158   4.961   8.327  1.1307  1.0125 -1.2227
   10SAPS  C219 1275   3.242   4.844   8.501 -0.0761  0.8990  0.9280
   10SAPS  H19R 1276   3.288   4.910   8.577  1.4084  1.2388 -0.2360
   10SAPS  H19S 1277   3.300   4.749   8.506 -1.7049 -0.0752  1.9777
   10SAPS  C220 1278   3.093   4.816   8.537  0.0034 -0.8482 -0.4203
   10SAPS  H20R 1279   3.051   4.734   8.476  1.3272 -3.5735  2.2473
   10SAPS  H20S 1280   3.023   4.902   8.546  1.6749  0.6861 -1.6861
   10SAPS  H20T 1281   3.090   4.778   8.641 -1.3928  0.2575 -0.0453
   10SAPS   C33 1282   3.199   5.558   7.209  0.5659 -0.8868  0.9518
   10SAPS   H3X 1283   3.238   5.465   7.163  1.1541 -0.0385 -0.2853
   10SAPS   H3Y 1284   3.091   5.539   7.228  0.3585  0.8331  1.5949
   10SAPS   C34 1285   3.261   5.604   7.340  0.2160 -1.1345  0.7280
   10SAPS   H4X 1286   3.209   5.696   7.372  1.3228  0.2639 -1.3594
   10SAPS   H4Y 1287   3.369   5.620   7.316 -0.4109  0.5303 -1.1248
   10SAPS   C35 1288   3.258   5.499   7.448 -0.2629 -0.0033  0.1530
   10SAPS   H5X 1289   3.299   5.405   7.405  1.3812  1.0197 -0.5847
   10SAPS   H5Y 1290   3.150   5.488   7.469 -0.1203  1.2711  1.6910
   10SAPS   C36 1291   3.342   5.543   7.565  0.2122  0.7700 -0.9137
   10SAPS   H6X 1292   3.300   5.643   7.592 -1.4934 -0.6468  1.9924
   10SAPS   H6Y 1293   3.448   5.562   7.539  1.0987  1.2583  2.6817
   10SAPS   C37 1294   3.344   5.446   7.690 -0.5005 -0.2110 -0.5147
   10SAPS   H7X 1295   3.420   5.365   7.680 -0.6998 -1.0898  3.9589
   10SAPS   H7Y 1296   3.249   5.390   7.704 -1.8306  2.0503 -0.2545
   10SAPS   C38 1297   3.398   5.525   7.823 -0.4783  0.0436  0.3940
   10SAPS   H8X 1298   3.341   5.621   7.828 -0.6895  0.0186 -1.4291
   10SAPS   H8Y 1299   3.504   5.542   7.795 -0.4442  0.7673  0.9417
   10SAPS   C39 1300   3.375   5.464   7.961  0.1142 -0.1548  0.3461
   10SAPS   H9X 1301   3.425   5.367   7.981 -0.3423 -0.4314  0.1604
   10SAPS   H9Y 1302   3.265   5.450   7.971  0.2596  0.3892  2.9563
   10SAPS  C310 1303   3.422   5.564   8.075  0.1496 -0.7551 -0.2582
   10SAPS  H10X 1304   3.383   5.664   8.046  1.4366 -0.1900 -0.0510
   10SAPS  H10Y 1305   3.531   5.554   8.060  0.2589 -1.4278  0.9249
   10SAPS  C311 1306   3.385   5.518   8.209 -0.7027 -0.0418  0.2166
   10SAPS  H11X 1307   3.422   5.413   8.216 -0.6248 -0.0651 -0.5507
   10SAPS  H11Y 1308   3.276   5.503   8.228 -0.5894  0.6837  1.5179
   10SAPS  C312 1309   3.445   5.598   8.329 -0.3392 -0.0846 -0.3694
   10SAPS  H12X 1310   3.552   5.611   8.304 -0.4903 -1.1989 -1.6860
   10SAPS  H12Y 1311   3.445   5.541   8.425  2.0114  0.9871  0.2922
   10SAPS  C313 1312   3.382   5.735   8.363  0.8277  0.4842  0.0220
   10SAPS  H13X 1313   3.278   5.722   8.399  0.0834 -2.4252 -2.9329
   10SAPS  H13Y 1314   3.377   5.793   8.269 -0.3087 -1.3847 -1.0997
   10SAPS  C314 1315   3.462   5.808   8.474  0.2855 -0.2042 -0.0231
   10SAPS  H14X 1316   3.408   5.904   8.493  0.5991 -0.0602  0.1309
   10SAPS  H14Y 1317   3.566   5.823   8.438  0.4602  1.1588  1.0160
   10SAPS  C315 1318   3.458   5.737   8.611  0.0069  0.0965  0.3878
   10SAPS  H15X 1319   3.532   5.654   8.616 -1.3243 -1.1122  0.3347
   10SAPS  H15Y 1320   3.356   5.694   8.622 -0.0921 -0.1521 -1.4156
   10SAPS  C316 1321   3.484   5.836   8.725  0.5631  0.3119 -0.2965
   10SAPS  H16X 1322   3.408   5.917   8.713  0.3617 -0.0305 -1.3869
   10SAPS  H16Y 1323   3.586   5.868   8.696  1.4953 -2.3901 -0.1354
   10SAPS  C317 1324   3.483   5.785   8.870  0.0348  0.7607  0.0132
   10SAPS  H17X 1325   3.549   5.856   8.924  1.2158 -0.8968  0.7899
   10SAPS  H17Y 1326   3.532   5.686   8.878  1.5026  1.6656  2.8089
   10SAPS  C318 1327   3.342   5.784   8.928  0.5619  0.3292  0.3349
   10SAPS  H18X 1328   3.282   5.697   8.893  0.9932 -0.0447  0.5345
   10SAPS  H18Y 1329   3.285   5.871   8.889 -3.0936 -1.2375  1.8676
   10SAPS  H18Z 1330   3.337   5.780   9.038  0.2787 -2.6219  0.2583
   11SAPS     N 1331   5.325   0.895   6.045  0.4178 -0.3601  0.1117
   11SAPS   HN1 1332   5.419   0.861   6.075  1.2504 -0.5165 -2.4770
   11SAPS   HN2 1333   5.254   0.854   6.108  0.6153  1.3651  1.4911
   11SAPS   HN3 1334   5.314   0.846   5.953 -1.1758 -1.6047  0.9418
   11SAPS   C12 1335   5.313   1.040   6.046  0.2011  0.5019  0.0832
   11SAPS  H12A 1336   5.285   1.087   6.138 -0.4445  0.1203  0.0897
   11SAPS   C13 1337   5.426   1.115   5.987  0.6496 -0.1685 -0.5053
   11SAPS  O13A 1338   5.530   1.064   5.934  0.0688 -0.5096  0.0950
   11SAPS  O13B 1339   5.416   1.237   6.001 -0.6010  0.1345 -0.1529
   11SAPS   C11 1340   5.185   1.080   5.954 -0.0958  0.3058 -1.1970
   11SAPS  H11A 1341   5.198   1.026   5.858  2.0811 -4.2077  1.4923
   11SAPS  H11B 1342   5.179   1.191   5.948  2.9062  0.4984 -1.5081
   11SAPS     P 1343   4.921   1.050   5.960  0.0809  0.2293 -0.4251
   11SAPS   O13 1344   4.930   1.139   5.838  0.5155 -0.1512 -0.1301
   11SAPS   O14 1345   4.853   0.928   5.929 -0.1327 -0.4714  0.3168
   11SAPS   O12 1346   5.066   1.015   6.005 -0.1009 -0.1576 -0.3850
   11SAPS   O11 1347   4.858   1.131   6.075  0.3539 -0.0392 -0.0328
   11SAPS    C1 1348   4.906   1.246   6.152  0.1757 -0.7168 -0.3274
   11SAPS    HA 1349   4.943   1.321   6.078 -0.6396  0.7796  0.7545
   11SAPS    HB 1350   4.828   1.311   6.196  2.3383  1.8974 -0.1808
   11SAPS    C2 1351   5.004   1.220   6.267 -1.4771 -0.2168 -0.0683
   11SAPS    HS 1352   5.093   1.160   6.239  0.5393  2.5178  0.2861
   11SAPS   O21 1353   4.925   1.164   6.370 -1.3320 -0.3769 -0.0601
   11SAPS   C21 1354   4.985   1.095   6.461 -0.3950  0.0272 -0.0862
   11SAPS   O22 1355   5.101   1.060   6.459  0.3831 -0.0542  0.1742
   11SAPS   C22 1356   4.890   1.079   6.580  0.4704  0.0759  0.4283
   11SAPS   H2R 1357   4.839   1.177   6.594 -0.1960 -0.5716  2.7111
   11SAPS   H2S 1358   4.810   1.011   6.542  0.9487  0.8756 -2.1554
   11SAPS    C3 1359   5.063   1.356   6.315  0.4859  0.5968 -0.2023
   11SAPS    HX 1360   4.980   1.413   6.363 -0.8203 -1.6374  0.2725
   11SAPS    HY 1361   5.108   1.413   6.232  0.5506 -0.3949 -0.8588
   11SAPS   O31 1362   5.156   1.353   6.426 -0.4212  0.3395  0.3413
   11SAPS   C31 1363   5.274   1.298   6.406  0.2196 -0.5099 -0.5456
   11SAPS   O32 1364   5.320   1.263   6.300 -0.8075  0.0441  0.2017
   11SAPS   C32 1365   5.340   1.264   6.543 -0.2693 -0.0982 -1.1864
   11SAPS   H2X 1366   5.273   1.200   6.603 -0.7039  0.5037 -1.0263
   11SAPS   H2Y 1367   5.350   1.364   6.591 -1.1138 -0.3334 -0.5272
   11SAPS   C23 1368   4.977   1.033   6.704  0.1767 -0.1700  0.2002
   11SAPS   H3R 1369   5.067   1.098   6.710 -0.4877  0.6666  1.3548
   11SAPS   H3S 1370   5.007   0.929   6.679  2.3016  0.4187  0.1850
   11SAPS   C24 1371   4.903   1.058   6.839  0.8534  0.0103  0.6069
   11SAPS   H4R 1372   4.864   1.160   6.818  0.7284 -0.4192 -1.3006
   11SAPS   H4S 1373   4.983   1.068   6.916  0.9388  0.4866  0.4553
   11SAPS   C25 1374   4.801   0.961   6.881  0.5702  0.1581 -0.1857
   11SAPS   H5R 1375   4.764   0.900   6.797  1.2378 -0.4354 -0.0493
   11SAPS   C26 1376   4.766   0.933   7.008  0.0857  0.1574 -0.0447
   11SAPS   H6R 1377   4.700   0.846   7.019  1.1185 -0.3174  2.7225
   11SAPS   C27 1378   4.817   0.995   7.139  0.1022  0.1627  0.2751
   11SAPS   H7R 1379   4.925   1.018   7.125  0.0779  2.3140  3.1796
   11SAPS   H7S 1380   4.818   0.920   7.220 -0.2824 -0.0056  0.1242
   11SAPS   C28 1381   4.755   1.120   7.162 -0.8005  0.2641  0.5869
   11SAPS   H8R 1382   4.715   1.174   7.075 -1.6953 -0.0345  0.8098
   11SAPS   C29 1383   4.742   1.177   7.283  0.1926  0.4138  0.5360
   11SAPS   H9R 1384   4.692   1.275   7.294  0.2176  0.5429 -0.4732
   11SAPS  C210 1385   4.794   1.117   7.410 -0.6353  0.8902 -0.3648
   11SAPS  H10R 1386   4.834   1.208   7.459  2.3947  1.4295 -3.6040
   11SAPS  H10S 1387   4.889   1.066   7.383 -0.7490  0.8543 -0.6992
   11SAPS  C211 1388   4.696   1.040   7.487  0.1674  0.1928 -0.1805
   11SAPS  H11R 1389   4.632   0.978   7.424  2.3392  0.1884 -2.4715
   11SAPS  C212 1390   4.659   1.050   7.618 -0.0977 -0.0126 -0.3051
   11SAPS  H12R 1391   4.574   0.987   7.646 -0.2640 -0.3218 -1.5088
   11SAPS  C213 1392   4.730   1.124   7.731  0.6864 -0.7471 -0.1858
   11SAPS  H13R 1393   4.656   1.194   7.776  1.5154 -0.5156  0.8331
   11SAPS  H13S 1394   4.813   1.189   7.698  1.2082 -0.7951  1.0378
   11SAPS  C214 1395   4.769   1.021   7.832 -0.0581 -0.2045  0.2252
   11SAPS  H14R 1396   4.828   0.940   7.788 -1.1024 -0.7695 -0.1706
   11SAPS  C215 1397   4.739   1.023   7.964  0.2504 -0.7331 -0.4705
   11SAPS  H15R 1398   4.776   0.934   8.017  2.4872 -0.1203 -0.9325
   11SAPS  C216 1399   4.669   1.118   8.060 -0.2164  0.4483 -0.5714
   11SAPS  H16R 1400   4.695   1.225   8.050  3.0208 -0.1126  1.2271
   11SAPS  H16S 1401   4.674   1.084   8.165 -0.4497 -3.3094 -1.6841
   11SAPS  C217 1402   4.513   1.112   8.046  0.0010  0.5504  0.0607
   11SAPS  H17R 1403   4.494   1.145   7.942 -0.0036 -0.3865 -0.2384
   11SAPS  H17S 1404   4.469   1.186   8.116  0.7173  1.5389 -0.5035
   11SAPS  C218 1405   4.452   0.968   8.066  0.0109 -1.1984  0.0273
   11SAPS  H18R 1406   4.428   0.958   8.175  0.8534  3.8678  0.7979
   11SAPS  H18S 1407   4.518   0.881   8.049  0.9596 -0.8521  1.8133
   11SAPS  C219 1408   4.314   0.960   7.992 -0.5457 -0.1526 -0.7817
   11SAPS  H19R 1409   4.338   0.961   7.884  0.8781  0.6207 -0.4762
   11SAPS  H19S 1410   4.258   1.054   8.015  2.3435  1.2753  0.6880
   11SAPS  C220 1411   4.226   0.844   8.028 -0.0263 -0.5804  0.4039
   11SAPS  H20R 1412   4.145   0.863   8.100 -0.0585  3.3948 -0.5743
   11SAPS  H20S 1413   4.279   0.756   8.072 -0.8984 -0.5709  1.4740
   11SAPS  H20T 1414   4.176   0.805   7.937 -1.3572  0.2352  0.7841
   11SAPS   C33 1415   5.475   1.197   6.530  0.5164 -0.7334 -0.5917
   11SAPS   H3X 1416   5.536   1.270   6.472 -0.6136  0.3658 -0.4202
   11SAPS   H3Y 1417   5.459   1.103   6.472  2.2031 -1.3080 -0.1429
   11SAPS   C34 1418   5.527   1.156   6.668  0.2619  0.6286  0.6444
   11SAPS   H4X 1419   5.628   1.122   6.637  0.8202  2.2486  0.6356
   11SAPS   H4Y 1420   5.468   1.072   6.709 -1.4872  1.5512  0.0705
   11SAPS   C35 1421   5.553   1.270   6.763  1.1287 -0.0069  0.0300
   11SAPS   H5X 1422   5.450   1.307   6.784  0.8264  0.1830 -1.6892
   11SAPS   H5Y 1423   5.608   1.354   6.716  0.9365 -0.7579 -1.5745
   11SAPS   C36 1424   5.619   1.222   6.894  0.4627  0.1624 -0.0190
   11SAPS   H6X 1425   5.727   1.199   6.875  0.3682 -0.6413  0.3976
   11SAPS   H6Y 1426   5.568   1.130   6.928  2.9851 -0.7881  1.3641
   11SAPS   C37 1427   5.601   1.332   7.005  0.1732  0.5301  0.4883
   11SAPS   H7X 1428   5.499   1.314   7.047  0.1931  1.6262  1.0256
   11SAPS   H7Y 1429   5.602   1.426   6.945  0.8559  0.4614  0.3899
   11SAPS   C38 1430   5.708   1.336   7.110 -0.2491 -0.0055 -0.2940
   11SAPS   H8X 1431   5.803   1.305   7.061  0.5172  1.5695  0.1306
   11SAPS   H8Y 1432   5.662   1.276   7.191 -0.1892 -1.2689 -1.1770
   11SAPS   C39 1433   5.717   1.478   7.169 -0.1985 -0.2888 -0.4488
   11SAPS   H9X 1434   5.613   1.511   7.191  0.4736 -0.4074  3.2259
   11SAPS   H9Y 1435   5.761   1.532   7.082  0.8747 -1.1222 -0.4389
   11SAPS  C310 1436   5.797   1.476   7.293 -0.2926 -0.1859  0.3735
   11SAPS  H10X 1437   5.899   1.454   7.257  0.7046  2.6902  1.2807
   11SAPS  H10Y 1438   5.760   1.406   7.371  0.6757 -1.2726 -0.1426
   11SAPS  C311 1439   5.797   1.612   7.354  0.4056 -0.7598  0.1949
   11SAPS  H11X 1440   5.693   1.651   7.356  1.2480  1.5988  4.2792
   11SAPS  H11Y 1441   5.865   1.679   7.298  0.7538 -0.6612  0.7339
   11SAPS  C312 1442   5.836   1.617   7.498 -0.4260 -0.2379 -0.0523
   11SAPS  H12X 1443   5.843   1.723   7.531 -0.5015  0.2019 -1.4059
   11SAPS  H12Y 1444   5.932   1.563   7.513 -1.0132 -1.4554 -0.6029
   11SAPS  C313 1445   5.732   1.543   7.591 -0.0903 -0.4729 -0.5816
   11SAPS  H13X 1446   5.721   1.434   7.571  1.3596 -0.8589  0.6163
   11SAPS  H13Y 1447   5.629   1.577   7.569  0.7139  2.4240 -0.0280
   11SAPS  C314 1448   5.748   1.558   7.743 -0.4046  0.3008  0.8083
   11SAPS  H14X 1449   5.720   1.658   7.782  0.6791  0.5191  1.0464
   11SAPS  H14Y 1450   5.854   1.570   7.776 -0.4692  1.0231  0.7595
   11SAPS  C315 1451   5.656   1.472   7.833  0.1750  0.4504 -0.3887
   11SAPS  H15X 1452   5.668   1.365   7.807 -0.2968  0.3242 -0.1011
   11SAPS  H15Y 1453   5.548   1.496   7.819 -0.1184  0.0262  1.0112
   11SAPS  C316 1454   5.701   1.482   7.985  0.8196 -0.2738 -0.1025
   11SAPS  H16X 1455   5.719   1.590   8.008 -1.5045  0.1663 -0.1928
   11SAPS  H16Y 1456   5.788   1.414   7.997 -0.7981 -1.9563  2.2230
   11SAPS  C317 1457   5.600   1.433   8.084 -0.3515 -0.2089 -0.2031
   11SAPS  H17X 1458   5.508   1.495   8.089 -0.8067 -1.0121  2.1463
   11SAPS  H17Y 1459   5.648   1.450   8.184 -0.8332 -2.1499  0.3808
   11SAPS  C318 1460   5.558   1.290   8.079 -0.2801 -0.2908 -0.3216
   11SAPS  H18X 1461   5.505   1.260   8.172  0.6114 -3.6219 -0.8071
   11SAPS  H18Y 1462   5.641   1.219   8.056  1.5258  1.7758 -0.2851
   11SAPS  H18Z 1463   5.488   1.284   7.993 -4.0813  0.0948  2.6116
   12SAPS     N 1464   5.198   2.990   6.086  0.3058 -0.9188  0.1807
   12SAPS   HN1 1465   5.235   3.018   5.993 -2.0406 -0.3789 -0.6092
   12SAPS   HN2 1466   5.228   2.892   6.100 -1.6327 -1.4211  1.0012
   12SAPS   HN3 1467   5.095   2.989   6.073  0.7019 -0.6283 -3.7492
   12SAPS   C12 1468   5.227   3.076   6.207  0.0647  0.4360 -0.4113
   12SAPS  H12A 1469   5.215   3.015   6.296 -0.6221 -1.1569 -1.5843
   12SAPS   C13 1470   5.374   3.137   6.211  0.0458  0.1870  0.0206
   12SAPS  O13A 1471   5.456   3.097   6.120  0.0095  0.3530 -0.4797
   12SAPS  O13B 1472   5.410   3.198   6.312  0.2978 -0.4312  0.1550
   12SAPS   C11 1473   5.129   3.203   6.208 -0.8171  0.1928 -0.1194
   12SAPS  H11A 1474   5.152   3.260   6.115  2.5270  1.8651  1.6552
   12SAPS  H11B 1475   5.154   3.260   6.299  1.3854 -1.2845  0.2435
   12SAPS     P 1476   4.879   3.276   6.188 -0.1534 -0.1819 -0.1899
   12SAPS   O13 1477   4.887   3.292   6.040 -0.4845 -0.4112 -0.3014
   12SAPS   O14 1478   4.750   3.244   6.246  0.2474  0.8622 -0.0433
   12SAPS   O12 1479   4.990   3.170   6.221  0.1197 -0.1038  0.9212
   12SAPS   O11 1480   4.936   3.407   6.270 -0.4427  0.1668  0.2100
   12SAPS    C1 1481   4.867   3.462   6.388 -0.1223 -0.1072  0.1993
   12SAPS    HA 1482   4.891   3.570   6.395 -0.9407  0.0163  1.0894
   12SAPS    HB 1483   4.756   3.458   6.389 -0.1114 -0.2681  0.9036
   12SAPS    C2 1484   4.935   3.406   6.523 -0.7370 -0.1613 -0.1231
   12SAPS    HS 1485   5.041   3.431   6.499 -1.1843  0.2419 -1.7158
   12SAPS   O21 1486   4.904   3.269   6.528  0.1286  0.1085 -0.0684
   12SAPS   C21 1487   4.990   3.192   6.575  0.5811  0.2431  0.3451
   12SAPS   O22 1488   5.099   3.216   6.618  0.4444 -0.0600  0.2777
   12SAPS   C22 1489   4.942   3.049   6.574  0.4272 -0.3185  0.2361
   12SAPS   H2R 1490   4.878   3.047   6.664  0.8313  0.6107  0.5512
   12SAPS   H2S 1491   4.886   3.034   6.479  3.0879 -0.1538 -1.4242
   12SAPS    C3 1492   4.878   3.482   6.655 -0.0931 -0.4950  0.0696
   12SAPS    HX 1493   4.767   3.481   6.648 -0.0979 -0.4858  0.1501
   12SAPS    HY 1494   4.898   3.591   6.656 -1.6462 -0.1922  1.5558
   12SAPS   O31 1495   4.929   3.415   6.770  0.0247  0.2820  0.1782
   12SAPS   C31 1496   5.042   3.455   6.816 -0.1257 -0.4783  0.3895
   12SAPS   O32 1497   5.101   3.556   6.782  0.6084 -0.2676  0.7229
   12SAPS   C32 1498   5.089   3.358   6.919 -0.2744  0.9527  1.0604
   12SAPS   H2X 1499   5.132   3.266   6.874 -1.0534  0.4957  1.2249
   12SAPS   H2Y 1500   5.001   3.328   6.981 -0.3681  0.5315  0.7250
   12SAPS   C23 1501   5.046   2.928   6.592 -0.3229  0.3298 -0.0309
   12SAPS   H3R 1502   5.119   2.944   6.510 -0.9505 -0.0774 -0.6773
   12SAPS   H3S 1503   4.987   2.837   6.568  0.4825  0.1535 -1.3666
   12SAPS   C24 1504   5.117   2.929   6.736  0.0194 -0.5954  0.2679
   12SAPS   H4R 1505   5.047   2.953   6.819 -1.2322 -0.6019 -0.7790
   12SAPS   H4S 1506   5.205   2.998   6.730  0.2178 -0.9189 -0.6072
   12SAPS   C25 1507   5.168   2.782   6.744  0.4590  0.0602 -0.0307
   12SAPS   H5R 1508   5.224   2.746   6.657  1.4171  0.7151  0.3085
   12SAPS   C26 1509   5.138   2.683   6.838  0.4008 -0.6962  0.0867
   12SAPS   H6R 1510   5.190   2.588   6.825 -1.0677 -1.6646  1.1036
   12SAPS   C27 1511   5.046   2.702   6.953  0.0292 -0.5114  0.6514
   12SAPS   H7R 1512   5.016   2.808   6.964  0.8536 -0.0199 -1.6892
   12SAPS   H7S 1513   5.088   2.667   7.050  0.9664 -1.0347  0.0646
   12SAPS   C28 1514   4.921   2.629   6.922 -0.2548  0.1921  0.5021
   12SAPS   H8R 1515   4.902   2.605   6.816 -1.9807  2.5425  0.2381
   12SAPS   C29 1516   4.831   2.601   7.021  0.5034 -0.6963 -0.3958
   12SAPS   H9R 1517   4.746   2.541   6.985  0.0402 -0.7046  0.6992
   12SAPS  C210 1518   4.845   2.625   7.166 -0.0320 -0.9328 -0.3722
   12SAPS  H10R 1519   4.948   2.660   7.189  0.1084 -1.7249  0.2070
   12SAPS  H10S 1520   4.823   2.533   7.224  0.8372 -0.6365  0.4351
   12SAPS  C211 1521   4.743   2.727   7.207  0.4700 -0.4106  0.1623
   12SAPS  H11R 1522   4.704   2.794   7.129  2.1673 -0.2121 -0.5355
   12SAPS  C212 1523   4.698   2.743   7.333 -0.1700  0.0390 -0.0051
   12SAPS  H12R 1524   4.624   2.823   7.349 -1.4841 -1.2219  0.2762
   12SAPS  C213 1525   4.726   2.661   7.459  0.1344  0.2614  0.6339
   12SAPS  H13R 1526   4.720   2.555   7.425  0.5237  0.2293  0.6567
   12SAPS  H13S 1527   4.645   2.677   7.533  1.7330 -0.0334  2.4890
   12SAPS  C214 1528   4.866   2.703   7.514 -0.5209 -0.3354  0.4117
   12SAPS  H14R 1529   4.927   2.765   7.447 -2.0573  0.9990  0.2029
   12SAPS  C215 1530   4.918   2.677   7.636 -0.1466  0.0459  0.5887
   12SAPS  H15R 1531   5.018   2.714   7.663  0.0318 -1.8337  2.7308
   12SAPS  C216 1532   4.853   2.591   7.746  0.0314  0.3654 -0.1756
   12SAPS  H16R 1533   4.908   2.494   7.749  0.0943  0.3748 -0.9352
   12SAPS  H16S 1534   4.747   2.565   7.727  0.2726  0.6212 -1.9948
   12SAPS  C217 1535   4.877   2.654   7.890 -0.1689  0.4083 -0.2425
   12SAPS  H17R 1536   4.985   2.647   7.917 -0.3172  3.3953  1.4073
   12SAPS  H17S 1537   4.816   2.597   7.962  0.1617  1.1911  0.6636
   12SAPS  C218 1538   4.836   2.805   7.913  0.0343  0.7373 -0.4583
   12SAPS  H18R 1539   4.727   2.819   7.897 -0.5832 -0.5811  2.3757
   12SAPS  H18S 1540   4.873   2.871   7.831 -0.0321 -1.2994 -2.1973
   12SAPS  C219 1541   4.874   2.853   8.051 -0.2781 -0.5799 -0.0735
   12SAPS  H19R 1542   4.836   2.785   8.130 -1.5998  1.0047  0.6935
   12SAPS  H19S 1543   4.843   2.956   8.079  1.0061 -0.9183  2.7532
   12SAPS  C220 1544   5.027   2.852   8.062  0.4919 -0.4575  0.1615
   12SAPS  H20R 1545   5.075   2.752   8.069  0.2066 -0.4526  2.2600
   12SAPS  H20S 1546   5.069   2.911   8.145 -3.4622  2.2901  0.3721
   12SAPS  H20T 1547   5.065   2.898   7.968 -1.3618 -0.1952 -0.4817
   12SAPS   C33 1548   5.194   3.436   6.995 -0.3217 -0.3961  0.1969
   12SAPS   H3X 1549   5.152   3.529   7.037 -1.7096 -0.4581 -1.0373
   12SAPS   H3Y 1550   5.290   3.458   6.943  1.4866 -0.5747  3.3063
   12SAPS   C34 1551   5.242   3.358   7.125 -0.5268 -0.4261 -0.4163
   12SAPS   H4X 1552   5.299   3.269   7.092 -1.1723 -0.1295 -2.3988
   12SAPS   H4Y 1553   5.150   3.325   7.179 -1.6666  0.2747 -1.8963
   12SAPS   C35 1554   5.326   3.450   7.212 -0.2362  0.4050  0.0061
   12SAPS   H5X 1555   5.256   3.532   7.240 -1.7784  0.0263 -2.5456
   12SAPS   H5Y 1556   5.409   3.499   7.157  0.8614 -0.8107  0.5465
   12SAPS   C36 1557   5.387   3.396   7.347  0.5289 -0.1085  0.1783
   12SAPS   H6X 1558   5.304   3.382   7.419  1.6807 -0.8091  1.3908
   12SAPS   H6Y 1559   5.468   3.463   7.382  1.1121  0.2430 -1.7584
   12SAPS   C37 1560   5.454   3.255   7.337 -0.1663  0.5694  0.0608
   12SAPS   H7X 1561   5.548   3.268   7.279  0.8012 -3.2577  0.6131
   12SAPS   H7Y 1562   5.392   3.180   7.283  1.7872 -0.2929 -1.0427
   12SAPS   C38 1563   5.509   3.199   7.472  0.2432  0.5081  0.1542
   12SAPS   H8X 1564   5.588   3.268   7.510  1.1189 -0.6581  0.4729
   12SAPS   H8Y 1565   5.553   3.098   7.456 -3.2855 -1.2492  1.0866
   12SAPS   C39 1566   5.402   3.176   7.579  0.4659  0.2596  0.8720
   12SAPS   H9X 1567   5.338   3.105   7.523  3.5163 -1.8891 -0.0133
   12SAPS   H9Y 1568   5.343   3.267   7.607 -0.0111 -0.4434  2.2178
   12SAPS  C310 1569   5.453   3.104   7.706 -0.2568  0.3938  0.5983
   12SAPS  H10X 1570   5.518   3.181   7.753  1.2697  0.4305 -1.4686
   12SAPS  H10Y 1571   5.516   3.017   7.680  2.0917  2.2899 -0.2656
   12SAPS  C311 1572   5.348   3.069   7.811 -0.2511 -0.4830 -0.2768
   12SAPS  H11X 1573   5.284   2.992   7.762  1.4886 -1.3729 -1.1920
   12SAPS  H11Y 1574   5.288   3.159   7.839  1.0584 -0.3433  2.1682
   12SAPS  C312 1575   5.417   3.015   7.940 -0.3823  0.3801 -0.0207
   12SAPS  H12X 1576   5.335   3.009   8.015 -0.8322  1.3593 -0.4295
   12SAPS  H12Y 1577   5.485   3.095   7.977 -3.1086  2.5325  0.5384
   12SAPS  C313 1578   5.487   2.883   7.927 -0.2568 -0.2751  0.5885
   12SAPS  H13X 1579   5.560   2.878   7.844 -0.4326 -4.2773  0.5811
   12SAPS  H13Y 1580   5.410   2.806   7.907  1.5397 -2.0318  0.2635
   12SAPS  C314 1581   5.565   2.853   8.062 -0.4723  0.0974 -0.6104
   12SAPS  H14X 1582   5.627   2.945   8.066 -2.1263  1.1686  1.0178
   12SAPS  H14Y 1583   5.634   2.766   8.052  0.2577  0.6455 -0.3498
   12SAPS  C315 1584   5.482   2.836   8.191 -0.0836  0.4707  0.2029
   12SAPS  H15X 1585   5.453   2.938   8.225 -0.4278 -0.3118  2.3803
   12SAPS  H15Y 1586   5.560   2.801   8.261 -0.1589 -2.0176 -0.9290
   12SAPS  C316 1587   5.361   2.731   8.190 -0.5339 -0.3188  0.5515
   12SAPS  H16X 1588   5.392   2.636   8.143  0.8232  0.2037  0.3543
   12SAPS  H16Y 1589   5.288   2.775   8.118 -0.4380 -2.0645 -0.6342
   12SAPS  C317 1590   5.312   2.692   8.332  0.9078 -0.0052 -0.1573
   12SAPS  H17X 1591   5.216   2.638   8.318  0.7012  0.5786 -1.0948
   12SAPS  H17Y 1592   5.294   2.781   8.396  1.9542  0.1950 -0.1322
   12SAPS  C318 1593   5.394   2.590   8.399  0.3991 -0.0581 -0.1526
   12SAPS  H18X 1594   5.347   2.553   8.493  0.4536  0.0266 -0.0928
   12SAPS  H18Y 1595   5.501   2.620   8.404  0.9713 -1.9374 -0.7335
   12SAPS  H18Z 1596   5.410   2.504   8.330  0.8922  0.7399 -1.0344
   13SAPS     N 1597   5.828   6.499   5.875 -0.0943 -0.2576 -0.2216
   13SAPS   HN1 1598   5.860   6.436   5.951 -0.6113  0.1220  0.3041
   13SAPS   HN2 1599   5.797   6.443   5.793  2.1931 -1.7279 -0.1399
   13SAPS   HN3 1600   5.924   6.538   5.861  0.6934 -2.5096 -1.4060
   13SAPS   C12 1601   5.728   6.592   5.925  0.0662  0.4224 -0.1524
   13SAPS  H12A 1602   5.747   6.610   6.030  3.2089  0.2562 -0.6389
   13SAPS   C13 1603   5.703   6.711   5.835 -0.1915  0.9452  0.5830
   13SAPS  O13A 1604   5.762   6.721   5.726 -0.3481  0.1439  0.2210
   13SAPS  O13B 1605   5.621   6.803   5.880 -0.3312 -0.1308 -0.6204
   13SAPS   C11 1606   5.596   6.519   5.943  0.5678 -0.4015  0.4792
   13SAPS  H11A 1607   5.556   6.471   5.851  0.4819 -0.1215  0.3682
   13SAPS  H11B 1608   5.524   6.596   5.977 -0.9350 -1.5444 -0.0451
   13SAPS     P 1609   5.527   6.291   6.049  0.4057  0.5662 -0.2355
   13SAPS   O13 1610   5.413   6.300   5.956  0.1330  0.1277 -0.4850
   13SAPS   O14 1611   5.617   6.178   6.020 -0.1564  0.0013 -0.4794
   13SAPS   O12 1612   5.607   6.426   6.050 -0.6388 -0.3161  0.6303
   13SAPS   O11 1613   5.477   6.277   6.196  0.3501  0.2038  0.0823
   13SAPS    C1 1614   5.396   6.393   6.247 -0.1444  1.0427 -0.1175
   13SAPS    HA 1615   5.458   6.485   6.251  0.5434  0.4976  1.9763
   13SAPS    HB 1616   5.320   6.419   6.170 -0.5217  2.3570  0.6912
   13SAPS    C2 1617   5.357   6.366   6.396  0.7349 -0.1217  0.3644
   13SAPS    HS 1618   5.271   6.436   6.406 -0.1257 -0.9095 -1.3909
   13SAPS   O21 1619   5.469   6.390   6.486  0.5455 -0.1196  0.2856
   13SAPS   C21 1620   5.467   6.514   6.538 -0.2526 -0.1467 -0.2527
   13SAPS   O22 1621   5.398   6.604   6.496 -0.2685 -0.0488  0.6155
   13SAPS   C22 1622   5.562   6.509   6.653  0.2619  0.2843 -0.5059
   13SAPS   H2R 1623   5.622   6.417   6.643 -0.1947  0.0341 -0.9849
   13SAPS   H2S 1624   5.631   6.597   6.653  0.1587  0.3924  2.4155
   13SAPS    C3 1625   5.297   6.225   6.433  0.2813  0.3740  0.0216
   13SAPS    HX 1626   5.376   6.147   6.419  0.7942  1.0497 -0.9653
   13SAPS    HY 1627   5.235   6.198   6.345  1.6113 -0.7607 -0.5983
   13SAPS   O31 1628   5.223   6.217   6.554  0.0067  0.9396 -0.1055
   13SAPS   C31 1629   5.285   6.188   6.664  0.4250  0.6921  0.1944
   13SAPS   O32 1630   5.405   6.168   6.673 -0.1785  0.1677  0.1108
   13SAPS   C32 1631   5.194   6.181   6.792 -0.5131 -0.2071 -0.0815
   13SAPS   H2X 1632   5.120   6.099   6.795 -0.1031 -0.5320  2.8454
   13SAPS   H2Y 1633   5.133   6.274   6.787  0.8852  0.9355  2.5912
   13SAPS   C23 1634   5.493   6.502   6.789 -0.2405  0.2987 -0.0495
   13SAPS   H3R 1635   5.577   6.499   6.862  0.6935 -0.9318 -1.1488
   13SAPS   H3S 1636   5.429   6.412   6.802  0.5601 -0.5743 -1.9481
   13SAPS   C24 1637   5.408   6.621   6.823 -0.0311  0.4521 -0.2135
   13SAPS   H4R 1638   5.308   6.603   6.777 -0.2300  1.0198 -0.0130
   13SAPS   H4S 1639   5.443   6.719   6.784  0.8303  0.8318  1.4710
   13SAPS   C25 1640   5.373   6.632   6.971 -0.0467  0.1365 -0.1701
   13SAPS   H5R 1641   5.270   6.601   6.995  0.5764 -1.0703  1.0101
   13SAPS   C26 1642   5.455   6.674   7.074 -1.2174 -0.3472  0.5521
   13SAPS   H6R 1643   5.426   6.638   7.174  1.1083  0.5731  1.5765
   13SAPS   C27 1644   5.598   6.720   7.064 -0.3900  0.2827  0.4014
   13SAPS   H7R 1645   5.634   6.713   6.959  0.4450 -0.1661  0.7090
   13SAPS   H7S 1646   5.660   6.647   7.121 -3.1674 -2.0343  0.5731
   13SAPS   C28 1647   5.614   6.863   7.114  0.4854 -0.8940  0.1051
   13SAPS   H8R 1648   5.621   6.931   7.028 -0.6126 -0.2971  0.4825
   13SAPS   C29 1649   5.616   6.920   7.236 -0.3396  0.6537  0.0257
   13SAPS   H9R 1650   5.613   7.030   7.238 -0.5258  0.6427  0.3797
   13SAPS  C210 1651   5.614   6.847   7.369 -0.8234  0.6757 -0.3835
   13SAPS  H10R 1652   5.526   6.782   7.348 -1.1133  1.2645 -1.0320
   13SAPS  H10S 1653   5.601   6.924   7.448  0.4209  0.8616 -0.3474
   13SAPS  C211 1654   5.741   6.780   7.406  0.5993 -0.3679 -0.6089
   13SAPS  H11R 1655   5.813   6.767   7.324  2.1054  0.9481  0.4420
   13SAPS  C212 1656   5.772   6.746   7.535  0.4006  0.3102  0.4545
   13SAPS  H12R 1657   5.876   6.713   7.545 -0.1962 -2.2407 -1.2967
   13SAPS  C213 1658   5.704   6.757   7.666  0.0829  0.4176 -0.4411
   13SAPS  H13R 1659   5.692   6.863   7.699 -1.4023 -0.7159  2.8836
   13SAPS  H13S 1660   5.763   6.712   7.748 -2.0034 -1.4691  0.0863
   13SAPS  C214 1661   5.567   6.698   7.666  1.0107 -0.3373  0.2573
   13SAPS  H14R 1662   5.515   6.701   7.569 -0.1970 -2.7862  0.7900
   13SAPS  C215 1663   5.500   6.635   7.765  0.0147 -0.4364 -0.7241
   13SAPS  H15R 1664   5.397   6.597   7.754 -0.6765  0.8409  0.9903
   13SAPS  C216 1665   5.566   6.606   7.898 -0.5798  0.4766 -1.0716
   13SAPS  H16R 1666   5.674   6.605   7.875 -0.6884 -1.7073 -1.6146
   13SAPS  H16S 1667   5.525   6.510   7.936  1.1435  0.3198  0.4887
   13SAPS  C217 1668   5.533   6.716   8.006  0.0642  0.1524  0.0888
   13SAPS  H17R 1669   5.425   6.722   8.030  0.4743  1.4570  1.7152
   13SAPS  H17S 1670   5.560   6.812   7.956  0.4741 -0.0566 -0.0919
   13SAPS  C218 1671   5.594   6.693   8.145 -0.0916  0.0507 -0.6206
   13SAPS  H18R 1672   5.587   6.586   8.176  0.9598  0.3481  0.7135
   13SAPS  H18S 1673   5.547   6.763   8.217 -1.1611 -1.5168  0.2117
   13SAPS  C219 1674   5.745   6.722   8.158  0.3441 -0.0523  0.4256
   13SAPS  H19R 1675   5.778   6.820   8.117 -1.0470  1.0597  1.8875
   13SAPS  H19S 1676   5.802   6.646   8.101  2.7881  1.1924  1.1702
   13SAPS  C220 1677   5.779   6.708   8.307  0.5367  0.3207  0.3868
   13SAPS  H20R 1678   5.771   6.604   8.343  0.5603  0.8460  1.9474
   13SAPS  H20S 1679   5.719   6.777   8.370  0.8763  0.8639  0.1217
   13SAPS  H20T 1680   5.885   6.740   8.315  0.4178  0.8192  0.0033
   13SAPS   C33 1681   5.264   6.166   6.927 -0.1940 -0.2099 -0.1085
   13SAPS   H3X 1682   5.356   6.228   6.932  1.4413 -2.6946  2.3613
   13SAPS   H3Y 1683   5.300   6.064   6.953  1.3349  0.5628  0.8939
   13SAPS   C34 1684   5.173   6.215   7.042 -0.4806 -0.2853 -0.8552
   13SAPS   H4X 1685   5.080   6.157   7.025 -0.7754  0.0883 -0.5120
   13SAPS   H4Y 1686   5.162   6.323   7.023  0.1791 -0.5437 -2.7905
   13SAPS   C35 1687   5.222   6.193   7.187  0.2081 -0.9053  0.2644
   13SAPS   H5X 1688   5.273   6.096   7.202  0.4033 -1.2000 -2.1779
   13SAPS   H5Y 1689   5.129   6.194   7.249  0.9839 -0.2963  1.4481
   13SAPS   C36 1690   5.324   6.304   7.214  0.3815 -0.1891 -0.4046
   13SAPS   H6X 1691   5.274   6.403   7.200  0.5643  0.2267  1.7895
   13SAPS   H6Y 1692   5.388   6.288   7.125 -0.7534 -3.0094 -0.7526
   13SAPS   C37 1693   5.391   6.288   7.345  0.2837 -0.3805  0.3049
   13SAPS   H7X 1694   5.460   6.374   7.356 -1.6338  0.9049  2.6778
   13SAPS   H7Y 1695   5.443   6.190   7.357  1.6323  0.1079 -1.4378
   13SAPS   C38 1696   5.297   6.300   7.466  0.6993  0.9124  0.9106
   13SAPS   H8X 1697   5.229   6.212   7.457  1.4495  0.4959 -0.9375
   13SAPS   H8Y 1698   5.225   6.384   7.459 -0.7435 -0.2843  1.1747
   13SAPS   C39 1699   5.371   6.322   7.600 -0.2650 -0.1172  0.1505
   13SAPS   H9X 1700   5.400   6.428   7.613  0.9071 -0.3310 -0.6333
   13SAPS   H9Y 1701   5.464   6.262   7.588 -0.5796 -0.6631  0.3733
   13SAPS  C310 1702   5.300   6.270   7.729 -0.8837  0.8843 -0.1000
   13SAPS  H10X 1703   5.251   6.177   7.693 -0.7897 -0.7249  3.6407
   13SAPS  H10Y 1704   5.234   6.346   7.776 -2.4888 -1.0895  0.9352
   13SAPS  C311 1705   5.402   6.227   7.839 -0.2838  0.4725 -0.6930
   13SAPS  H11X 1706   5.455   6.316   7.879  0.8480 -0.8810  0.8968
   13SAPS  H11Y 1707   5.479   6.162   7.793 -1.2147 -0.7280 -0.5927
   13SAPS  C312 1708   5.325   6.157   7.956 -0.3799  0.3829 -0.1069
   13SAPS  H12X 1709   5.286   6.060   7.918 -0.1550  1.1377 -2.3496
   13SAPS  H12Y 1710   5.246   6.226   7.990 -0.9474 -0.0502 -0.5262
   13SAPS  C313 1711   5.416   6.116   8.066 -0.0157 -0.4357 -0.1273
   13SAPS  H13X 1712   5.477   6.197   8.112  0.1395 -0.0294 -1.0230
   13SAPS  H13Y 1713   5.481   6.036   8.023 -0.3227 -1.3258  1.0568
   13SAPS  C314 1714   5.337   6.043   8.175 -0.2048 -0.0363  0.1880
   13SAPS  H14X 1715   5.275   6.114   8.234  0.7024  1.0091 -0.0991
   13SAPS  H14Y 1716   5.414   6.005   8.246  0.9429 -2.3225 -2.1944
   13SAPS  C315 1717   5.241   5.934   8.128 -0.3587  0.1556  0.3933
   13SAPS  H15X 1718   5.298   5.864   8.063  1.4400  0.4983  1.5533
   13SAPS  H15Y 1719   5.152   5.974   8.076 -0.7502 -0.0317  0.9209
   13SAPS  C316 1720   5.205   5.842   8.255  0.3915  0.1381  0.5666
   13SAPS  H16X 1721   5.290   5.817   8.322 -2.0096 -0.7706  3.4140
   13SAPS  H16Y 1722   5.188   5.745   8.205  0.1685  1.9668 -3.0617
   13SAPS  C317 1723   5.075   5.883   8.318  0.7167 -0.2750 -0.2990
   13SAPS  H17X 1724   4.999   5.910   8.242  0.4306  0.1289  0.1226
   13SAPS  H17Y 1725   5.096   5.984   8.361 -3.2153  1.1420 -1.5124
   13SAPS  C318 1726   5.040   5.786   8.439  0.7811  0.7449  0.2691
   13SAPS  H18X 1727   4.935   5.800   8.473  0.9830  0.6910  0.9194
   13SAPS  H18Y 1728   5.106   5.813   8.524  0.5490  1.9767  0.0683
   13SAPS  H18Z 1729   5.045   5.677   8.417 -1.1950  0.0501  2.9590
   14SAPS     N 1730   4.513   3.252   6.100 -0.1521 -0.3333 -0.3051
   14SAPS   HN1 1731   4.550   3.221   6.008  2.1643  1.0388  0.1211
   14SAPS   HN2 1732   4.464   3.344   6.098 -0.4185 -0.4126  1.3009
   14SAPS   HN3 1733   4.599   3.265   6.157 -0.6115  2.2644 -0.1605
   14SAPS   C12 1734   4.415   3.150   6.151 -0.0392 -0.0642 -0.5325
   14SAPS  H12A 1735   4.386   3.167   6.254  0.9963  0.6769 -0.3585
   14SAPS   C13 1736   4.273   3.154   6.083 -0.7073  0.2385  0.3052
   14SAPS  O13A 1737   4.245   3.242   5.998 -0.4403  0.4443  0.1485
   14SAPS  O13B 1738   4.186   3.073   6.117 -0.3359 -0.7504 -0.2996
   14SAPS   C11 1739   4.476   3.012   6.150  0.6878 -0.4643  0.1254
   14SAPS  H11A 1740   4.399   2.941   6.187 -0.7575  0.7257 -0.5048
   14SAPS  H11B 1741   4.564   3.015   6.217  0.2306 -0.1675  0.7212
   14SAPS     P 1742   4.579   2.830   6.005 -0.2331 -0.4819 -0.3412
   14SAPS   O13 1743   4.475   2.738   5.966 -0.4081  0.2052 -0.2859
   14SAPS   O14 1744   4.685   2.843   5.911  0.1940 -0.3453 -0.3557
   14SAPS   O12 1745   4.519   2.980   6.018  0.1588  0.1431 -0.1052
   14SAPS   O11 1746   4.634   2.786   6.140  0.0952  0.4324 -0.1226
   14SAPS    C1 1747   4.762   2.738   6.169  0.4549  0.0582  0.1032
   14SAPS    HA 1748   4.775   2.648   6.105 -1.4287 -1.7950  2.2413
   14SAPS    HB 1749   4.834   2.816   6.137  1.4330 -1.2241 -0.8764
   14SAPS    C2 1750   4.787   2.709   6.324  0.4436  0.5450  0.4562
   14SAPS    HS 1751   4.888   2.748   6.349 -0.3990  2.8360  0.3454
   14SAPS   O21 1752   4.776   2.567   6.344  0.4103 -0.1338  0.0669
   14SAPS   C21 1753   4.883   2.494   6.331 -0.3241  0.0502  0.6106
   14SAPS   O22 1754   4.991   2.528   6.286  0.2589 -0.1296  0.2388
   14SAPS   C22 1755   4.852   2.343   6.370  0.1064 -0.1440  0.1795
   14SAPS   H2R 1756   4.778   2.300   6.300  2.2147 -0.3159 -2.0039
   14SAPS   H2S 1757   4.953   2.299   6.352  0.1995  0.4301 -0.6965
   14SAPS    C3 1758   4.677   2.776   6.407 -0.5155  0.0334  0.3304
   14SAPS    HX 1759   4.578   2.743   6.369  1.2751 -2.5044 -2.4215
   14SAPS    HY 1760   4.684   2.886   6.394 -1.4764 -0.0272 -0.8190
   14SAPS   O31 1761   4.695   2.739   6.554 -0.0029 -0.1287 -0.5348
   14SAPS   C31 1762   4.587   2.717   6.625  0.0062  0.5742 -0.0042
   14SAPS   O32 1763   4.477   2.737   6.587  0.6308 -0.2372 -0.3504
   14SAPS   C32 1764   4.626   2.694   6.773  0.3906 -0.1104 -0.1505
   14SAPS   H2X 1765   4.676   2.782   6.819  1.2753 -1.0257  0.6423
   14SAPS   H2Y 1766   4.691   2.605   6.757 -1.6132 -2.0328  2.0892
   14SAPS   C23 1767   4.808   2.301   6.515  0.3672 -0.1587 -0.6710
   14SAPS   H3R 1768   4.698   2.316   6.515  0.7280  2.6816 -1.3176
   14SAPS   H3S 1769   4.857   2.368   6.589 -0.4454 -1.0849  0.7487
   14SAPS   C24 1770   4.849   2.157   6.548  0.4714  0.4525 -0.3106
   14SAPS   H4R 1771   4.805   2.089   6.472 -0.7418 -0.1407  0.9152
   14SAPS   H4S 1772   4.801   2.132   6.645 -0.0360  0.1961 -0.6250
   14SAPS   C25 1773   4.997   2.150   6.535 -0.4989 -0.2504  0.5614
   14SAPS   H5R 1774   5.032   2.127   6.433 -0.5873  1.5417  0.1063
   14SAPS   C26 1775   5.083   2.194   6.624  0.2086  0.3407 -0.0988
   14SAPS   H6R 1776   5.192   2.191   6.609 -0.0915 -1.1362 -2.1340
   14SAPS   C27 1777   5.044   2.244   6.760 -0.0962 -0.5591 -0.4432
   14SAPS   H7R 1778   4.936   2.224   6.773 -0.1504 -0.1994 -0.3533
   14SAPS   H7S 1779   5.044   2.354   6.767 -0.1667 -0.5424 -0.6914
   14SAPS   C28 1780   5.114   2.169   6.865 -1.2338  0.0340  0.0306
   14SAPS   H8R 1781   5.165   2.075   6.839 -1.9858 -0.7695  1.3763
   14SAPS   C29 1782   5.141   2.192   6.993 -0.7554 -0.0266 -0.8691
   14SAPS   H9R 1783   5.195   2.118   7.054 -3.4796 -1.8742 -0.6349
   14SAPS  C210 1784   5.104   2.319   7.066 -0.1680 -0.4299  0.5895
   14SAPS  H10R 1785   5.076   2.392   6.986  0.9665 -0.1784  0.4053
   14SAPS  H10S 1786   5.193   2.362   7.117 -0.4616 -1.5923  2.1107
   14SAPS  C211 1787   5.007   2.311   7.181 -0.3950  0.0094 -0.1779
   14SAPS  H11R 1788   4.903   2.324   7.150 -1.3508 -1.5881  2.2824
   14SAPS  C212 1789   5.038   2.307   7.317 -0.1719 -0.5759  0.5338
   14SAPS  H12R 1790   4.953   2.320   7.385  0.3929  2.4931  0.6983
   14SAPS  C213 1791   5.173   2.276   7.378 -0.0451 -0.0943 -0.9245
   14SAPS  H13R 1792   5.252   2.265   7.300 -0.1581 -0.9360 -0.9279
   14SAPS  H13S 1793   5.165   2.178   7.430  0.4106  0.3216 -0.0747
   14SAPS  C214 1794   5.199   2.389   7.480 -0.3271  0.0413  0.1150
   14SAPS  H14R 1795   5.197   2.489   7.437  1.8542  0.0182 -0.0609
   14SAPS  C215 1796   5.234   2.381   7.609  0.2297  0.0696  0.1829
   14SAPS  H15R 1797   5.253   2.474   7.665 -0.9518  2.4248 -3.1041
   14SAPS  C216 1798   5.240   2.257   7.694  0.2815  0.0597 -0.4175
   14SAPS  H16R 1799   5.344   2.226   7.667  0.9454  1.0426  0.9779
   14SAPS  H16S 1800   5.162   2.185   7.663  0.2737 -1.5367  3.0875
   14SAPS  C217 1801   5.227   2.274   7.842  0.4163 -0.5306  0.7235
   14SAPS  H17R 1802   5.312   2.339   7.874 -0.0980 -0.2525  1.5349
   14SAPS  H17S 1803   5.235   2.177   7.895 -0.1432 -1.5904 -1.0870
   14SAPS  C218 1804   5.102   2.359   7.878 -0.3822  0.0292 -0.5995
   14SAPS  H18R 1805   5.013   2.322   7.823 -0.7675 -0.2266  0.1917
   14SAPS  H18S 1806   5.100   2.463   7.840 -0.5399  0.4394  0.5025
   14SAPS  C219 1807   5.062   2.348   8.021 -0.4964  0.0647 -0.0885
   14SAPS  H19R 1808   5.070   2.243   8.056 -2.6350  0.8094  2.8631
   14SAPS  H19S 1809   4.957   2.385   8.032  0.0139  1.3964  0.4233
   14SAPS  C220 1810   5.159   2.422   8.117 -0.1503 -0.3061  0.0999
   14SAPS  H20R 1811   5.104   2.438   8.212 -2.1554 -2.8012 -0.5836
   14SAPS  H20S 1812   5.191   2.518   8.071 -0.4265  0.9549  2.4673
   14SAPS  H20T 1813   5.250   2.361   8.132  1.1578  0.8811 -2.7234
   14SAPS   C33 1814   4.505   2.669   6.859 -0.0949 -0.5255  0.5146
   14SAPS   H3X 1815   4.528   2.637   6.963  1.2316 -2.6424 -0.3926
   14SAPS   H3Y 1816   4.437   2.596   6.811  0.2029 -1.5886  1.6836
   14SAPS   C34 1817   4.420   2.791   6.884 -0.1682  0.2571 -0.8867
   14SAPS   H4X 1818   4.383   2.833   6.788  1.1148  1.2762 -0.9547
   14SAPS   H4Y 1819   4.465   2.881   6.930 -1.7861  0.5944  0.0609
   14SAPS   C35 1820   4.300   2.778   6.984 -0.1540  0.6712  0.3798
   14SAPS   H5X 1821   4.226   2.700   6.957  0.7413 -0.4548  1.1175
   14SAPS   H5Y 1822   4.239   2.871   6.987  0.7711  1.3234 -1.0102
   14SAPS   C36 1823   4.343   2.743   7.120 -0.6619 -0.5086  0.2903
   14SAPS   H6X 1824   4.430   2.805   7.151 -1.4015  0.7605 -0.1247
   14SAPS   H6Y 1825   4.374   2.636   7.112 -1.3201 -0.6053 -1.1481
   14SAPS   C37 1826   4.236   2.760   7.227 -0.4164 -0.0661 -0.5234
   14SAPS   H7X 1827   4.159   2.681   7.211 -1.0354 -0.3257  3.2241
   14SAPS   H7Y 1828   4.192   2.861   7.217 -2.9261 -1.1260 -0.9063
   14SAPS   C38 1829   4.303   2.718   7.363 -0.0297 -0.7311 -0.3655
   14SAPS   H8X 1830   4.388   2.789   7.371 -0.6806  0.0253 -0.1534
   14SAPS   H8Y 1831   4.343   2.615   7.350  0.1805 -0.4986 -1.7109
   14SAPS   C39 1832   4.205   2.729   7.481  0.4580  0.2222  0.0598
   14SAPS   H9X 1833   4.125   2.654   7.465  1.1013 -0.4405 -0.0837
   14SAPS   H9Y 1834   4.153   2.827   7.489  1.8227  0.8908  0.8741
   14SAPS  C310 1835   4.279   2.675   7.609  0.1337 -0.8973 -0.4023
   14SAPS  H10X 1836   4.331   2.578   7.592 -0.3230 -1.3397  0.6771
   14SAPS  H10Y 1837   4.203   2.679   7.690  1.7457 -1.2233  1.1512
   14SAPS  C311 1838   4.390   2.771   7.670 -0.5867  0.5000 -0.4661
   14SAPS  H11X 1839   4.353   2.875   7.680 -1.8469  0.1897 -1.6772
   14SAPS  H11Y 1840   4.470   2.769   7.592 -0.7409  0.5494 -0.6249
   14SAPS  C312 1841   4.456   2.721   7.798  0.5761 -0.2630  0.2179
   14SAPS  H12X 1842   4.521   2.798   7.844 -1.5097  1.2336  0.7428
   14SAPS  H12Y 1843   4.517   2.633   7.767  0.7709 -0.4120  0.9967
   14SAPS  C313 1844   4.351   2.671   7.896  0.2728 -0.1442 -0.0870
   14SAPS  H13X 1845   4.286   2.587   7.865 -3.2944  1.8455  1.6284
   14SAPS  H13Y 1846   4.277   2.751   7.917 -1.3323 -1.5481 -0.3096
   14SAPS  C314 1847   4.414   2.638   8.030  0.0145  0.7779  0.5262
   14SAPS  H14X 1848   4.336   2.638   8.110  0.3291  1.4095  0.8419
   14SAPS  H14Y 1849   4.473   2.729   8.053  0.1228  0.1649  2.8652
   14SAPS  C315 1850   4.498   2.500   8.038  0.2839 -0.5145 -0.6445
   14SAPS  H15X 1851   4.585   2.498   7.968 -1.3893  0.4967 -2.7908
   14SAPS  H15Y 1852   4.432   2.414   8.013  0.9642 -0.3118 -3.1992
   14SAPS  C316 1853   4.558   2.478   8.180  0.0013 -0.5589 -0.5337
   14SAPS  H16X 1854   4.477   2.481   8.256 -0.9926  1.6295 -1.6186
   14SAPS  H16Y 1855   4.625   2.564   8.202  1.5781 -2.0374  0.5134
   14SAPS  C317 1856   4.642   2.350   8.188 -0.2883  0.7156 -0.2204
   14SAPS  H17X 1857   4.717   2.355   8.106  0.9606  1.6641  0.9583
   14SAPS  H17Y 1858   4.574   2.264   8.171 -0.0278  0.0572  1.9281
   14SAPS  C318 1859   4.715   2.338   8.327 -0.4819  0.6000  0.1834
   14SAPS  H18X 1860   4.760   2.437   8.346  3.1023 -1.0270  0.6262
   14SAPS  H18Y 1861   4.794   2.259   8.322 -0.6636  0.3828  0.7428
   14SAPS  H18Z 1862   4.636   2.329   8.405 -0.3833  0.5908  0.2827
   15SAPS     N 1863   5.609   1.758   5.840  0.1842 -0.8701 -0.9955
   15SAPS   HN1 1864   5.537   1.799   5.903 -0.4631 -0.9066 -1.6938
   15SAPS   HN2 1865   5.650   1.827   5.773  0.4266 -0.3036 -0.2704
   15SAPS   HN3 1866   5.550   1.696   5.781  1.4161 -0.9382 -2.1832
   15SAPS   C12 1867   5.715   1.678   5.908 -0.4044  0.2904 -0.3534
   15SAPS  H12A 1868   5.684   1.643   6.005  0.8450  0.0251 -0.0453
   15SAPS   C13 1869   5.748   1.550   5.824 -0.8023  0.8292 -0.0079
   15SAPS  O13A 1870   5.728   1.548   5.704  0.5172  0.4083  0.4499
   15SAPS  O13B 1871   5.785   1.440   5.882  0.2048 -0.0900  0.1814
   15SAPS   C11 1872   5.845   1.774   5.911  0.1412  0.1439 -0.3302
   15SAPS  H11A 1873   5.868   1.803   5.805  3.2323 -1.8833 -0.2797
   15SAPS  H11B 1874   5.930   1.710   5.943 -0.0655  0.0493  0.0259
   15SAPS     P 1875   5.801   2.026   5.962 -0.0053  0.5566  0.3672
   15SAPS   O13 1876   5.927   2.085   5.927  0.6175 -0.4575  0.1116
   15SAPS   O14 1877   5.697   2.033   5.855 -0.2310  0.3143 -0.4694
   15SAPS   O12 1878   5.834   1.879   6.004  0.3479 -0.0579  0.1033
   15SAPS   O11 1879   5.738   2.081   6.092 -0.0575  0.1877 -0.5329
   15SAPS    C1 1880   5.821   2.094   6.211 -0.1958 -0.1579  0.1061
   15SAPS    HA 1881   5.930   2.103   6.189 -0.1660 -3.5519 -1.5073
   15SAPS    HB 1882   5.795   2.193   6.253  0.4141 -0.5701  1.4921
   15SAPS    C2 1883   5.797   1.984   6.315  0.1128  0.3644  0.1963
   15SAPS    HS 1884   5.827   1.894   6.257 -1.3107  0.2161 -0.3315
   15SAPS   O21 1885   5.660   1.979   6.350 -0.2146  0.3207  0.3148
   15SAPS   C21 1886   5.615   1.862   6.400  0.2518 -0.5691  0.8890
   15SAPS   O22 1887   5.676   1.759   6.398  0.5701 -0.1227  0.3669
   15SAPS   C22 1888   5.473   1.882   6.461 -0.4165 -0.0624  0.4492
   15SAPS   H2R 1889   5.451   1.991   6.462 -0.1028  0.0059  0.1550
   15SAPS   H2S 1890   5.402   1.849   6.382  0.8267  0.4009 -0.9002
   15SAPS    C3 1891   5.893   2.006   6.435  0.0293 -0.7216  0.2305
   15SAPS    HX 1892   5.886   2.114   6.458 -2.7576 -0.0528 -3.1472
   15SAPS    HY 1893   5.997   1.988   6.401  0.3665  2.3598 -0.4354
   15SAPS   O31 1894   5.869   1.924   6.547  0.2321  0.4139  0.2467
   15SAPS   C31 1895   5.950   1.956   6.650  0.1617  0.4197 -1.1706
   15SAPS   O32 1896   6.031   2.047   6.650 -0.1556  0.4468  0.2507
   15SAPS   C32 1897   5.921   1.871   6.772  0.7400 -0.3398 -0.5374
   15SAPS   H2X 1898   6.016   1.865   6.829  2.1098 -0.8736 -2.8280
   15SAPS   H2Y 1899   5.898   1.764   6.754 -2.0458 -0.2252  1.8477
   15SAPS   C23 1900   5.450   1.835   6.607 -0.4772  0.0510 -0.1918
   15SAPS   H3R 1901   5.507   1.907   6.670  2.9843 -1.3664 -1.5468
   15SAPS   H3S 1902   5.489   1.731   6.618  1.3904  0.7122 -0.4096
   15SAPS   C24 1903   5.308   1.829   6.655 -0.0314  0.3659  0.0302
   15SAPS   H4R 1904   5.253   1.924   6.636  1.5880  1.1597 -0.7107
   15SAPS   H4S 1905   5.315   1.828   6.766  0.8839  2.4918  0.0170
   15SAPS   C25 1906   5.239   1.710   6.599 -0.3500 -0.3317  0.6405
   15SAPS   H5R 1907   5.227   1.711   6.490  4.2477  1.4854  0.0630
   15SAPS   C26 1908   5.171   1.619   6.668 -0.0655  0.0570 -0.6868
   15SAPS   H6R 1909   5.127   1.535   6.613 -0.8539 -0.2998  0.4721
   15SAPS   C27 1910   5.173   1.601   6.821 -0.3575 -0.3318 -0.4625
   15SAPS   H7R 1911   5.141   1.497   6.841  0.5541 -0.4849  0.2410
   15SAPS   H7S 1912   5.095   1.671   6.857  1.5422  2.1017 -0.9175
   15SAPS   C28 1913   5.292   1.609   6.912  0.4177  0.9949 -0.7704
   15SAPS   H8R 1914   5.383   1.580   6.857  0.9662 -3.0202  1.9986
   15SAPS   C29 1915   5.303   1.641   7.043  0.3618  0.3039  0.3799
   15SAPS   H9R 1916   5.402   1.635   7.089  0.5147 -2.5119 -0.2390
   15SAPS  C210 1917   5.185   1.684   7.133 -0.3803 -0.1906 -0.0855
   15SAPS  H10R 1918   5.224   1.680   7.237 -0.5372 -2.5609 -0.0994
   15SAPS  H10S 1919   5.095   1.621   7.118  0.7165 -1.5409 -1.0096
   15SAPS  C211 1920   5.140   1.822   7.104  0.3343 -0.2928 -0.1293
   15SAPS  H11R 1921   5.189   1.866   7.016  0.0378  2.1901  0.9174
   15SAPS  C212 1922   5.048   1.896   7.170 -0.5025 -0.8801 -0.0117
   15SAPS  H12R 1923   5.031   1.999   7.136 -1.3235 -1.2794 -0.8310
   15SAPS  C213 1924   4.970   1.859   7.292 -0.0390 -0.2804 -0.6818
   15SAPS  H13R 1925   5.028   1.789   7.355 -3.7944 -0.7722  2.3930
   15SAPS  H13S 1926   4.875   1.809   7.263 -0.8093  0.4807  0.4726
   15SAPS  C214 1927   4.937   1.988   7.372 -0.3691  0.2852 -0.3530
   15SAPS  H14R 1928   4.898   2.075   7.318 -0.5930  1.2189  1.2685
   15SAPS  C215 1929   4.942   2.019   7.502  0.5632 -0.5907  0.0141
   15SAPS  H15R 1930   4.919   2.120   7.537 -3.1108 -1.1934 -0.5089
   15SAPS  C216 1931   4.984   1.921   7.610  0.0383  0.9982 -1.1225
   15SAPS  H16R 1932   5.091   1.927   7.641 -0.3579  1.3802  0.2310
   15SAPS  H16S 1933   4.982   1.819   7.567 -0.8204  1.7962 -3.0256
   15SAPS  C217 1934   4.898   1.912   7.744 -0.4579 -0.2519  0.0079
   15SAPS  H17R 1935   4.951   1.834   7.802 -0.0129 -1.6233 -2.1889
   15SAPS  H17S 1936   4.797   1.873   7.718 -0.4374 -0.1383 -0.2513
   15SAPS  C218 1937   4.904   2.038   7.833  0.9173  0.2726 -0.3379
   15SAPS  H18R 1938   4.854   2.128   7.791 -1.3640 -0.8703 -0.1588
   15SAPS  H18S 1939   5.010   2.068   7.844  1.3144 -0.4923 -1.8164
   15SAPS  C219 1940   4.828   2.021   7.962  0.7407  0.1814  0.3218
   15SAPS  H19R 1941   4.731   1.971   7.943  0.5255  0.1102  1.6120
   15SAPS  H19S 1942   4.813   2.121   8.007 -1.7270  0.3492 -0.8009
   15SAPS  C220 1943   4.896   1.934   8.071  0.8010 -0.6461  0.4486
   15SAPS  H20R 1944   4.983   1.995   8.102  0.1731 -0.1128  1.1614
   15SAPS  H20S 1945   4.941   1.840   8.031  1.1707  0.2348 -1.2745
   15SAPS  H20T 1946   4.826   1.924   8.156  2.8339  3.0204  2.6677
   15SAPS   C33 1947   5.798   1.924   6.856 -0.0761  0.2640  0.7313
   15SAPS   H3X 1948   5.707   1.893   6.801  1.4929 -2.9996 -0.1988
   15SAPS   H3Y 1949   5.801   2.033   6.873 -1.1953  0.4971 -0.4604
   15SAPS   C34 1950   5.800   1.841   6.985  0.2722  0.5958  0.5884
   15SAPS   H4X 1951   5.897   1.866   7.032  0.4123 -0.4782  0.8878
   15SAPS   H4Y 1952   5.811   1.737   6.947  1.1300  0.4758  1.1494
   15SAPS   C35 1953   5.680   1.841   7.073 -0.0952  0.0905 -0.2959
   15SAPS   H5X 1954   5.695   1.770   7.157 -0.8026  0.9649  0.5839
   15SAPS   H5Y 1955   5.594   1.804   7.013 -0.8057 -0.3367  0.9591
   15SAPS   C36 1956   5.649   1.981   7.121 -0.0068  0.7942 -0.1850
   15SAPS   H6X 1957   5.643   2.052   7.036 -0.3934  1.7252  0.6073
   15SAPS   H6Y 1958   5.737   2.010   7.182  0.7700  1.4404 -1.6067
   15SAPS   C37 1959   5.521   1.980   7.204  0.0155 -0.2392 -0.2781
   15SAPS   H7X 1960   5.431   1.957   7.144 -0.5660  0.3535  0.3628
   15SAPS   H7Y 1961   5.503   2.086   7.232 -1.6365 -0.5510 -0.1289
   15SAPS   C38 1962   5.521   1.894   7.336  0.9321  0.5837 -0.4216
   15SAPS   H8X 1963   5.617   1.904   7.391  1.7858  0.5851 -1.8870
   15SAPS   H8Y 1964   5.512   1.791   7.296  1.5045  0.5028 -0.3511
   15SAPS   C39 1965   5.408   1.915   7.429  0.6047  0.0775  0.3576
   15SAPS   H9X 1966   5.311   1.938   7.380  0.4839  0.2608  0.6744
   15SAPS   H9Y 1967   5.416   2.002   7.498 -2.5649 -0.3920  1.3997
   15SAPS  C310 1968   5.364   1.797   7.509 -0.2191  0.1205  0.5373
   15SAPS  H10X 1969   5.371   1.703   7.451 -2.7405 -0.2734  0.7840
   15SAPS  H10Y 1970   5.255   1.804   7.532 -0.2161 -0.1079  0.6259
   15SAPS  C311 1971   5.435   1.790   7.650  0.3528  0.9947  0.5697
   15SAPS  H11X 1972   5.536   1.837   7.656  0.9235 -0.4103  2.2206
   15SAPS  H11Y 1973   5.436   1.685   7.685 -0.7618  1.0072  0.6624
   15SAPS  C312 1974   5.351   1.860   7.760  0.5722  0.0903  0.5152
   15SAPS  H12X 1975   5.251   1.811   7.758  0.3058  0.5733  1.7143
   15SAPS  H12Y 1976   5.329   1.967   7.743 -0.2279  0.1225  1.6875
   15SAPS  C313 1977   5.408   1.842   7.899 -0.1299 -0.8860 -1.1006
   15SAPS  H13X 1978   5.517   1.865   7.895 -0.2214 -0.2117  0.0911
   15SAPS  H13Y 1979   5.401   1.734   7.922 -2.6035 -0.5514 -0.0910
   15SAPS  C314 1980   5.361   1.943   8.003 -0.2000  0.1909 -0.6848
   15SAPS  H14X 1981   5.251   1.948   7.991 -0.5994 -0.2071  2.3547
   15SAPS  H14Y 1982   5.407   2.042   7.984  1.6297 -0.3215  0.9077
   15SAPS  C315 1983   5.392   1.882   8.139 -0.4038  0.3924 -0.4239
   15SAPS  H15X 1984   5.492   1.835   8.150 -0.5960 -0.4085 -1.9180
   15SAPS  H15Y 1985   5.321   1.798   8.156 -0.5461 -0.0117 -2.7759
   15SAPS  C316 1986   5.353   1.981   8.258  0.0511  0.3742  0.6955
   15SAPS  H16X 1987   5.335   1.925   8.352 -1.5627  0.5946  0.5364
   15SAPS  H16Y 1988   5.257   2.032   8.233  0.0787  0.7428  1.3345
   15SAPS  C317 1989   5.476   2.073   8.293  0.4758 -0.0507 -0.6718
   15SAPS  H17X 1990   5.506   2.138   8.209  2.1148 -1.4436 -1.1998
   15SAPS  H17Y 1991   5.560   2.006   8.321 -0.1620 -0.0739  1.3385
   15SAPS  C318 1992   5.456   2.158   8.418 -0.0709  0.6076 -0.2454
   15SAPS  H18X 1993   5.561   2.182   8.448  0.0223  1.8460 -1.5068
   15SAPS  H18Y 1994   5.396   2.104   8.494  1.0415 -1.3373 -0.7030
   15SAPS  H18Z 1995   5.412   2.254   8.384  0.0135  1.6737  2.4706
   16SAPS     N 1996   0.364   3.854   6.566 -0.1934  0.4352  0.2538
   16SAPS   HN1 1997   0.339   3.937   6.623 -0.2173  1.1517 -0.7955
   16SAPS   HN2 1998   0.293   3.786   6.532 -0.0012  0.1806  0.3542
   16SAPS   HN3 1999   0.438   3.806   6.621 -1.5446 -0.6175  1.1916
   16SAPS   C12 2000   0.410   3.927   6.444 -0.5888  0.3306  0.2568
   16SAPS  H12A 2001   0.452   3.856   6.374 -1.5727 -1.0909  1.0835
   16SAPS   C13 2002   0.280   3.984   6.390  0.0138 -0.5998  0.2919
   16SAPS  O13A 2003   0.171   3.960   6.443 -0.5343 -0.1825  0.1301
   16SAPS  O13B 2004   0.282   4.043   6.268 -0.1000 -0.4119  0.1066
   16SAPS   C11 2005   0.518   4.027   6.464  0.2106 -0.2999  0.2322
   16SAPS  H11A 2006   0.481   4.115   6.522  1.2647 -0.6509  1.4608
   16SAPS  H11B 2007   0.537   4.071   6.364  0.4311 -1.5337 -0.2708
   16SAPS     P 2008   0.767   4.043   6.539 -0.2421 -0.1144 -0.1405
   16SAPS   O13 2009   0.878   3.951   6.588  0.3385  0.0028 -0.1843
   16SAPS   O14 2010   0.790   4.106   6.408 -0.1448  0.5777 -0.5076
   16SAPS   O12 2011   0.630   3.964   6.528  0.6967 -0.0656 -0.9516
   16SAPS   O11 2012   0.734   4.147   6.650  0.1466 -0.5122  0.2940
   16SAPS    C1 2013   0.788   4.146   6.780 -0.2307 -0.0452 -0.1424
   16SAPS    HA 2014   0.781   4.042   6.819 -0.1689 -0.5859 -1.5301
   16SAPS    HB 2015   0.892   4.185   6.786 -0.8229  2.0240 -2.6168
   16SAPS    C2 2016   0.695   4.206   6.884 -0.0705 -0.2289  0.4117
   16SAPS    HS 2017   0.712   4.315   6.893  0.1124 -0.1928 -0.3248
   16SAPS   O21 2018   0.721   4.133   7.005  0.1082 -0.4620  0.1350
   16SAPS   C21 2019   0.740   4.206   7.114  0.2217 -0.1661  0.0648
   16SAPS   O22 2020   0.740   4.326   7.122 -0.2174  0.6080  0.0213
   16SAPS   C22 2021   0.747   4.112   7.240 -0.2480 -0.6276  0.6965
   16SAPS   H2R 2022   0.695   4.019   7.209 -1.8634  0.1665  0.9773
   16SAPS   H2S 2023   0.856   4.093   7.254 -0.1925  0.0171  1.1509
   16SAPS    C3 2024   0.545   4.189   6.843  0.8539 -0.2231  0.2723
   16SAPS    HX 2025   0.526   4.080   6.850  1.9921 -0.4223  0.3786
   16SAPS    HY 2026   0.527   4.222   6.739 -1.2353 -3.6878 -0.5424
   16SAPS   O31 2027   0.452   4.268   6.930 -0.4011  0.1331  0.5361
   16SAPS   C31 2028   0.400   4.382   6.894  0.1347  0.6919  0.5030
   16SAPS   O32 2029   0.396   4.429   6.779  0.2141 -0.9158 -0.1095
   16SAPS   C32 2030   0.343   4.448   7.014 -0.2652  0.3799  0.4659
   16SAPS   H2X 2031   0.251   4.394   7.047  0.1385  0.7534  2.3052
   16SAPS   H2Y 2032   0.314   4.553   6.989 -0.5076 -0.0191 -0.9752
   16SAPS   C23 2033   0.680   4.167   7.365 -0.3062 -0.5489 -0.0133
   16SAPS   H3R 2034   0.571   4.183   7.357 -0.2979  0.5133  1.7181
   16SAPS   H3S 2035   0.731   4.265   7.371  0.8309 -1.1307  0.1283
   16SAPS   C24 2036   0.735   4.111   7.502  0.1838  0.0474 -0.5604
   16SAPS   H4R 2037   0.843   4.112   7.479  0.2388 -1.7755 -0.5113
   16SAPS   H4S 2038   0.708   4.003   7.506  1.5889 -0.3060 -0.4799
   16SAPS   C25 2039   0.685   4.186   7.626 -0.5537  0.4527 -0.0211
   16SAPS   H5R 2040   0.613   4.266   7.602  1.3744  1.7432 -1.6775
   16SAPS   C26 2041   0.708   4.154   7.753 -0.3512  0.3627  0.4874
   16SAPS   H6R 2042   0.670   4.225   7.830 -1.8305  0.9505 -0.7434
   16SAPS   C27 2043   0.797   4.043   7.801 -0.7870 -0.3234 -0.3335
   16SAPS   H7R 2044   0.854   3.985   7.726  0.1307 -1.0334  0.8907
   16SAPS   H7S 2045   0.734   3.968   7.854 -0.7985  0.3537  0.6191
   16SAPS   C28 2046   0.892   4.099   7.910 -0.2171  0.8053  0.5013
   16SAPS   H8R 2047   0.935   4.199   7.897 -1.1865  1.5073  2.4751
   16SAPS   C29 2048   0.910   4.041   8.031 -0.0849  0.1644  0.1235
   16SAPS   H9R 2049   0.976   4.093   8.102 -1.2719  1.7094  0.1232
   16SAPS  C210 2050   0.833   3.918   8.091 -0.1615  0.3241 -0.4943
   16SAPS  H10R 2051   0.891   3.845   8.151 -1.8985 -0.4565  0.2729
   16SAPS  H10S 2052   0.776   3.862   8.014  1.3255 -1.1894 -0.5138
   16SAPS  C211 2053   0.732   3.980   8.190  0.0107  0.4934 -0.0319
   16SAPS  H11R 2054   0.629   3.981   8.151 -0.5207 -0.5028  1.2928
   16SAPS  C212 2055   0.758   4.008   8.319  0.3122 -0.1749  0.5865
   16SAPS  H12R 2056   0.672   4.045   8.376  0.2353 -0.7298  0.8358
   16SAPS  C213 2057   0.888   3.994   8.392  0.5762  0.1971  0.0583
   16SAPS  H13R 2058   0.971   4.047   8.340  1.9361 -0.2012  1.7734
   16SAPS  H13S 2059   0.934   3.894   8.377  2.2648  1.0368 -0.5094
   16SAPS  C214 2060   0.895   4.030   8.536  0.0129  0.2710  0.0688
   16SAPS  H14R 2061   0.912   4.138   8.551  0.1954  0.4466 -1.2632
   16SAPS  C215 2062   0.896   3.942   8.635 -0.4375 -0.5800  0.6712
   16SAPS  H15R 2063   0.892   3.982   8.737 -2.3431  2.5792 -0.5382
   16SAPS  C216 2064   0.891   3.794   8.636  0.0434  0.7872  0.1735
   16SAPS  H16R 2065   0.973   3.743   8.581 -0.8307  1.2870 -1.6284
   16SAPS  H16S 2066   0.808   3.769   8.566  0.2209  3.6400 -1.1523
   16SAPS  C217 2067   0.854   3.740   8.784 -0.0453 -0.4082  0.4153
   16SAPS  H17R 2068   0.915   3.795   8.859  0.0060  1.5772 -1.0400
   16SAPS  H17S 2069   0.902   3.640   8.777 -1.3835 -0.9306 -1.7730
   16SAPS  C218 2070   0.707   3.729   8.818 -0.4801 -1.1115  0.7736
   16SAPS  H18R 2071   0.663   3.670   8.735 -1.7346  0.4830  0.3016
   16SAPS  H18S 2072   0.662   3.830   8.820  2.6811  0.3460  3.2988
   16SAPS  C219 2073   0.679   3.646   8.951 -0.0497  0.4271 -0.0105
   16SAPS  H19R 2074   0.743   3.556   8.944 -1.6579 -0.6066 -1.7275
   16SAPS  H19S 2075   0.579   3.598   8.956  0.3234 -0.3158  0.2569
   16SAPS  C220 2076   0.704   3.717   9.081  0.2022 -0.0844  0.0919
   16SAPS  H20R 2077   0.625   3.792   9.104 -0.1064 -1.0037  2.1576
   16SAPS  H20S 2078   0.810   3.750   9.083  1.2724 -3.3646  0.4526
   16SAPS  H20T 2079   0.692   3.641   9.161  0.9040 -0.4748 -0.1722
   16SAPS   C33 2080   0.434   4.459   7.131 -0.2631 -0.3419  0.3298
   16SAPS   H3X 2081   0.533   4.498   7.098 -0.5123 -0.6988 -0.8897
   16SAPS   H3Y 2082   0.448   4.355   7.169  1.2717 -0.4268 -0.4063
   16SAPS   C34 2083   0.386   4.541   7.252 -0.0109  1.0649 -0.9384
   16SAPS   H4X 2084   0.296   4.494   7.297  1.6178  0.3371  1.6683
   16SAPS   H4Y 2085   0.364   4.643   7.213  1.4491  1.5846 -0.4488
   16SAPS   C35 2086   0.498   4.565   7.353  0.3836  0.1291  0.0137
   16SAPS   H5X 2087   0.578   4.635   7.321  0.2724  0.0349 -0.4712
   16SAPS   H5Y 2088   0.539   4.466   7.383  1.1561  0.3572 -0.2557
   16SAPS   C36 2089   0.440   4.635   7.481  0.5642  0.0955  0.2613
   16SAPS   H6X 2090   0.352   4.702   7.472 -1.0320 -1.5538  3.0532
   16SAPS   H6Y 2091   0.514   4.714   7.509  0.1612  0.7637 -0.5513
   16SAPS   C37 2092   0.436   4.552   7.612  0.4711  0.0057 -0.3410
   16SAPS   H7X 2093   0.505   4.468   7.593 -2.7563 -2.4931 -1.5102
   16SAPS   H7Y 2094   0.335   4.506   7.626  0.2280  0.6019 -0.1202
   16SAPS   C38 2095   0.488   4.617   7.740 -0.6353 -0.7309 -0.5246
   16SAPS   H8X 2096   0.579   4.671   7.705 -0.4803  0.7383  1.9657
   16SAPS   H8Y 2097   0.518   4.537   7.811  0.3116 -0.5743 -0.7349
   16SAPS   C39 2098   0.396   4.727   7.815  0.4671 -0.0419 -0.1510
   16SAPS   H9X 2099   0.288   4.705   7.806  0.1635  1.9812 -1.6127
   16SAPS   H9Y 2100   0.405   4.831   7.778 -1.8258  0.7857  1.4976
   16SAPS  C310 2101   0.423   4.723   7.963 -0.2949  0.1577  0.2125
   16SAPS  H10X 2102   0.528   4.755   7.981 -0.3226  0.2824  0.1463
   16SAPS  H10Y 2103   0.408   4.617   7.995 -2.2855  0.3495 -0.0464
   16SAPS  C311 2104   0.320   4.813   8.040 -0.3317  0.3428  0.2487
   16SAPS  H11X 2105   0.227   4.827   7.981  0.3444  0.9539 -0.6649
   16SAPS  H11Y 2106   0.375   4.909   8.045  1.0487 -0.3257 -1.5448
   16SAPS  C312 2107   0.283   4.766   8.186  0.3056  0.1094  0.0525
   16SAPS  H12X 2108   0.365   4.792   8.256 -0.7779  0.5002  1.1758
   16SAPS  H12Y 2109   0.267   4.657   8.194  1.0093 -0.1327 -1.4535
   16SAPS  C313 2110   0.156   4.827   8.241 -0.5053  0.2276  0.9261
   16SAPS  H13X 2111   0.126   4.789   8.341 -1.0382 -1.4916  0.1264
   16SAPS  H13Y 2112   0.070   4.793   8.179 -1.3851  1.0913  1.6443
   16SAPS  C314 2113   0.150   4.979   8.260  0.2102 -0.2795 -0.2215
   16SAPS  H14X 2114   0.047   5.010   8.288  0.8237  2.7164 -1.0542
   16SAPS  H14Y 2115   0.172   5.032   8.164 -1.2018 -0.4380 -0.6302
   16SAPS  C315 2116   0.248   5.040   8.361 -0.0474 -0.4956 -0.4550
   16SAPS  H15X 2117   0.248   5.151   8.365 -1.7189 -0.5090 -0.0755
   16SAPS  H15Y 2118   0.351   5.007   8.333  0.5989  1.6734 -0.7340
   16SAPS  C316 2119   0.217   5.003   8.512  0.2104  0.2104 -0.7464
   16SAPS  H16X 2120   0.240   4.896   8.532 -0.7605 -0.2786 -2.1305
   16SAPS  H16Y 2121   0.107   5.014   8.525  0.2981  0.6458 -0.3874
   16SAPS  C317 2122   0.298   5.087   8.608  0.2545  0.5900  0.0811
   16SAPS  H17X 2123   0.401   5.103   8.568  0.6542  0.3555  0.9911
   16SAPS  H17Y 2124   0.317   5.029   8.701 -0.8340  1.8756  1.1413
   16SAPS  C318 2125   0.232   5.217   8.656  0.5282  0.9000  0.8626
   16SAPS  H18X 2126   0.124   5.215   8.633  0.7335  1.3248 -0.1761
   16SAPS  H18Y 2127   0.271   5.315   8.619 -0.7535  0.4293 -1.8541
   16SAPS  H18Z 2128   0.248   5.221   8.766 -0.3655  0.4716  1.0069
   17SAPC     N 2129   5.598   6.781  10.841  0.1101  0.2353  0.3608
   17SAPC   C12 2130   5.506   6.894  10.805 -0.2630  0.7181 -0.1431
   17SAPC  H12A 2131   5.566   6.981  10.782 -0.1209  0.4305 -0.8558
   17SAPC  H12B 2132   5.448   6.921  10.893  0.0431  1.0984 -0.0525
   17SAPC   C13 2133   5.657   6.803  10.977  0.6599 -0.1055 -0.5364
   17SAPC  H13A 2134   5.579   6.802  11.051  0.2957 -0.3025 -0.9190
   17SAPC  H13B 2135   5.718   6.718  11.004  0.5041 -0.0262  0.0757
   17SAPC  H13C 2136   5.721   6.889  10.992 -1.2367  1.2071  0.1704
   17SAPC   C14 2137   5.523   6.656  10.848  0.4398 -0.3904 -0.8695
   17SAPC  H14A 2138   5.494   6.632  10.747  0.7316  0.8712 -1.2621
   17SAPC  H14B 2139   5.588   6.576  10.879 -0.2631 -1.1750 -1.4122
   17SAPC  H14C 2140   5.439   6.668  10.915  1.1257  2.1362 -0.4108
   17SAPC   C15 2141   5.707   6.771  10.738  0.3651  0.3684  0.8725
   17SAPC  H15A 2142   5.784   6.846  10.748  0.3947  0.0151  3.7430
   17SAPC  H15B 2143   5.765   6.680  10.744  0.5443  0.3211 -1.0779
   17SAPC  H15C 2144   5.657   6.766  10.642  0.7825 -0.8925  0.7185
   17SAPC   C11 2145   5.397   6.859  10.698  0.3425  0.2312 -1.1199
   17SAPC  H11A 2146   5.353   6.959  10.678  0.0719  0.5743  1.0014
   17SAPC  H11B 2147   5.322   6.783  10.727 -1.2609  3.0115  2.5141
   17SAPC     P 2148   5.480   6.863  10.446  0.2984 -0.6609 -0.0450
   17SAPC   O13 2149   5.462   7.012  10.456  0.0067  0.3022 -0.0348
   17SAPC   O14 2150   5.612   6.817  10.408  0.5789 -0.0783  0.2645
   17SAPC   O12 2151   5.443   6.796  10.582  0.2882 -0.4233 -0.3850
   17SAPC   O11 2152   5.375   6.791  10.340  0.4138 -0.3176 -0.5748
   17SAPC    C1 2153   5.348   6.649  10.362  0.1863  0.1842  0.4453
   17SAPC    HA 2154   5.430   6.587  10.320  0.9203  2.7335 -2.0389
   17SAPC    HB 2155   5.335   6.623  10.469  1.3777 -1.2952  0.2388
   17SAPC    C2 2156   5.219   6.607  10.277  0.3831  0.4970 -0.2240
   17SAPC    HS 2157   5.211   6.496  10.280 -1.5492  0.5349 -2.4304
   17SAPC   O21 2158   5.230   6.655  10.147  0.0198  0.0876  0.1705
   17SAPC   C21 2159   5.318   6.604  10.073  0.2086  0.5440  0.0821
   17SAPC   O22 2160   5.377   6.497  10.086 -0.6859  0.5040  0.2407
   17SAPC   C22 2161   5.336   6.697   9.950 -0.0256  0.0677  0.8153
   17SAPC   H2R 2162   5.246   6.691   9.885  0.8498  0.8289 -0.4885
   17SAPC   H2S 2163   5.357   6.798   9.992  2.1642 -0.1584  0.3395
   17SAPC    C3 2164   5.090   6.664  10.334  0.1067 -0.2709  0.3221
   17SAPC    HX 2165   5.094   6.774  10.348 -3.7391  0.2780 -2.2862
   17SAPC    HY 2166   5.082   6.619  10.435  0.1193 -1.6522 -0.2813
   17SAPC   O31 2167   4.973   6.623  10.252  0.1301  0.7085  0.6662
   17SAPC   C31 2168   4.926   6.715  10.178  0.0979 -0.2017  0.1315
   17SAPC   O32 2169   4.964   6.830  10.157 -0.5853  0.1752 -0.4552
   17SAPC   C32 2170   4.816   6.651  10.097 -0.0956  0.5956 -0.1076
   17SAPC   H2X 2171   4.724   6.713  10.090 -0.7227 -0.1169  1.4356
   17SAPC   H2Y 2172   4.785   6.557  10.149 -1.4036  1.4034  0.5818
   17SAPC   C23 2173   5.467   6.672   9.875 -0.2132 -0.1759 -1.3269
   17SAPC   H3R 2174   5.493   6.568   9.847 -0.5244 -0.8851  0.8542
   17SAPC   H3S 2175   5.557   6.688   9.938  0.1659 -1.7112 -1.4542
   17SAPC   C24 2176   5.485   6.759   9.746  0.3695  0.7566  0.2314
   17SAPC   H4R 2177   5.398   6.744   9.678  0.5034 -0.7623  0.3882
   17SAPC   H4S 2178   5.566   6.734   9.674  2.2037  4.0964  1.0306
   17SAPC   C25 2179   5.498   6.898   9.794  1.0325  0.4067 -0.7786
   17SAPC   H5R 2180   5.544   6.897   9.894  1.7404 -0.7920 -1.1118
   17SAPC   C26 2181   5.454   7.019   9.750 -0.4113  0.8310  0.1413
   17SAPC   H6R 2182   5.475   7.108   9.811 -1.0635  2.0905 -1.4173
   17SAPC   C27 2183   5.379   7.042   9.623 -0.1052 -0.1224 -0.4699
   17SAPC   H7R 2184   5.276   7.073   9.653 -0.0976 -1.6327  1.2371
   17SAPC   H7S 2185   5.364   6.943   9.575  1.1513 -0.2447 -0.6147
   17SAPC   C28 2186   5.438   7.135   9.521  0.2930 -0.2047 -0.2692
   17SAPC   H8R 2187   5.507   7.213   9.556  1.4416 -1.3302  0.0028
   17SAPC   C29 2188   5.408   7.142   9.393  0.0931  0.0218 -0.6599
   17SAPC   H9R 2189   5.456   7.220   9.332  2.3959 -0.6190  0.2707
   17SAPC  C210 2190   5.310   7.057   9.324 -0.0462 -0.1183  0.1927
   17SAPC  H10R 2191   5.236   7.117   9.267  0.4463 -1.8478 -2.3324
   17SAPC  H10S 2192   5.255   6.998   9.401  2.0456  1.0919  2.6761
   17SAPC  C211 2193   5.375   6.961   9.225  0.2394  0.3210  0.6856
   17SAPC  H11R 2194   5.440   6.883   9.268 -0.2332  0.2165  1.2216
   17SAPC  C212 2195   5.357   6.971   9.090 -0.0106 -0.1002 -0.3296
   17SAPC  H12R 2196   5.399   6.892   9.025  1.1833 -0.7654  1.2258
   17SAPC  C213 2197   5.281   7.081   9.016 -0.2391 -0.3587  0.0295
   17SAPC  H13R 2198   5.343   7.125   8.935  0.4260 -0.2052  0.6169
   17SAPC  H13S 2199   5.246   7.159   9.087 -2.2978 -0.5990 -0.6901
   17SAPC  C214 2200   5.158   7.010   8.958 -0.0088 -0.3113 -0.5004
   17SAPC  H14R 2201   5.136   6.907   8.990  0.7204 -0.6287 -1.0218
   17SAPC  C215 2202   5.073   7.068   8.878  0.2292  0.0706 -0.2274
   17SAPC  H15R 2203   4.990   7.008   8.838  1.0083 -0.4935 -1.0141
   17SAPC  C216 2204   5.079   7.207   8.833 -0.0197  0.4560  0.1766
   17SAPC  H16R 2205   5.163   7.262   8.880 -0.8933  1.1973  0.9021
   17SAPC  H16S 2206   4.980   7.252   8.857  0.4725  1.9289 -0.5091
   17SAPC  C217 2207   5.093   7.207   8.680 -0.0671 -0.0870  0.2331
   17SAPC  H17R 2208   5.009   7.161   8.624 -1.1978  2.2604 -0.0315
   17SAPC  H17S 2209   5.191   7.158   8.661 -1.1041 -1.2049 -2.4546
   17SAPC  C218 2210   5.098   7.346   8.613 -0.3663 -0.3312 -0.0652
   17SAPC  H18R 2211   5.156   7.420   8.672 -2.3839  2.3911 -1.3788
   17SAPC  H18S 2212   4.997   7.393   8.609 -0.3262 -0.0863  1.3474
   17SAPC  C219 2213   5.163   7.330   8.473  0.2468 -0.3199  0.3167
   17SAPC  H19R 2214   5.116   7.242   8.422 -0.2016  1.0158 -1.6123
   17SAPC  H19S 2215   5.271   7.307   8.484  0.4810  0.2831 -0.6669
   17SAPC  C220 2216   5.145   7.450   8.381  0.0093  0.4017  0.0528
   17SAPC  H20R 2217   5.196   7.421   8.286 -0.0661 -1.0714  0.4525
   17SAPC  H20S 2218   5.197   7.545   8.409  4.2864 -1.4645 -1.1980
   17SAPC  H20T 2219   5.035   7.463   8.376  0.0054  0.3315 -0.0363
   17SAPC   C33 2220   4.855   6.622   9.953  0.7420 -0.1386 -0.0389
   17SAPC   H3X 2221   4.779   6.555   9.905 -1.1684  2.2131 -0.4087
   17SAPC   H3Y 2222   4.954   6.574   9.946 -0.1845 -2.0722 -0.1981
   17SAPC   C34 2223   4.851   6.757   9.870  0.2762 -0.7932  0.2665
   17SAPC   H4X 2224   4.895   6.841   9.928  0.0762 -1.8088  1.8974
   17SAPC   H4Y 2225   4.747   6.786   9.846  1.0308  0.4695 -1.6731
   17SAPC   C35 2226   4.915   6.739   9.729  0.1632 -0.5813  0.0071
   17SAPC   H5X 2227   4.847   6.692   9.655 -0.3247  0.0386  0.0543
   17SAPC   H5Y 2228   5.010   6.681   9.735 -0.7457 -2.2294 -1.0608
   17SAPC   C36 2229   4.956   6.884   9.682  0.2779  0.4131 -0.7585
   17SAPC   H6X 2230   5.021   6.938   9.753  1.9039 -1.5011 -0.7435
   17SAPC   H6Y 2231   4.856   6.933   9.680 -0.5478 -1.2796 -3.8180
   17SAPC   C37 2232   5.002   6.896   9.536 -0.2455 -0.2599  0.6612
   17SAPC   H7X 2233   4.960   6.813   9.476 -1.7029  0.6080  0.4571
   17SAPC   H7Y 2234   5.112   6.876   9.539 -0.3131 -0.9685 -1.0727
   17SAPC   C38 2235   4.969   7.032   9.472 -0.6544  0.1216  0.0016
   17SAPC   H8X 2236   5.056   7.052   9.407  0.2203  1.3884  1.5197
   17SAPC   H8Y 2237   4.956   7.107   9.553 -1.7363 -0.6706  0.5811
   17SAPC   C39 2238   4.849   7.015   9.384 -0.2484  0.7419  0.2485
   17SAPC   H9X 2239   4.761   6.993   9.448  0.4590 -2.1563  0.3176
   17SAPC   H9Y 2240   4.873   6.926   9.322  1.5183  2.6040 -1.7902
   17SAPC  C310 2241   4.826   7.129   9.288 -0.0366  0.7976  0.2211
   17SAPC  H10X 2242   4.919   7.171   9.244 -0.2703  0.0943 -0.9685
   17SAPC  H10Y 2243   4.776   7.209   9.346 -1.8653  0.3519 -0.7024
   17SAPC  C311 2244   4.732   7.088   9.169 -0.0633  0.6491 -0.2491
   17SAPC  H11X 2245   4.633   7.044   9.195 -0.3258  1.4447  0.0949
   17SAPC  H11Y 2246   4.794   7.011   9.118  0.0484  0.5583  0.0209
   17SAPC  C312 2247   4.707   7.193   9.061 -0.2227  0.7321  0.2690
   17SAPC  H12X 2248   4.802   7.202   9.003  0.0215  1.4625  0.7900
   17SAPC  H12Y 2249   4.671   7.289   9.103  0.0897  1.6963 -1.5939
   17SAPC  C313 2250   4.604   7.147   8.957 -0.2589 -0.1391  0.0805
   17SAPC  H13X 2251   4.624   7.039   8.937 -2.4929 -0.4706 -0.4872
   17SAPC  H13Y 2252   4.629   7.189   8.857 -0.9164  0.3161  0.1115
   17SAPC  C314 2253   4.460   7.169   8.986  0.4120 -0.8738  0.2231
   17SAPC  H14X 2254   4.443   7.278   9.003  2.2271 -0.4040 -0.9055
   17SAPC  H14Y 2255   4.429   7.115   9.078 -0.6684  0.7183  0.8160
   17SAPC  C315 2256   4.363   7.122   8.873  0.3743  0.3050 -0.1473
   17SAPC  H15X 2257   4.264   7.092   8.914  0.3613  0.4514 -0.0723
   17SAPC  H15Y 2258   4.397   7.027   8.826  2.3591  1.4078 -0.9956
   17SAPC  C316 2259   4.329   7.230   8.763  0.0779 -0.2946  0.0766
   17SAPC  H16X 2260   4.423   7.270   8.721 -0.0479  0.0787  0.1470
   17SAPC  H16Y 2261   4.276   7.316   8.811  0.3194 -0.3314  0.4148
   17SAPC  C317 2262   4.232   7.181   8.651 -0.2925 -0.7544 -0.5607
   17SAPC  H17X 2263   4.146   7.128   8.697 -0.1182  0.9047  1.7831
   17SAPC  H17Y 2264   4.279   7.103   8.588 -2.3349 -1.2093 -1.5471
   17SAPC  C318 2265   4.190   7.291   8.559 -0.8239  0.3624  0.2939
   17SAPC  H18X 2266   4.269   7.346   8.502 -2.2364  1.8835 -0.2205
   17SAPC  H18Y 2267   4.123   7.250   8.481  1.9762 -0.1137 -1.9561
   17SAPC  H18Z 2268   4.128   7.363   8.616 -0.7796 -1.5069  2.8201
   18SAPC     N 2269   5.749   6.065  10.472  0.7387  0.2412  0.3029
   18SAPC   C12 2270   5.823   6.192  10.442 -0.5832 -0.0431  0.2272
   18SAPC  H12A 2271   5.752   6.273  10.446  1.4935  1.8887 -0.9837
   18SAPC  H12B 2272   5.848   6.188  10.337  1.1902  0.1758  0.6238
   18SAPC   C13 2273   5.695   6.082  10.609 -0.1567 -0.0347 -0.2579
   18SAPC  H13A 2274   5.635   6.172  10.614 -0.9827 -0.5317 -1.0629
   18SAPC  H13B 2275   5.629   6.001  10.634 -0.9054  0.6745  0.0908
   18SAPC  H13C 2276   5.777   6.093  10.678 -0.4262  0.9183 -0.0840
   18SAPC   C14 2277   5.635   6.046  10.380 -0.2084 -0.2527  0.3737
   18SAPC  H14A 2278   5.671   6.036  10.279 -0.4767  0.8925  0.1630
   18SAPC  H14B 2279   5.574   5.963  10.411  0.1542  0.3033  2.6962
   18SAPC  H14C 2280   5.566   6.129  10.387 -0.6340 -0.4114 -1.8387
   18SAPC   C15 2281   5.846   5.951  10.478  0.3963 -0.6888 -0.1940
   18SAPC  H15A 2282   5.899   5.926  10.387  0.0899 -3.8188  0.4522
   18SAPC  H15B 2283   5.922   5.958  10.555 -0.9144  2.2456  0.9075
   18SAPC  H15C 2284   5.780   5.868  10.496 -0.8499  0.2689 -0.2996
   18SAPC   C11 2285   5.941   6.233  10.529 -1.0794 -0.5593 -0.4553
   18SAPC  H11A 2286   5.982   6.326  10.484 -0.8730 -0.4365 -0.0181
   18SAPC  H11B 2287   6.027   6.163  10.530 -2.2075 -1.9950 -2.1228
   18SAPC     P 2288   5.816   6.400  10.690  0.2574  0.0474 -0.3296
   18SAPC   O13 2289   5.669   6.387  10.664  0.0205 -0.1739  0.4365
   18SAPC   O14 2290   5.859   6.453  10.823  0.7328  0.5468 -0.0735
   18SAPC   O12 2291   5.898   6.266  10.658 -0.7472  0.3556  0.3793
   18SAPC   O11 2292   5.868   6.502  10.584 -0.9358 -0.5052  0.1755
   18SAPC    C1 2293   5.987   6.577  10.603 -0.0027 -0.4797 -0.4162
   18SAPC    HA 2294   5.976   6.643  10.692  1.8575 -1.1574  0.3537
   18SAPC    HB 2295   6.071   6.506  10.621  2.2390  1.9473 -0.9423
   18SAPC    C2 2296   6.022   6.661  10.476 -0.3291 -0.1783  0.4083
   18SAPC    HS 2297   5.961   6.753  10.482  0.4567  0.3948 -0.1800
   18SAPC   O21 2298   6.004   6.585  10.355  0.4843 -0.3542  0.4349
   18SAPC   C21 2299   5.986   6.658  10.247  0.3342  0.4757 -0.1440
   18SAPC   O22 2300   5.963   6.780  10.241  0.0069  0.3552 -0.2809
   18SAPC   C22 2301   5.982   6.563  10.133 -0.2422 -0.1544  0.3515
   18SAPC   H2R 2302   6.089   6.539  10.114 -0.0268  0.3516  0.9052
   18SAPC   H2S 2303   5.932   6.469  10.165  1.4589 -0.9827  0.6224
   18SAPC    C3 2304   6.175   6.702  10.509 -0.5446 -0.3680 -0.4858
   18SAPC    HX 2305   6.232   6.608  10.498  1.0592  0.1008  3.1936
   18SAPC    HY 2306   6.184   6.724  10.617  1.9940  1.9625 -1.1131
   18SAPC   O31 2307   6.237   6.801  10.426  0.5904 -0.6536  1.1217
   18SAPC   C31 2308   6.256   6.920  10.466  0.1556  0.6696 -0.2868
   18SAPC   O32 2309   6.222   6.957  10.581  0.2125  0.4055  0.0532
   18SAPC   C32 2310   6.332   6.994  10.360  0.0543  0.1668  0.4115
   18SAPC   H2X 2311   6.437   6.960  10.346  0.1689  0.4017  0.6717
   18SAPC   H2Y 2312   6.346   7.099  10.395  2.4813 -1.0083  3.2616
   18SAPC   C23 2313   5.930   6.626   9.989  0.9070  0.5303 -0.2279
   18SAPC   H3R 2314   5.954   6.734   9.991 -0.5525  0.8533  0.8206
   18SAPC   H3S 2315   5.819   6.635   9.989  0.8133 -0.4448  0.6666
   18SAPC   C24 2316   5.989   6.543   9.873  0.0486  0.0257 -0.5317
   18SAPC   H4R 2317   5.976   6.434   9.892  1.1880 -0.2745 -1.4576
   18SAPC   H4S 2318   6.097   6.565   9.877 -0.0593  0.4667  0.2000
   18SAPC   C25 2319   5.936   6.581   9.739 -0.4281 -0.5474 -0.2112
   18SAPC   H5R 2320   5.958   6.687   9.717  0.8125 -1.0754 -1.5352
   18SAPC   C26 2321   5.869   6.511   9.646  0.4050  0.0762 -0.7911
   18SAPC   H6R 2322   5.827   6.568   9.561 -1.0020  0.7548  0.3421
   18SAPC   C27 2323   5.828   6.371   9.666 -0.4125 -0.3898  0.1329
   18SAPC   H7R 2324   5.919   6.307   9.673 -0.1415  0.0396  0.5434
   18SAPC   H7S 2325   5.778   6.342   9.571 -1.2125  1.0232  0.1103
   18SAPC   C28 2326   5.735   6.340   9.779 -0.5514 -0.4461 -0.4730
   18SAPC   H8R 2327   5.780   6.359   9.878  1.9194  0.7375 -1.7680
   18SAPC   C29 2328   5.605   6.320   9.772 -0.4851  0.2082 -0.0293
   18SAPC   H9R 2329   5.548   6.318   9.866  0.9120 -1.9876  0.7995
   18SAPC  C210 2330   5.526   6.299   9.646  0.0221 -1.0301 -0.4864
   18SAPC  H10R 2331   5.547   6.207   9.588 -0.0367  0.0903 -2.3330
   18SAPC  H10S 2332   5.553   6.386   9.581 -1.1797 -0.3672 -0.1071
   18SAPC  C211 2333   5.378   6.308   9.673 -0.5905  0.8847  0.9162
   18SAPC  H11R 2334   5.333   6.270   9.766  0.3202  0.1550  1.0648
   18SAPC  C212 2335   5.292   6.375   9.593  0.2334 -0.7751 -0.1183
   18SAPC  H12R 2336   5.188   6.365   9.627 -0.0429  0.1987 -0.6548
   18SAPC  C213 2337   5.321   6.440   9.466 -0.1126 -0.0300  0.0822
   18SAPC  H13R 2338   5.327   6.368   9.382 -0.2012 -1.0222  0.9210
   18SAPC  H13S 2339   5.427   6.472   9.464 -1.0059  3.1259  0.8663
   18SAPC  C214 2340   5.245   6.568   9.426 -0.0237 -0.6441  0.7814
   18SAPC  H14R 2341   5.220   6.640   9.506 -2.8126 -0.5634 -0.1027
   18SAPC  C215 2342   5.205   6.604   9.299 -0.0033  0.4383 -0.1605
   18SAPC  H15R 2343   5.148   6.698   9.292 -2.5988 -0.8556  2.4682
   18SAPC  C216 2344   5.243   6.524   9.176 -0.2798  0.6394 -0.3025
   18SAPC  H16R 2345   5.148   6.483   9.134 -0.2146 -0.4357  0.5738
   18SAPC  H16S 2346   5.302   6.431   9.193 -0.0334  1.4052  3.3521
   18SAPC  C217 2347   5.307   6.618   9.069 -0.2964 -0.1729  0.1857
   18SAPC  H17R 2348   5.413   6.643   9.091 -0.4602  0.1576  0.6038
   18SAPC  H17S 2349   5.247   6.711   9.061  2.6610  1.7965  0.1276
   18SAPC  C218 2350   5.307   6.554   8.926 -0.0292 -0.3781  0.4342
   18SAPC  H18R 2351   5.212   6.497   8.916 -0.6806  0.5281  1.3791
   18SAPC  H18S 2352   5.393   6.484   8.917 -0.4035 -0.4553 -3.0129
   18SAPC  C219 2353   5.325   6.665   8.818  0.3006 -0.6589  0.1570
   18SAPC  H19R 2354   5.413   6.732   8.831  0.4021 -1.0054  1.3511
   18SAPC  H19S 2355   5.238   6.734   8.824 -1.0437 -2.0152 -2.8038
   18SAPC  C220 2356   5.338   6.593   8.683 -0.1325 -0.2793  0.4677
   18SAPC  H20R 2357   5.239   6.549   8.659 -0.1165  0.6127 -1.3195
   18SAPC  H20S 2358   5.426   6.526   8.678 -0.2278 -0.3140 -0.8297
   18SAPC  H20T 2359   5.349   6.680   8.615  0.4158 -0.1636  0.7007
   18SAPC   C33 2360   6.261   6.989  10.221  0.2826 -0.2671 -0.1406
   18SAPC   H3X 2361   6.272   7.084  10.163 -2.0150  0.1978  0.1512
   18SAPC   H3Y 2362   6.151   6.977  10.216  0.2415  0.1816 -0.3289
   18SAPC   C34 2363   6.306   6.871  10.133  0.5783 -0.2408 -0.1412
   18SAPC   H4X 2364   6.291   6.779  10.193  0.5184  0.1817  0.4925
   18SAPC   H4Y 2365   6.415   6.877  10.113  0.5375  2.7956  0.3142
   18SAPC   C35 2366   6.241   6.873   9.990 -0.9324 -0.3158 -1.4569
   18SAPC   H5X 2367   6.137   6.834   9.999 -0.8470 -0.2291  0.1116
   18SAPC   H5Y 2368   6.305   6.802   9.934  0.8143  0.5960 -0.6613
   18SAPC   C36 2369   6.248   7.005   9.915 -0.4257  0.1390  0.0877
   18SAPC   H6X 2370   6.349   7.050   9.930  0.9845 -2.7762 -0.1746
   18SAPC   H6Y 2371   6.177   7.080   9.956  0.5430  0.7426  0.6969
   18SAPC   C37 2372   6.228   7.000   9.762 -0.0955  0.0394  0.5179
   18SAPC   H7X 2373   6.253   7.097   9.715  3.3164 -0.8594  0.3262
   18SAPC   H7Y 2374   6.121   6.973   9.749  0.1943 -1.4008  0.9789
   18SAPC   C38 2375   6.307   6.893   9.680 -0.0291  0.6118 -0.5378
   18SAPC   H8X 2376   6.284   6.789   9.712 -3.0695  1.9932  2.0342
   18SAPC   H8Y 2377   6.416   6.916   9.681  0.3266 -0.9963 -1.0158
   18SAPC   C39 2378   6.268   6.882   9.537  0.4412 -0.0062  0.2334
   18SAPC   H9X 2379   6.158   6.896   9.528  0.6121  1.7576  0.8049
   18SAPC   H9Y 2380   6.282   6.784   9.485  0.6849  0.1820 -0.0588
   18SAPC  C310 2381   6.325   6.992   9.444 -0.1132  0.7257 -0.6905
   18SAPC  H10X 2382   6.433   6.988   9.471 -0.5591  1.6012  1.2494
   18SAPC  H10Y 2383   6.282   7.093   9.458  0.0316  0.3989  2.3571
   18SAPC  C311 2384   6.294   6.957   9.297 -1.3294  0.5142 -0.1283
   18SAPC  H11X 2385   6.192   6.916   9.280 -1.0661  0.3045 -1.2571
   18SAPC  H11Y 2386   6.350   6.866   9.268 -2.8131  0.5598 -3.3889
   18SAPC  C312 2387   6.331   7.058   9.180 -0.6071  0.1839  0.1383
   18SAPC  H12X 2388   6.437   7.078   9.204 -0.9282  4.3326 -1.3685
   18SAPC  H12Y 2389   6.277   7.156   9.182  1.1548  1.1684  0.1551
   18SAPC  C313 2390   6.313   6.994   9.043 -0.0957 -0.4450 -0.5563
   18SAPC  H13X 2391   6.389   6.914   9.031 -0.7880 -1.0035 -1.2293
   18SAPC  H13Y 2392   6.333   7.058   8.955 -1.0958  1.6448  0.7019
   18SAPC  C314 2393   6.176   6.932   9.017  0.1696  0.2066 -0.5597
   18SAPC  H14X 2394   6.102   7.014   9.030  0.3524  0.6257 -2.0901
   18SAPC  H14Y 2395   6.164   6.846   9.087 -1.0699 -0.6170 -1.7449
   18SAPC  C315 2396   6.170   6.877   8.872 -0.8165 -0.2206 -0.3360
   18SAPC  H15X 2397   6.273   6.842   8.849 -0.6057 -0.8358  1.4276
   18SAPC  H15Y 2398   6.144   6.962   8.806 -1.2726 -0.4200 -0.4112
   18SAPC  C316 2399   6.063   6.761   8.853  0.3235 -0.5997  0.4592
   18SAPC  H16X 2400   6.092   6.676   8.919 -0.7816 -1.5445 -0.2338
   18SAPC  H16Y 2401   6.086   6.726   8.750  0.9019  0.4053  0.2438
   18SAPC  C317 2402   5.918   6.806   8.865 -0.6256  0.5863 -0.0837
   18SAPC  H17X 2403   5.901   6.899   8.807 -0.0505  0.9277  0.2986
   18SAPC  H17Y 2404   5.882   6.821   8.969  1.2072  3.5770  0.1771
   18SAPC  C318 2405   5.815   6.708   8.801  0.1103  0.6197  0.0553
   18SAPC  H18X 2406   5.712   6.748   8.809  0.5342  2.0859 -1.4238
   18SAPC  H18Y 2407   5.836   6.608   8.845  1.5249  0.6299 -0.5702
   18SAPC  H18Z 2408   5.837   6.697   8.692 -2.1080 -2.4965 -0.1479
   19SAPC     N 2409   3.704   1.875  10.389 -0.2094  0.1079  0.7343
   19SAPC   C12 2410   3.779   1.967  10.489 -0.5209  0.0702  0.4994
   19SAPC  H12A 2411   3.797   1.916  10.582  1.0126  1.2362  0.8743
   19SAPC  H12B 2412   3.720   2.055  10.509 -2.1067 -0.6276 -0.9734
   19SAPC   C13 2413   3.787   1.764  10.340 -0.0937  0.1904 -0.7755
   19SAPC  H13A 2414   3.728   1.691  10.288  0.7418 -0.7786 -0.3792
   19SAPC  H13B 2415   3.865   1.797  10.273 -0.0070 -1.6342 -1.5898
   19SAPC  H13C 2416   3.839   1.721  10.424  0.1209  0.2376 -0.8816
   19SAPC   C14 2417   3.585   1.824  10.467  0.5861  0.0253 -0.3209
   19SAPC  H14A 2418   3.530   1.902  10.517 -1.0128 -1.6781  0.6175
   19SAPC  H14B 2419   3.512   1.773  10.406  0.8517 -1.5927  0.6833
   19SAPC  H14C 2420   3.623   1.758  10.544  1.6976  0.6172 -0.3509
   19SAPC   C15 2421   3.658   1.954  10.273  0.5865  0.2401  0.2230
   19SAPC  H15A 2422   3.593   2.034  10.306  2.1638  0.6561  2.4726
   19SAPC  H15B 2423   3.741   1.986  10.213 -0.2549  1.5044 -0.2945
   19SAPC  H15C 2424   3.597   1.898  10.204 -0.2132 -1.9616  2.6012
   19SAPC   C11 2425   3.920   2.025  10.455 -0.3327  0.1285 -0.4238
   19SAPC  H11A 2426   3.955   2.081  10.544 -1.0485 -0.9136  0.5416
   19SAPC  H11B 2427   3.922   2.095  10.369  2.3290  0.4586 -0.1348
   19SAPC     P 2428   4.095   1.844  10.518 -0.1828 -0.4110  0.2075
   19SAPC   O13 2429   4.043   1.875  10.648 -0.1606  0.1130  0.0804
   19SAPC   O14 2430   4.088   1.704  10.474 -0.1017 -0.1546  0.2580
   19SAPC   O12 2431   4.005   1.928  10.411 -0.0293  0.2199 -0.3415
   19SAPC   O11 2432   4.238   1.909  10.496 -0.1203 -0.0947  0.3668
   19SAPC    C1 2433   4.264   2.047  10.534 -0.1111 -0.1030  0.3324
   19SAPC    HA 2434   4.183   2.079  10.603 -3.9303 -1.5595 -3.2253
   19SAPC    HB 2435   4.360   2.054  10.589 -0.2772  0.0124  0.6077
   19SAPC    C2 2436   4.257   2.146  10.410 -0.3725  0.2360  0.4440
   19SAPC    HS 2437   4.154   2.144  10.368  0.2420 -0.8290 -1.0508
   19SAPC   O21 2438   4.354   2.114  10.317  0.0221 -0.1009  0.8499
   19SAPC   C21 2439   4.327   2.025  10.234  0.0371  0.4967  0.5201
   19SAPC   O22 2440   4.218   1.978  10.198 -0.4817 -0.1775 -0.5411
   19SAPC   C22 2441   4.461   1.995  10.157 -0.5762  0.2403  0.1439
   19SAPC   H2R 2442   4.487   2.085  10.097  0.5058  1.1978  2.0162
   19SAPC   H2S 2443   4.543   1.985  10.231  0.1889 -1.5578 -0.9218
   19SAPC    C3 2444   4.289   2.298  10.444  0.7572 -0.5425  0.2683
   19SAPC    HX 2445   4.398   2.303  10.464  1.0236  1.6665 -1.5388
   19SAPC    HY 2446   4.240   2.328  10.540  2.3553  1.2056  0.5641
   19SAPC   O31 2447   4.256   2.393  10.352 -0.4462  0.3563  0.9280
   19SAPC   C31 2448   4.133   2.407  10.316  0.0119  0.7626  0.5330
   19SAPC   O32 2449   4.034   2.364  10.377 -0.6676  0.3416  0.4033
   19SAPC   C32 2450   4.132   2.498  10.188 -0.0032 -0.3573 -0.1684
   19SAPC   H2X 2451   4.234   2.503  10.145  0.3484  1.9678  0.8356
   19SAPC   H2Y 2452   4.098   2.593  10.234  0.1032 -0.8453  0.9369
   19SAPC   C23 2453   4.462   1.857  10.085 -0.7158  0.3886 -0.6577
   19SAPC   H3R 2454   4.376   1.841  10.017  0.0346 -1.0308 -1.2818
   19SAPC   H3S 2455   4.465   1.773  10.156  1.9468 -0.4780 -1.7341
   19SAPC   C24 2456   4.585   1.831   9.993  0.3627  0.2480  0.2150
   19SAPC   H4R 2457   4.676   1.834  10.056  0.4671 -1.4688  0.1728
   19SAPC   H4S 2458   4.596   1.908   9.914  1.4752 -1.3026 -1.1826
   19SAPC   C25 2459   4.587   1.695   9.930  0.5154  0.5227  0.6189
   19SAPC   H5R 2460   4.638   1.618   9.990 -0.4857  0.4895  1.4492
   19SAPC   C26 2461   4.537   1.670   9.810 -0.1467  0.0745  0.1632
   19SAPC   H6R 2462   4.523   1.565   9.778  0.0636 -0.7512  2.6500
   19SAPC   C27 2463   4.462   1.767   9.724  0.1980  0.3218  0.3683
   19SAPC   H7R 2464   4.533   1.793   9.643  0.1608 -4.5058 -1.3693
   19SAPC   H7S 2465   4.426   1.858   9.778  0.5394 -0.7304  2.3932
   19SAPC   C28 2466   4.342   1.702   9.661  0.4868  0.1511  0.2438
   19SAPC   H8R 2467   4.281   1.638   9.728 -0.8155  0.3127 -0.7816
   19SAPC   C29 2468   4.294   1.735   9.539  0.7355 -0.4428 -0.1151
   19SAPC   H9R 2469   4.203   1.687   9.500 -0.5387 -0.4573  2.7554
   19SAPC  C210 2470   4.346   1.839   9.446  0.3961  0.1259  0.7206
   19SAPC  H10R 2471   4.411   1.913   9.498  0.6152  2.0075 -2.0898
   19SAPC  H10S 2472   4.259   1.889   9.400  0.3405 -0.8886 -0.3070
   19SAPC  C211 2473   4.438   1.775   9.344 -0.2271 -0.5894 -0.0552
   19SAPC  H11R 2474   4.528   1.737   9.394  0.3753  1.2277  0.2759
   19SAPC  C212 2475   4.423   1.764   9.211  0.2836  0.6686 -0.5769
   19SAPC  H12R 2476   4.502   1.725   9.146  0.3323  0.7210 -0.5487
   19SAPC  C213 2477   4.299   1.804   9.130 -0.1897  0.2304  0.8378
   19SAPC  H13R 2478   4.229   1.860   9.195  1.5447  0.2420  2.7455
   19SAPC  H13S 2479   4.251   1.710   9.097 -0.0487  0.5746 -0.3731
   19SAPC  C214 2480   4.323   1.880   8.997 -0.3439  1.0721  0.7616
   19SAPC  H14R 2481   4.410   1.947   8.992  0.3302  0.0949 -0.8786
   19SAPC  C215 2482   4.241   1.870   8.888 -0.7316  0.2782 -0.1229
   19SAPC  H15R 2483   4.264   1.932   8.800 -1.8309  0.6518 -0.1521
   19SAPC  C216 2484   4.112   1.788   8.873 -0.2585 -0.3532  0.3672
   19SAPC  H16R 2485   4.114   1.694   8.932  2.7547 -2.1147 -2.3822
   19SAPC  H16S 2486   4.101   1.771   8.764 -0.9356 -0.0286  0.3804
   19SAPC  C217 2487   3.987   1.868   8.917 -0.6849 -0.2276  0.1630
   19SAPC  H17R 2488   3.966   1.962   8.860 -0.2557  1.2564  2.3717
   19SAPC  H17S 2489   3.997   1.882   9.027 -1.6447 -4.7278  0.8984
   19SAPC  C218 2490   3.853   1.791   8.894  0.3821  0.8928  0.1851
   19SAPC  H18R 2491   3.859   1.692   8.944  0.3448 -0.1927 -1.9032
   19SAPC  H18S 2492   3.829   1.765   8.789  0.0922  0.5729  0.3287
   19SAPC  C219 2493   3.730   1.855   8.942  0.1768 -0.5659  0.0895
   19SAPC  H19R 2494   3.741   1.886   9.048 -0.4549  0.4852 -0.1566
   19SAPC  H19S 2495   3.640   1.792   8.929  0.2827 -0.3296 -1.9962
   19SAPC  C220 2496   3.705   1.991   8.880 -0.8339  0.5036  0.0234
   19SAPC  H20R 2497   3.750   1.997   8.779 -2.6673 -1.8792 -0.9671
   19SAPC  H20S 2498   3.738   2.083   8.934 -2.0316  1.3879 -0.7280
   19SAPC  H20T 2499   3.596   2.012   8.872 -1.1070 -0.5138  1.0063
   19SAPC   C33 2500   4.038   2.442  10.076  0.3808 -1.1360  0.1220
   19SAPC   H3X 2501   4.029   2.508   9.987 -0.5154  0.0561  1.0731
   19SAPC   H3Y 2502   3.934   2.453  10.114  0.2857 -1.0929 -0.1457
   19SAPC   C34 2503   4.056   2.296  10.032 -0.2459 -0.3991  0.2528
   19SAPC   H4X 2504   3.966   2.294   9.966 -0.2779 -1.4571  0.3117
   19SAPC   H4Y 2505   4.045   2.218  10.111 -0.9601 -0.6011 -0.0410
   19SAPC   C35 2506   4.188   2.270   9.958  0.0273  0.4106 -0.4936
   19SAPC   H5X 2507   4.268   2.278  10.034 -0.1960  0.1355 -0.2278
   19SAPC   H5Y 2508   4.213   2.353   9.888 -0.9744  0.2610 -1.0450
   19SAPC   C36 2509   4.189   2.135   9.892 -0.5513 -0.0692 -0.2250
   19SAPC   H6X 2510   4.105   2.131   9.819 -0.2141  2.6538 -0.8215
   19SAPC   H6Y 2511   4.170   2.060   9.972  0.6168 -0.2368 -0.0985
   19SAPC   C37 2512   4.317   2.109   9.815 -0.7858 -0.6889 -0.0235
   19SAPC   H7X 2513   4.308   2.023   9.744  1.4861 -0.9493 -0.0238
   19SAPC   H7Y 2514   4.400   2.083   9.884  1.7236  0.7518 -2.4147
   19SAPC   C38 2515   4.362   2.228   9.723  0.8898  0.4703  0.2242
   19SAPC   H8X 2516   4.452   2.199   9.666  0.9530  0.9279  0.0895
   19SAPC   H8Y 2517   4.381   2.314   9.791 -0.1091 -0.1377  1.3032
   19SAPC   C39 2518   4.253   2.263   9.621  0.3511  0.0366 -0.0845
   19SAPC   H9X 2519   4.172   2.324   9.666  0.6570  1.1395 -1.0051
   19SAPC   H9Y 2520   4.206   2.170   9.581  0.5993  0.1593 -0.6652
   19SAPC  C310 2521   4.304   2.335   9.491 -1.0144  0.4136  0.6707
   19SAPC  H10X 2522   4.412   2.315   9.476 -1.5378 -0.5907 -2.0300
   19SAPC  H10Y 2523   4.299   2.445   9.505  1.5697  0.8006 -1.1224
   19SAPC  C311 2524   4.248   2.276   9.367 -0.5452 -0.4674  0.3171
   19SAPC  H11X 2525   4.137   2.277   9.381 -0.5539  1.2120  0.2464
   19SAPC  H11Y 2526   4.274   2.169   9.375  0.8466 -0.3484 -2.0289
   19SAPC  C312 2527   4.295   2.334   9.236  0.3977  0.2161 -0.7463
   19SAPC  H12X 2528   4.406   2.336   9.241  0.4754 -2.9966 -0.5406
   19SAPC  H12Y 2529   4.270   2.442   9.226 -0.2970  0.6634  4.3892
   19SAPC  C313 2530   4.255   2.246   9.110  0.4324 -0.5628 -0.9811
   19SAPC  H13X 2531   4.195   2.160   9.145 -1.4083  0.1123 -2.4101
   19SAPC  H13Y 2532   4.337   2.204   9.048 -0.2841 -1.5136 -1.2988
   19SAPC  C314 2533   4.159   2.321   9.012  0.7042 -0.8639  0.4144
   19SAPC  H14X 2534   4.199   2.422   8.989 -1.1592  0.4420  2.6959
   19SAPC  H14Y 2535   4.067   2.343   9.071  0.4781 -0.0759 -0.2306
   19SAPC  C315 2536   4.120   2.237   8.887  0.4221 -0.4719  0.2144
   19SAPC  H15X 2537   4.118   2.129   8.912 -1.9051 -0.7596 -1.0830
   19SAPC  H15Y 2538   4.206   2.255   8.819  0.7005  0.4808  0.8023
   19SAPC  C316 2539   3.977   2.284   8.829 -0.3094  0.5799  0.1588
   19SAPC  H16X 2540   3.895   2.271   8.902  0.4048 -0.3739  0.8047
   19SAPC  H16Y 2541   3.954   2.223   8.739 -2.9090  0.8650  0.6189
   19SAPC  C317 2542   3.963   2.433   8.794 -0.0853  0.6955  0.4996
   19SAPC  H17X 2543   3.962   2.491   8.889 -0.1278  0.9933  0.3153
   19SAPC  H17Y 2544   3.868   2.455   8.740  0.9300 -0.5056 -1.8322
   19SAPC  C318 2545   4.079   2.491   8.708  0.2827 -0.4073 -0.1167
   19SAPC  H18X 2546   4.068   2.599   8.684  0.4388 -0.6340 -1.2665
   19SAPC  H18Y 2547   4.076   2.437   8.611 -1.3923 -0.1992 -0.1925
   19SAPC  H18Z 2548   4.173   2.480   8.766  0.1395 -1.6661 -0.1123
   20SAPC     N 2549   4.918   4.384  10.568  0.1761 -0.3851  0.4587
   20SAPC   C12 2550   4.884   4.524  10.529  0.0413 -0.1109  0.0258
   20SAPC  H12A 2551   4.780   4.537  10.555 -0.5230 -2.6660 -0.8778
   20SAPC  H12B 2552   4.902   4.540  10.424  0.9873  0.2956  0.2416
   20SAPC   C13 2553   4.805   4.307  10.507  0.0408  0.5097 -0.0142
   20SAPC  H13A 2554   4.806   4.200  10.526  1.1651  0.7631  1.5529
   20SAPC  H13B 2555   4.710   4.328  10.555 -0.6882  2.0871 -2.1176
   20SAPC  H13C 2556   4.799   4.316  10.400  1.2545 -1.6799 -0.2943
   20SAPC   C14 2557   5.052   4.343  10.524 -0.0828 -0.3135  0.0193
   20SAPC  H14A 2558   5.052   4.350  10.416 -0.2571  1.1840  0.1053
   20SAPC  H14B 2559   5.124   4.409  10.568 -1.0089 -0.0518  1.1710
   20SAPC  H14C 2560   5.079   4.249  10.571 -1.0974  0.2687  1.8389
   20SAPC   C15 2561   4.923   4.366  10.719  0.2024 -1.0813 -0.3256
   20SAPC  H15A 2562   4.835   4.417  10.755 -0.7331 -2.6815 -0.3286
   20SAPC  H15B 2563   4.926   4.261  10.745 -1.9486 -0.5405  2.3614
   20SAPC  H15C 2564   4.998   4.432  10.761 -1.2754  0.3088  0.2120
   20SAPC   C11 2565   4.966   4.645  10.583  0.8018 -0.0519 -0.1811
   20SAPC  H11A 2566   4.933   4.736  10.529  1.7547  2.1025  2.7395
   20SAPC  H11B 2567   5.071   4.625  10.552  1.1918 -1.6137  2.0671
   20SAPC     P 2568   4.825   4.719  10.787  0.3058  0.4576  0.0411
   20SAPC   O13 2569   4.726   4.608  10.790  0.2907 -0.1285  0.3626
   20SAPC   O14 2570   4.858   4.782  10.921 -0.0454 -0.3065 -0.0594
   20SAPC   O12 2571   4.969   4.669  10.726 -0.4982  0.2589  0.0697
   20SAPC   O11 2572   4.789   4.832  10.682 -0.7133 -0.0975  0.0395
   20SAPC    C1 2573   4.775   4.970  10.709 -0.1688  0.1488  0.3474
   20SAPC    HA 2574   4.706   4.986  10.794 -1.2949 -1.8808 -0.1382
   20SAPC    HB 2575   4.877   5.007  10.730  0.0774 -0.3700  0.0995
   20SAPC    C2 2576   4.719   5.052  10.596 -0.2504  0.3789  0.7298
   20SAPC    HS 2577   4.721   5.154  10.641  0.8313  0.3544  0.7457
   20SAPC   O21 2578   4.583   5.009  10.577  0.3359 -0.9674  0.2402
   20SAPC   C21 2579   4.489   5.070  10.635  0.0186  0.1175  0.0829
   20SAPC   O22 2580   4.503   5.165  10.719 -0.3405 -0.0018 -0.2795
   20SAPC   C22 2581   4.355   5.015  10.592  0.4969 -0.1637 -0.4788
   20SAPC   H2R 2582   4.379   4.952  10.504  0.4581  0.3345 -0.8465
   20SAPC   H2S 2583   4.315   4.943  10.667  0.4570  1.5755  1.2036
   20SAPC    C3 2584   4.819   5.043  10.481  0.3715 -0.3031  0.5496
   20SAPC    HX 2585   4.823   4.937  10.448  1.1427 -0.0138 -0.3091
   20SAPC    HY 2586   4.922   5.072  10.512  0.9876 -2.4923  0.6410
   20SAPC   O31 2587   4.775   5.129  10.375 -0.0638  0.2267  0.3974
   20SAPC   C31 2588   4.680   5.080  10.298  0.1659 -0.5975 -0.2151
   20SAPC   O32 2589   4.644   4.966  10.292  0.4313  0.6510  0.0204
   20SAPC   C32 2590   4.634   5.188  10.193  0.1069  0.3294  0.3240
   20SAPC   H2X 2591   4.722   5.250  10.163  1.7528 -0.2362  3.7290
   20SAPC   H2Y 2592   4.576   5.259  10.256 -0.0557  0.0587  0.4831
   20SAPC   C23 2593   4.254   5.120  10.536  0.1195  0.0991 -0.1722
   20SAPC   H3R 2594   4.208   5.188  10.611  0.6223 -0.3839  0.5828
   20SAPC   H3S 2595   4.162   5.067  10.505  0.6136 -0.3074 -0.9600
   20SAPC   C24 2596   4.311   5.212  10.423 -0.4972  0.0396 -0.8048
   20SAPC   H4R 2597   4.342   5.144  10.341  0.5898 -0.2683 -0.1493
   20SAPC   H4S 2598   4.400   5.266  10.464 -1.8375  2.4502 -0.9580
   20SAPC   C25 2599   4.214   5.321  10.367  0.1533 -0.2519  0.2788
   20SAPC   H5R 2600   4.210   5.421  10.415  0.6568  0.6043 -1.4327
   20SAPC   C26 2601   4.147   5.324  10.250  0.0068  0.5279  0.1383
   20SAPC   H6R 2602   4.082   5.407  10.221  1.2805  1.6564  0.5052
   20SAPC   C27 2603   4.159   5.210  10.158 -0.1627  0.1113 -0.1591
   20SAPC   H7R 2604   4.167   5.120  10.222  1.9991  0.0103 -0.5366
   20SAPC   H7S 2605   4.266   5.217  10.132  0.1206 -0.6428  0.7806
   20SAPC   C28 2606   4.057   5.195  10.053 -0.1762  0.4576  0.6006
   20SAPC   H8R 2607   3.959   5.190  10.103 -0.7007 -0.9514 -0.5225
   20SAPC   C29 2608   4.080   5.172   9.917  0.0869  0.8040 -0.4329
   20SAPC   H9R 2609   3.991   5.179   9.854 -1.5022 -1.9380  1.3824
   20SAPC  C210 2610   4.214   5.174   9.842 -0.0868  0.2349  0.0573
   20SAPC  H10R 2611   4.225   5.072   9.799  0.3528  0.2842  0.0526
   20SAPC  H10S 2612   4.306   5.179   9.904 -0.1127 -3.3406  0.4916
   20SAPC  C211 2613   4.227   5.278   9.737  0.7706 -0.0982  0.0898
   20SAPC  H11R 2614   4.197   5.382   9.757 -3.1780 -0.8071 -1.5815
   20SAPC  C212 2615   4.287   5.263   9.618  0.0276  0.5234 -0.2245
   20SAPC  H12R 2616   4.296   5.351   9.554  0.1308  1.3418  0.9029
   20SAPC  C213 2617   4.359   5.142   9.562 -0.0480  0.1150  0.5732
   20SAPC  H13R 2618   4.288   5.067   9.523  3.1666 -0.3541 -4.8482
   20SAPC  H13S 2619   4.405   5.080   9.642 -1.6457  0.6278  1.9362
   20SAPC  C214 2620   4.466   5.172   9.461 -0.2772 -0.0121 -0.0507
   20SAPC  H14R 2621   4.571   5.175   9.492 -0.0948  0.0929 -0.6567
   20SAPC  C215 2622   4.443   5.205   9.330 -0.3715  0.9052 -0.1668
   20SAPC  H15R 2623   4.525   5.223   9.259 -0.3354  1.4493  0.0091
   20SAPC  C216 2624   4.308   5.212   9.260 -0.3611 -0.3984 -0.1045
   20SAPC  H16R 2625   4.283   5.320   9.251 -0.7955 -0.4666  0.2861
   20SAPC  H16S 2626   4.225   5.170   9.321  0.5819 -2.3174 -0.1125
   20SAPC  C217 2627   4.304   5.148   9.118 -0.0999 -0.0758 -0.2461
   20SAPC  H17R 2628   4.306   5.037   9.119 -2.4483 -0.1623 -1.5031
   20SAPC  H17S 2629   4.403   5.175   9.075  0.0216  2.9362  1.7841
   20SAPC  C218 2630   4.196   5.200   9.023  0.6738 -0.4910 -0.0871
   20SAPC  H18R 2631   4.096   5.188   9.071  0.1509  1.5338 -0.6425
   20SAPC  H18S 2632   4.187   5.136   8.933 -0.5845  0.5180 -0.6847
   20SAPC  C219 2633   4.212   5.342   8.961 -0.1299 -0.6236 -0.5616
   20SAPC  H19R 2634   4.283   5.397   9.026 -1.6491 -1.8928  2.2707
   20SAPC  H19S 2635   4.115   5.392   8.980 -0.6133 -1.3148 -1.2045
   20SAPC  C220 2636   4.245   5.358   8.805  0.0830  0.3815 -0.0156
   20SAPC  H20R 2637   4.163   5.314   8.744  1.6712 -0.9852 -1.2397
   20SAPC  H20S 2638   4.338   5.301   8.784  1.2483  1.4785  2.0743
   20SAPC  H20T 2639   4.260   5.466   8.788 -2.4116  0.9364  1.1323
   20SAPC   C33 2640   4.547   5.137  10.075  0.0649 -0.0071 -0.5960
   20SAPC   H3X 2641   4.513   5.230  10.025 -1.4819  1.1269  2.4065
   20SAPC   H3Y 2642   4.447   5.098  10.106  0.1394 -0.9375 -1.5019
   20SAPC   C34 2643   4.609   5.037   9.973 -0.3791 -0.1662 -0.0810
   20SAPC   H4X 2644   4.542   5.019   9.886  1.7391 -0.2155 -1.7461
   20SAPC   H4Y 2645   4.648   4.940  10.011 -0.1445  0.4595  1.3067
   20SAPC   C35 2646   4.741   5.099   9.911 -0.4742  0.3416 -0.3474
   20SAPC   H5X 2647   4.817   5.118   9.990  1.4101 -1.3068 -1.7323
   20SAPC   H5Y 2648   4.711   5.199   9.872  0.0031  0.1996 -1.0748
   20SAPC   C36 2649   4.804   5.005   9.805 -0.1407  0.4037 -0.5927
   20SAPC   H6X 2650   4.826   4.913   9.863  0.1951 -0.2883 -1.7966
   20SAPC   H6Y 2651   4.895   5.056   9.766 -1.0260  1.8268 -0.8562
   20SAPC   C37 2652   4.715   4.978   9.681  0.5048  0.9640  0.1478
   20SAPC   H7X 2653   4.680   5.078   9.647  1.6430  1.3317  0.0419
   20SAPC   H7Y 2654   4.624   4.927   9.718  1.9825 -2.4500 -0.7795
   20SAPC   C38 2655   4.785   4.909   9.562 -0.1410  0.1355  0.0891
   20SAPC   H8X 2656   4.796   4.804   9.597  0.9021  0.7937  1.8067
   20SAPC   H8Y 2657   4.893   4.937   9.557  0.1900 -1.2663 -0.6048
   20SAPC   C39 2658   4.703   4.924   9.438  0.0793 -0.4937 -0.3985
   20SAPC   H9X 2659   4.722   5.025   9.395 -0.9090  1.2240  3.0137
   20SAPC   H9Y 2660   4.595   4.923   9.461 -0.2955  1.5096 -1.9130
   20SAPC  C310 2661   4.720   4.817   9.324  0.4026  0.0709 -0.5326
   20SAPC  H10X 2662   4.634   4.839   9.257  1.5229  0.1571 -1.9694
   20SAPC  H10Y 2663   4.703   4.723   9.381 -3.1821  1.7621  1.3971
   20SAPC  C311 2664   4.843   4.827   9.237 -0.2130  0.8574  0.5009
   20SAPC  H11X 2665   4.921   4.753   9.263  0.2963  1.1322 -0.2338
   20SAPC  H11Y 2666   4.885   4.930   9.240  1.6372  0.0848  1.7253
   20SAPC  C312 2667   4.806   4.809   9.089 -0.9883 -0.7065  0.6837
   20SAPC  H12X 2668   4.730   4.885   9.062  0.4172  0.9666  1.3253
   20SAPC  H12Y 2669   4.746   4.720   9.062 -1.3658 -0.0880 -0.5493
   20SAPC  C313 2670   4.928   4.821   8.998  0.5399  0.1365 -0.2372
   20SAPC  H13X 2671   5.009   4.751   9.029  0.5199  0.8837  1.5537
   20SAPC  H13Y 2672   4.965   4.925   9.003 -0.2564  0.4203 -0.2763
   20SAPC  C314 2673   4.897   4.797   8.850 -0.4500 -0.3313  0.7388
   20SAPC  H14X 2674   4.801   4.849   8.830 -0.6781  0.1042  2.8368
   20SAPC  H14Y 2675   4.877   4.689   8.831 -0.5891  0.3046 -2.9302
   20SAPC  C315 2676   5.011   4.851   8.755  0.0908 -0.0903  0.2989
   20SAPC  H15X 2677   5.108   4.808   8.786 -0.8924 -0.8601  2.3327
   20SAPC  H15Y 2678   5.024   4.961   8.765 -1.3366  0.1885 -0.6094
   20SAPC  C316 2679   4.992   4.815   8.611  0.3515  0.4919  0.7886
   20SAPC  H16X 2680   4.914   4.878   8.564  0.3155 -0.1540 -0.0206
   20SAPC  H16Y 2681   4.968   4.706   8.609  2.6584 -0.0278 -1.2993
   20SAPC  C317 2682   5.116   4.849   8.519  0.6603  0.5797  0.4833
   20SAPC  H17X 2683   5.155   4.943   8.563  2.1636  0.5107 -0.6573
   20SAPC  H17Y 2684   5.086   4.882   8.417  0.8441 -1.0145 -0.0928
   20SAPC  C318 2685   5.218   4.736   8.515  0.2132 -0.2045  0.6922
   20SAPC  H18X 2686   5.312   4.767   8.465 -0.9398  0.8669 -0.8281
   20SAPC  H18Y 2687   5.179   4.652   8.455 -0.3304  2.3440 -2.6494
   20SAPC  H18Z 2688   5.237   4.699   8.618  0.0545  0.0413  0.8108
   21SAPC     N 2689   3.831   4.453  10.734  0.4159  0.3658  0.2411
   21SAPC   C12 2690   3.936   4.570  10.721  0.4636 -0.0130 -0.1022
   21SAPC  H12A 2691   3.893   4.665  10.747 -1.7272 -0.5719 -1.5933
   21SAPC  H12B 2692   3.951   4.576  10.614 -2.2989  0.2921 -0.4972
   21SAPC   C13 2693   3.721   4.474  10.632  0.7814  1.0708  0.6039
   21SAPC  H13A 2694   3.649   4.554  10.642 -1.0470 -0.3844 -0.6275
   21SAPC  H13B 2695   3.770   4.468  10.536 -0.4700  0.7886 -0.0288
   21SAPC  H13C 2696   3.659   4.387  10.642  1.3363  0.5801 -0.1658
   21SAPC   C14 2697   3.899   4.320  10.709  0.5869  0.0317 -0.4639
   21SAPC  H14A 2698   3.914   4.302  10.604 -1.4823 -0.4339 -0.7015
   21SAPC  H14B 2699   3.992   4.306  10.761  0.0603  1.4720  0.8938
   21SAPC  H14C 2700   3.839   4.236  10.741  0.9855  0.6669  2.1218
   21SAPC   C15 2701   3.772   4.450  10.866 -0.3176  0.3894  0.1418
   21SAPC  H15A 2702   3.691   4.380  10.878  0.6843 -0.7324  0.4354
   21SAPC  H15B 2703   3.846   4.417  10.937 -1.1191 -0.3031  0.6517
   21SAPC  H15C 2704   3.736   4.548  10.894  0.0358  0.8977 -1.1123
   21SAPC   C11 2705   4.071   4.554  10.804 -0.1323 -0.0804  0.3763
   21SAPC  H11A 2706   4.049   4.554  10.913 -1.0110 -0.5401  0.1996
   21SAPC  H11B 2707   4.130   4.646  10.784  1.4308 -0.6362  2.2473
   21SAPC     P 2708   4.230   4.436  10.640  0.1742  0.0120 -0.2340
   21SAPC   O13 2709   4.369   4.478  10.681 -1.0058  0.0316 -0.0916
   21SAPC   O14 2710   4.219   4.306  10.578 -0.1959 -0.2917 -0.2546
   21SAPC   O12 2711   4.143   4.436  10.777 -0.1386  0.4665  0.0325
   21SAPC   O11 2712   4.165   4.541  10.544 -0.4057  0.0103 -0.4649
   21SAPC    C1 2713   4.220   4.659  10.486 -0.2653  0.1825  0.3889
   21SAPC    HA 2714   4.182   4.749  10.538 -0.6253  1.9542 -2.8784
   21SAPC    HB 2715   4.330   4.668  10.500  0.2047 -0.7031 -2.5256
   21SAPC    C2 2716   4.203   4.661  10.328 -0.6216  0.4597 -0.6695
   21SAPC    HS 2717   4.092   4.670  10.320 -0.7228 -1.0471 -1.1317
   21SAPC   O21 2718   4.260   4.533  10.277  0.0140 -0.1792 -0.2174
   21SAPC   C21 2719   4.177   4.486  10.190  0.2158  0.3850  0.3906
   21SAPC   O22 2720   4.081   4.541  10.141 -0.0229 -0.1235  0.7502
   21SAPC   C22 2721   4.226   4.346  10.143  0.2482  0.3028 -0.0176
   21SAPC   H2R 2722   4.289   4.292  10.216  1.1999  0.4321 -0.7294
   21SAPC   H2S 2723   4.137   4.281  10.129  0.9893 -0.9490  0.9514
   21SAPC    C3 2724   4.266   4.784  10.260  0.2404  0.3344 -0.0647
   21SAPC    HX 2725   4.376   4.768  10.270  0.3104  0.9903  0.3043
   21SAPC    HY 2726   4.250   4.876  10.321  2.0197  0.1272  0.7632
   21SAPC   O31 2727   4.229   4.805  10.125 -0.6177  0.0429  0.7103
   21SAPC   C31 2728   4.316   4.761  10.029  0.0568 -0.0175  0.4969
   21SAPC   O32 2729   4.411   4.688  10.046  0.4662 -0.3039  0.8889
   21SAPC   C32 2730   4.284   4.835   9.909 -0.2262 -0.0017 -0.7433
   21SAPC   H2X 2731   4.320   4.940   9.923  4.9063 -1.7537  0.1474
   21SAPC   H2Y 2732   4.174   4.830   9.891  0.3184 -2.2122 -3.7901
   21SAPC   C23 2733   4.300   4.355  10.012  0.6606  0.3001 -0.8221
   21SAPC   H3R 2734   4.318   4.253   9.971  0.1982 -0.7001  1.4179
   21SAPC   H3S 2735   4.400   4.399  10.030  1.4779 -0.7386 -2.6565
   21SAPC   C24 2736   4.225   4.440   9.905  0.3162  0.2033 -0.2300
   21SAPC   H4R 2737   4.291   4.442   9.816  0.2475 -0.0983 -0.2866
   21SAPC   H4S 2738   4.218   4.548   9.933 -0.6821  0.1884 -0.4002
   21SAPC   C25 2739   4.090   4.384   9.864 -0.4214  0.1020 -0.5357
   21SAPC   H5R 2740   4.023   4.388   9.952  1.6042  2.3539  0.9995
   21SAPC   C26 2741   4.055   4.328   9.751  0.1773  0.4841 -0.1350
   21SAPC   H6R 2742   3.955   4.283   9.743  0.7340 -0.5154 -1.5549
   21SAPC   C27 2743   4.138   4.316   9.625 -0.6042 -0.0816 -0.4401
   21SAPC   H7R 2744   4.169   4.418   9.594  0.5263 -0.0192  0.8532
   21SAPC   H7S 2745   4.080   4.275   9.540 -1.6245 -0.6640  0.5207
   21SAPC   C28 2746   4.263   4.234   9.656 -0.0338  0.2339  0.4677
   21SAPC   H8R 2747   4.298   4.222   9.760 -0.2139  2.8154  0.8478
   21SAPC   C29 2748   4.339   4.173   9.560  0.7935  0.2128  0.7345
   21SAPC   H9R 2749   4.414   4.102   9.598 -0.5125 -1.9338 -0.6255
   21SAPC  C210 2750   4.320   4.149   9.412 -0.1618  0.0794 -0.2771
   21SAPC  H10R 2751   4.212   4.124   9.401  0.1192 -0.7483 -1.3707
   21SAPC  H10S 2752   4.387   4.063   9.388 -0.3103 -0.3899  0.9854
   21SAPC  C211 2753   4.344   4.277   9.332 -0.8261 -0.4564  0.1801
   21SAPC  H11R 2754   4.366   4.370   9.387  1.5431 -0.0204 -1.4326
   21SAPC  C212 2755   4.325   4.285   9.200  0.1377  0.2461  0.8417
   21SAPC  H12R 2756   4.349   4.382   9.155 -1.6256 -0.3122 -1.3991
   21SAPC  C213 2757   4.286   4.175   9.112  0.1393  0.1542 -0.7646
   21SAPC  H13R 2758   4.176   4.169   9.125  0.4825  0.0999  2.4985
   21SAPC  H13S 2759   4.333   4.083   9.153 -1.0219  0.6221  1.6966
   21SAPC  C214 2760   4.303   4.194   8.963  0.9338  0.6286  0.2613
   21SAPC  H14R 2761   4.283   4.296   8.927  0.8289 -0.1317 -1.9111
   21SAPC  C215 2762   4.330   4.098   8.873  0.0329  0.2011  0.6379
   21SAPC  H15R 2763   4.350   4.129   8.769  1.8158  0.4608  1.0291
   21SAPC  C216 2764   4.355   3.949   8.897 -0.2249  0.0812 -0.1537
   21SAPC  H16R 2765   4.341   3.917   9.003  1.5939  0.2505  0.1476
   21SAPC  H16S 2766   4.461   3.925   8.874  0.2556 -0.2368  2.2673
   21SAPC  C217 2767   4.266   3.857   8.815 -1.0353  0.0394 -0.2116
   21SAPC  H17R 2768   4.267   3.887   8.708 -0.1894  2.8898  0.5534
   21SAPC  H17S 2769   4.163   3.845   8.854 -1.3067 -1.9113 -1.4134
   21SAPC  C218 2770   4.329   3.717   8.800  0.2511 -0.6831 -0.1217
   21SAPC  H18R 2771   4.335   3.671   8.901  3.5774 -2.0843 -0.8812
   21SAPC  H18S 2772   4.430   3.729   8.755 -0.7492  3.9674 -1.4371
   21SAPC  C219 2773   4.229   3.635   8.720 -0.4351  0.4060 -0.2481
   21SAPC  H19R 2774   4.273   3.535   8.705 -0.7756  0.2020  0.0878
   21SAPC  H19S 2775   4.204   3.676   8.620 -1.2189 -0.2046 -0.3155
   21SAPC  C220 2776   4.108   3.597   8.796  0.4906 -0.1648  0.4042
   21SAPC  H20R 2777   4.039   3.684   8.805 -0.0344 -0.5052 -0.2922
   21SAPC  H20S 2778   4.129   3.580   8.904 -0.0915 -0.2090  0.5097
   21SAPC  H20T 2779   4.053   3.513   8.750  2.4633 -0.1408 -2.1179
   21SAPC   C33 2780   4.345   4.775   9.770  0.7583 -0.5394  0.0760
   21SAPC   H3X 2781   4.384   4.672   9.789 -1.7384 -1.3947  0.8462
   21SAPC   H3Y 2782   4.425   4.840   9.731  0.0389  0.3232  0.0227
   21SAPC   C34 2783   4.228   4.753   9.674 -0.7963  0.2440  0.0032
   21SAPC   H4X 2784   4.175   4.849   9.657 -1.1550 -0.4690 -3.3613
   21SAPC   H4Y 2785   4.147   4.689   9.716 -1.6775  2.3094  1.5132
   21SAPC   C35 2786   4.282   4.709   9.542  0.8123 -0.1637  0.1318
   21SAPC   H5X 2787   4.351   4.622   9.553  0.8203 -0.3891 -1.6751
   21SAPC   H5Y 2788   4.338   4.797   9.505 -0.3706 -0.0225 -1.3684
   21SAPC   C36 2789   4.166   4.675   9.445 -0.6231  0.1048 -0.1423
   21SAPC   H6X 2790   4.085   4.751   9.452 -0.3096  0.3104  1.4373
   21SAPC   H6Y 2791   4.120   4.581   9.483 -0.8306  1.1017  2.1743
   21SAPC   C37 2792   4.205   4.639   9.298  0.5161  0.0877 -0.2354
   21SAPC   H7X 2793   4.108   4.632   9.244  0.7077  1.2660 -0.7616
   21SAPC   H7Y 2794   4.238   4.533   9.291 -2.0766 -0.6524 -2.2630
   21SAPC   C38 2795   4.306   4.725   9.225  0.3032 -0.2645 -0.2199
   21SAPC   H8X 2796   4.412   4.697   9.242  0.1379 -1.0137 -0.3902
   21SAPC   H8Y 2797   4.280   4.832   9.242  1.0221 -0.1906  0.4367
   21SAPC   C39 2798   4.293   4.707   9.071 -0.4291 -0.7909 -0.0791
   21SAPC   H9X 2799   4.204   4.754   9.024  1.1409  1.7668 -0.6233
   21SAPC   H9Y 2800   4.295   4.599   9.045 -1.0947 -0.6242 -0.8711
   21SAPC  C310 2801   4.405   4.778   8.997  0.5298  0.3328 -0.2835
   21SAPC  H10X 2802   4.485   4.780   9.073  0.8941  0.8484 -0.6717
   21SAPC  H10Y 2803   4.397   4.888   8.978 -0.1788  0.4849  0.8444
   21SAPC  C311 2804   4.458   4.697   8.872 -0.3152  0.2686 -0.4062
   21SAPC  H11X 2805   4.528   4.760   8.813 -0.1056 -0.7263 -1.2413
   21SAPC  H11Y 2806   4.371   4.673   8.807  0.4149 -2.4209 -0.4164
   21SAPC  C312 2807   4.508   4.554   8.904  0.1661  0.1800  0.9989
   21SAPC  H12X 2808   4.418   4.490   8.900  0.7521 -0.5417 -0.6628
   21SAPC  H12Y 2809   4.560   4.548   9.003 -1.0976 -1.7548  1.5635
   21SAPC  C313 2810   4.604   4.492   8.808 -0.2933  0.0875 -0.0796
   21SAPC  H13X 2811   4.611   4.386   8.842 -1.7624  0.5388  1.6994
   21SAPC  H13Y 2812   4.705   4.538   8.815  0.2487 -1.0024 -0.6178
   21SAPC  C314 2813   4.557   4.489   8.662  0.2975 -0.2391  0.6435
   21SAPC  H14X 2814   4.553   4.594   8.627  1.9266 -1.2644 -2.7956
   21SAPC  H14Y 2815   4.450   4.460   8.659 -0.7315  3.3808 -0.5625
   21SAPC  C315 2816   4.654   4.413   8.568  0.2212  0.0637 -0.0509
   21SAPC  H15X 2817   4.602   4.406   8.470  0.2990  2.9127 -0.3343
   21SAPC  H15Y 2818   4.673   4.311   8.607  1.2329  0.6525  1.0080
   21SAPC  C316 2819   4.791   4.487   8.554  0.8831 -0.0150  0.2686
   21SAPC  H16X 2820   4.825   4.510   8.658 -1.7489 -2.0384  1.6144
   21SAPC  H16Y 2821   4.778   4.578   8.491 -1.2786 -1.0240 -0.7575
   21SAPC  C317 2822   4.888   4.400   8.472 -0.8768 -0.2451  0.6540
   21SAPC  H17X 2823   4.917   4.312   8.533 -2.0209 -1.8894 -1.1285
   21SAPC  H17Y 2824   4.976   4.467   8.462 -0.9291 -0.4189 -1.0213
   21SAPC  C318 2825   4.852   4.360   8.331 -0.6048 -0.1441  0.2140
   21SAPC  H18X 2826   4.766   4.289   8.335 -0.2185 -0.5928  0.6168
   21SAPC  H18Y 2827   4.933   4.309   8.275 -0.3539  2.3829 -1.8341
   21SAPC  H18Z 2828   4.814   4.445   8.270  0.6257  0.9542  0.9393
   22SAPC     N 2829   2.513   2.388  10.917 -0.2781 -0.6003  0.3315
   22SAPC   C12 2830   2.534   2.438  10.776  0.1380  0.2264 -0.0391
   22SAPC  H12A 2831   2.516   2.545  10.770 -2.0919 -0.1159  0.1707
   22SAPC  H12B 2832   2.461   2.384  10.717  0.2865  0.4459 -0.4287
   22SAPC   C13 2833   2.568   2.249  10.936 -0.5332  0.6880 -0.0315
   22SAPC  H13A 2834   2.524   2.204  11.023  1.0742  1.2940  1.1196
   22SAPC  H13B 2835   2.547   2.187  10.850 -0.1744  1.3787 -0.6202
   22SAPC  H13C 2836   2.676   2.252  10.944 -0.4817  0.7919 -0.6919
   22SAPC   C14 2837   2.581   2.475  11.019 -0.1823  0.2446  0.1093
   22SAPC  H14A 2838   2.688   2.464  11.007 -0.3613 -0.6110 -0.7950
   22SAPC  H14B 2839   2.550   2.578  11.012  0.2587  0.5747  2.7302
   22SAPC  H14C 2840   2.560   2.440  11.119 -1.4587  0.3003 -0.1205
   22SAPC   C15 2841   2.368   2.381  10.943 -0.1053  0.1575 -0.6523
   22SAPC  H15A 2842   2.343   2.365  11.046 -0.9117 -1.4448 -1.0796
   22SAPC  H15B 2843   2.325   2.477  10.915  0.2219  0.3853 -0.3766
   22SAPC  H15C 2844   2.319   2.307  10.882  1.1184 -1.7971  0.7055
   22SAPC   C11 2845   2.678   2.408  10.715  0.1463  0.0948  0.3055
   22SAPC  H11A 2846   2.749   2.440  10.794  0.2944  0.2376  0.1162
   22SAPC  H11B 2847   2.687   2.469  10.623 -0.4602  0.4041  0.4534
   22SAPC     P 2848   2.839   2.209  10.681 -0.0987 -0.2956 -0.3461
   22SAPC   O13 2849   2.892   2.202  10.822  0.4745  0.1489  0.2359
   22SAPC   O14 2850   2.817   2.082  10.609  0.4134 -0.0081  0.3736
   22SAPC   O12 2851   2.696   2.268  10.690  0.6205  0.0833 -0.1478
   22SAPC   O11 2852   2.925   2.303  10.595  0.5128 -0.3978 -0.7382
   22SAPC    C1 2853   2.882   2.354  10.466  0.1063  0.5274 -0.6256
   22SAPC    HA 2854   2.780   2.321  10.436 -0.4404  1.7531 -0.1556
   22SAPC    HB 2855   2.884   2.465  10.464 -0.0118  0.4995 -3.2363
   22SAPC    C2 2856   2.986   2.310  10.356  0.4862 -0.2673 -0.6978
   22SAPC    HS 2857   3.008   2.201  10.363 -0.2316 -0.3626  0.1893
   22SAPC   O21 2858   3.097   2.389  10.393  0.8285 -0.0777  0.0529
   22SAPC   C21 2859   3.212   2.336  10.353 -0.3784  0.1863 -0.2894
   22SAPC   O22 2860   3.224   2.218  10.321  0.3236  0.3112 -0.1037
   22SAPC   C22 2861   3.322   2.446  10.343 -0.1535  0.3231  0.4875
   22SAPC   H2R 2862   3.286   2.520  10.269  0.7222 -0.1041 -0.3653
   22SAPC   H2S 2863   3.315   2.507  10.436  1.7038  0.9725  0.2259
   22SAPC    C3 2864   2.928   2.337  10.216 -0.6834 -0.1973 -0.2328
   22SAPC    HX 2865   2.873   2.432  10.227 -0.9210 -0.2039 -1.3849
   22SAPC    HY 2866   2.847   2.267  10.186 -0.9342 -0.2403  0.5364
   22SAPC   O31 2867   3.029   2.352  10.109  0.5961 -0.4517 -0.0774
   22SAPC   C31 2868   3.068   2.241  10.053 -0.6658 -0.4889 -0.4012
   22SAPC   O32 2869   3.033   2.133  10.090  0.4018  0.3896 -0.1733
   22SAPC   C32 2870   3.163   2.259   9.938  0.7360  0.0138  1.1079
   22SAPC   H2X 2871   3.204   2.158   9.920  1.1805  0.1674  1.2426
   22SAPC   H2Y 2872   3.238   2.334   9.970  1.5054 -0.1823 -0.2389
   22SAPC   C23 2873   3.465   2.384  10.317 -0.6844  0.9632 -0.0722
   22SAPC   H3R 2874   3.475   2.295  10.381 -0.7899 -0.2485 -1.7079
   22SAPC   H3S 2875   3.547   2.453  10.346 -3.1380  2.9039  2.5980
   22SAPC   C24 2876   3.484   2.343  10.174  0.7234  0.0959  0.1492
   22SAPC   H4R 2877   3.444   2.427  10.113 -0.1565  0.6804  1.5076
   22SAPC   H4S 2878   3.420   2.254  10.155 -1.7594  1.9493 -0.4186
   22SAPC   C25 2879   3.633   2.303  10.137  0.2199 -0.1366 -0.3869
   22SAPC   H5R 2880   3.715   2.361  10.180  0.9073 -1.9024  0.7527
   22SAPC   C26 2881   3.667   2.206  10.051  0.3729 -0.7897 -0.4983
   22SAPC   H6R 2882   3.775   2.196  10.040  0.5347  0.2485  0.0505
   22SAPC   C27 2883   3.577   2.116   9.967 -0.2930  0.5973 -0.1729
   22SAPC   H7R 2884   3.555   2.173   9.874 -0.0058  0.3667 -0.3830
   22SAPC   H7S 2885   3.479   2.097  10.016 -1.0616  0.8501 -1.5860
   22SAPC   C28 2886   3.626   1.977   9.926  0.0003 -0.2645  0.4716
   22SAPC   H8R 2887   3.712   1.939   9.983  1.6215  0.7024 -1.3041
   22SAPC   C29 2888   3.580   1.904   9.822 -0.4687  0.0307  0.3897
   22SAPC   H9R 2889   3.629   1.808   9.804 -0.1306 -0.0710  1.7903
   22SAPC  C210 2890   3.468   1.941   9.728 -0.4367 -0.8891  0.9023
   22SAPC  H10R 2891   3.401   2.004   9.790 -0.3699  2.0660 -1.9479
   22SAPC  H10S 2892   3.420   1.844   9.703 -0.4586 -0.6153 -0.1266
   22SAPC  C211 2893   3.520   2.023   9.615 -0.7520  0.1390  0.7831
   22SAPC  H11R 2894   3.601   2.095   9.636 -0.3703  0.0127 -0.2119
   22SAPC  C212 2895   3.494   1.998   9.484  0.5770 -0.5907 -0.6098
   22SAPC  H12R 2896   3.531   2.065   9.406  0.6105  2.2036  1.7268
   22SAPC  C213 2897   3.400   1.885   9.435 -0.3931  0.0116 -0.3209
   22SAPC  H13R 2898   3.331   1.936   9.364 -0.8768  1.2627  1.0349
   22SAPC  H13S 2899   3.341   1.844   9.520  0.1301  0.3888  0.2301
   22SAPC  C214 2900   3.481   1.760   9.396 -0.0563  0.1957  0.4489
   22SAPC  H14R 2901   3.560   1.728   9.466  2.0049  0.3092 -1.7482
   22SAPC  C215 2902   3.476   1.708   9.267 -0.2415  0.7686 -0.6883
   22SAPC  H15R 2903   3.540   1.624   9.237 -1.3573 -0.7438  1.1553
   22SAPC  C216 2904   3.392   1.750   9.146  0.5682  0.4363 -0.3156
   22SAPC  H16R 2905   3.449   1.811   9.073  0.1299  0.0171 -1.0120
   22SAPC  H16S 2906   3.308   1.814   9.179 -1.7167 -2.7729  0.3100
   22SAPC  C217 2907   3.321   1.629   9.084  0.7623  0.6622  0.8937
   22SAPC  H17R 2908   3.272   1.566   9.161 -0.0756 -0.6993 -0.7283
   22SAPC  H17S 2909   3.396   1.557   9.045  0.0711  1.2106 -1.5115
   22SAPC  C218 2910   3.220   1.675   8.978  0.6286  0.1224 -0.0885
   22SAPC  H18R 2911   3.290   1.732   8.913 -1.0095  0.3958 -1.6349
   22SAPC  H18S 2912   3.148   1.749   9.019 -0.3377 -1.8982  1.9941
   22SAPC  C219 2913   3.130   1.568   8.920 -0.3337 -0.5096 -0.6640
   22SAPC  H19R 2914   3.079   1.607   8.829 -0.3278  1.3527  0.1139
   22SAPC  H19S 2915   3.063   1.532   9.001 -0.2231  1.6109  0.4042
   22SAPC  C220 2916   3.203   1.448   8.871 -0.4681  0.0936  0.8318
   22SAPC  H20R 2917   3.289   1.403   8.925 -1.4063 -0.6820  1.7174
   22SAPC  H20S 2918   3.221   1.465   8.763  1.0547 -1.6229  0.7967
   22SAPC  H20T 2919   3.117   1.377   8.870 -1.2374  1.0110  0.6192
   22SAPC   C33 2920   3.083   2.318   9.819 -0.6890 -0.2629 -0.1294
   22SAPC   H3X 2921   3.040   2.415   9.852  1.7855  1.4740 -1.8388
   22SAPC   H3Y 2922   3.008   2.243   9.789 -0.5268 -1.0189  1.2837
   22SAPC   C34 2923   3.183   2.334   9.703  0.0681  0.1970  0.5267
   22SAPC   H4X 2924   3.254   2.249   9.707  1.7345  1.6734  2.9397
   22SAPC   H4Y 2925   3.241   2.428   9.712 -0.5498  0.9831 -2.7256
   22SAPC   C35 2926   3.115   2.342   9.564 -0.2896  0.0717  0.2589
   22SAPC   H5X 2927   3.069   2.443   9.557  0.5356  0.2634 -3.5697
   22SAPC   H5Y 2928   3.041   2.260   9.548  0.1406 -0.3176  0.2525
   22SAPC   C36 2929   3.226   2.310   9.455  0.4720 -0.9698  0.2866
   22SAPC   H6X 2930   3.298   2.231   9.486  1.3785 -0.4802 -0.5322
   22SAPC   H6Y 2931   3.284   2.405   9.447  0.8232 -1.1256  0.9633
   22SAPC   C37 2932   3.157   2.289   9.319 -0.3077  0.8320 -0.0513
   22SAPC   H7X 2933   3.102   2.193   9.322 -0.0420  0.6786 -0.0997
   22SAPC   H7Y 2934   3.240   2.283   9.246  1.1623  2.4852  1.4447
   22SAPC   C38 2935   3.058   2.387   9.271 -0.5181 -0.0131 -0.1798
   22SAPC   H8X 2936   3.120   2.475   9.247 -0.1322 -0.4589 -0.8200
   22SAPC   H8Y 2937   2.983   2.406   9.352  2.8544 -1.5880  3.5044
   22SAPC   C39 2938   2.988   2.364   9.137  1.5519  0.4274 -0.1920
   22SAPC   H9X 2939   2.938   2.456   9.099  0.1571 -0.8561 -1.5436
   22SAPC   H9Y 2940   2.913   2.285   9.156  0.8795  0.7254 -1.5538
   22SAPC  C310 2941   3.078   2.310   9.019  0.4599  0.5748 -0.0933
   22SAPC  H10X 2942   3.117   2.209   9.043 -1.4405 -0.3187 -0.6435
   22SAPC  H10Y 2943   3.166   2.376   9.007  1.4417 -0.7130 -0.0762
   22SAPC  C311 2944   3.005   2.294   8.881  0.8182  0.6231  0.3319
   22SAPC  H11X 2945   2.959   2.393   8.860  0.3967  0.5373  0.8287
   22SAPC  H11Y 2946   2.921   2.223   8.903  2.2642 -1.7678 -1.5802
   22SAPC  C312 2947   3.094   2.240   8.766  0.1888 -0.0040  0.0346
   22SAPC  H12X 2948   3.142   2.143   8.792  1.5421  0.1972 -1.5946
   22SAPC  H12Y 2949   3.171   2.319   8.775 -1.2471  1.0410  4.8856
   22SAPC  C313 2950   3.014   2.229   8.641 -0.7242  0.1758  0.1737
   22SAPC  H13X 2951   3.089   2.227   8.559  1.2213 -0.5806  1.9146
   22SAPC  H13Y 2952   2.961   2.323   8.617 -1.9907 -0.1734  1.4909
   22SAPC  C314 2953   2.938   2.100   8.646 -0.3845  0.3969  0.1275
   22SAPC  H14X 2954   2.879   2.093   8.740 -0.2005 -0.3045  0.1962
   22SAPC  H14Y 2955   3.000   2.008   8.639  0.1844  0.7465  0.5485
   22SAPC  C315 2956   2.833   2.102   8.532  0.2782  0.0585 -0.7014
   22SAPC  H15X 2957   2.885   2.130   8.439 -1.4633 -1.7345 -2.2579
   22SAPC  H15Y 2958   2.749   2.171   8.556 -0.0474 -0.5102 -0.1647
   22SAPC  C316 2959   2.768   1.955   8.517 -0.3320  0.3398 -0.5607
   22SAPC  H16X 2960   2.713   1.921   8.608  1.9614 -2.3346 -0.1079
   22SAPC  H16Y 2961   2.856   1.887   8.509 -0.2876  0.5314 -1.7148
   22SAPC  C317 2962   2.694   1.938   8.389 -0.1194  0.2082  0.6379
   22SAPC  H17X 2963   2.754   1.953   8.296 -0.6571 -1.2281  0.0344
   22SAPC  H17Y 2964   2.614   2.014   8.380  0.4958  0.5913 -2.0819
   22SAPC  C318 2965   2.635   1.800   8.372 -1.0060 -0.0028 -0.6121
   22SAPC  H18X 2966   2.556   1.785   8.448 -1.8927  0.8328 -1.3467
   22SAPC  H18Y 2967   2.713   1.727   8.401 -2.0461 -0.3617  1.3896
   22SAPC  H18Z 2968   2.602   1.783   8.267 -1.2379  0.7481 -0.6656
   23SAPC     N 2969   5.459   4.183  10.847 -0.6109 -0.2683  0.9187
   23SAPC   C12 2970   5.429   4.039  10.799 -0.1700 -0.3569 -0.1545
   23SAPC  H12A 2971   5.400   3.984  10.886  0.8325 -1.6987 -0.6485
   23SAPC  H12B 2972   5.524   3.994  10.771  0.9855  2.1977 -0.5012
   23SAPC   C13 2973   5.553   4.249  10.750 -0.6922  0.2001  0.3441
   23SAPC  H13A 2974   5.513   4.266  10.651  0.4763 -0.2867 -0.2204
   23SAPC  H13B 2975   5.576   4.347  10.788  0.0529  0.2256 -0.1657
   23SAPC  H13C 2976   5.647   4.198  10.732  0.1455  1.0246  2.2725
   23SAPC   C14 2977   5.334   4.262  10.863  0.2523 -0.2577 -0.6631
   23SAPC  H14A 2978   5.296   4.235  10.960  0.6118  1.7843  0.0659
   23SAPC  H14B 2979   5.349   4.369  10.870  1.5654 -0.5010  0.5457
   23SAPC  H14C 2980   5.276   4.228  10.778 -0.4662  1.5399 -0.9066
   23SAPC   C15 2981   5.529   4.179  10.982  0.4120  0.2453 -0.5488
   23SAPC  H15A 2982   5.466   4.156  11.067  2.5895 -1.5087  0.6546
   23SAPC  H15B 2983   5.617   4.117  10.993  0.7850  0.9947  0.7465
   23SAPC  H15C 2984   5.573   4.276  10.998  0.6948  0.3773 -2.0547
   23SAPC   C11 2985   5.335   4.021  10.676  1.1348  0.5458  0.3901
   23SAPC  H11A 2986   5.319   3.915  10.645 -2.4509  1.4405 -1.0650
   23SAPC  H11B 2987   5.381   4.074  10.590  0.9026  0.5144  0.2469
   23SAPC     P 2988   5.086   3.982  10.743 -0.1457  0.6426 -0.2797
   23SAPC   O13 2989   5.115   3.912  10.872 -0.3245 -0.0516  0.8352
   23SAPC   O14 2990   4.951   4.047  10.749  0.2353 -0.2205  0.3393
   23SAPC   O12 2991   5.198   4.077  10.692 -0.1945 -0.5995 -0.2306
   23SAPC   O11 2992   5.076   3.880  10.622 -0.1390  0.8170  0.3611
   23SAPC    C1 2993   5.079   3.911  10.480  0.1151 -0.3546 -0.7760
   23SAPC    HA 2994   4.988   3.968  10.453  0.5983  1.0252  0.4355
   23SAPC    HB 2995   5.158   3.988  10.467 -1.0195  1.0855  0.6606
   23SAPC    C2 2996   5.115   3.788  10.393 -0.0176 -0.2890  0.8623
   23SAPC    HS 2997   5.117   3.825  10.288 -1.7270 -1.4745  0.3940
   23SAPC   O21 2998   5.013   3.683  10.408  0.3876 -0.0858 -0.0244
   23SAPC   C21 2999   4.910   3.706  10.322 -0.0766  0.1282  0.0294
   23SAPC   O22 3000   4.883   3.811  10.260 -0.3297  0.1751  0.4229
   23SAPC   C22 3001   4.826   3.583  10.314 -0.2995  0.0624  0.8213
   23SAPC   H2R 3002   4.809   3.537  10.414 -1.3130 -2.2420 -0.3792
   23SAPC   H2S 3003   4.721   3.596  10.279 -0.2495 -0.2638  0.5469
   23SAPC    C3 3004   5.257   3.745  10.440  0.6575  0.1681  0.2016
   23SAPC    HX 3005   5.264   3.697  10.540  2.0871 -2.0984 -0.9512
   23SAPC    HY 3006   5.330   3.828  10.451 -0.3734  1.1092  0.0931
   23SAPC   O31 3007   5.308   3.648  10.347 -0.4251  0.2926 -0.0791
   23SAPC   C31 3008   5.336   3.692  10.218 -0.0571 -0.2476  0.1724
   23SAPC   O32 3009   5.315   3.809  10.185  0.4396 -0.2798  0.3517
   23SAPC   C32 3010   5.389   3.588  10.129  0.4621 -0.0049 -0.3982
   23SAPC   H2X 3011   5.314   3.507  10.123  0.7543 -0.3055 -0.0673
   23SAPC   H2Y 3012   5.473   3.535  10.180  1.0252  0.9826 -0.2821
   23SAPC   C23 3013   4.891   3.477  10.219 -0.5182  0.3033  0.6187
   23SAPC   H3R 3014   4.844   3.377  10.211  0.6437 -0.1313 -1.0690
   23SAPC   H3S 3015   4.997   3.459  10.247  0.1069  3.8322  0.7477
   23SAPC   C24 3016   4.892   3.535  10.068  0.0765 -0.6307 -0.1614
   23SAPC   H4R 3017   4.891   3.646  10.069 -0.7497 -0.5530 -3.5080
   23SAPC   H4S 3018   4.810   3.495  10.005  0.6002 -2.1376  0.1030
   23SAPC   C25 3019   5.025   3.506  10.011 -0.1101 -0.0800  0.2670
   23SAPC   H5R 3020   5.115   3.549  10.057 -0.3444 -0.0763  0.7192
   23SAPC   C26 3021   5.041   3.429   9.895 -0.0520  0.2313 -0.1628
   23SAPC   H6R 3022   5.142   3.427   9.852  0.4117  1.7931  0.8083
   23SAPC   C27 3023   4.938   3.366   9.812  0.0732 -0.1532 -0.6175
   23SAPC   H7R 3024   4.836   3.348   9.854 -0.5313 -0.8341 -2.3194
   23SAPC   H7S 3025   4.971   3.263   9.786 -1.0881 -0.3806 -1.2305
   23SAPC   C28 3026   4.901   3.445   9.686 -0.7550 -0.1863  0.4810
   23SAPC   H8R 3027   4.804   3.497   9.681  0.0800  1.3048 -0.7478
   23SAPC   C29 3028   4.978   3.463   9.576 -0.2884  0.1851 -0.3892
   23SAPC   H9R 3029   4.941   3.522   9.492  2.1844  1.9197 -0.2918
   23SAPC  C210 3030   5.114   3.406   9.556 -0.3259  0.3199  0.5312
   23SAPC  H10R 3031   5.166   3.399   9.654 -0.3621 -0.4822  0.4927
   23SAPC  H10S 3032   5.181   3.475   9.499 -0.4846  0.5217  0.5907
   23SAPC  C211 3033   5.120   3.269   9.505 -0.3081 -0.1371 -0.2931
   23SAPC  H11R 3034   5.102   3.186   9.575  0.1763  0.6023  0.7382
   23SAPC  C212 3035   5.141   3.232   9.373 -0.2217  0.1078 -0.4002
   23SAPC  H12R 3036   5.152   3.124   9.355 -0.3612 -0.0720  0.5641
   23SAPC  C213 3037   5.140   3.321   9.251  0.1239  0.5413 -0.8165
   23SAPC  H13R 3038   5.128   3.426   9.286  0.5378  0.6283 -0.9291
   23SAPC  H13S 3039   5.043   3.305   9.199 -1.8353  1.1211  2.5323
   23SAPC  C214 3040   5.262   3.303   9.165 -0.0318  0.4889  0.2368
   23SAPC  H14R 3041   5.353   3.349   9.205  1.1950  0.4380 -2.3745
   23SAPC  C215 3042   5.275   3.255   9.044 -0.5297  0.4192  0.0317
   23SAPC  H15R 3043   5.373   3.255   8.993 -0.8800  0.7656 -0.6565
   23SAPC  C216 3044   5.163   3.192   8.967 -0.1597 -1.1319  0.4524
   23SAPC  H16R 3045   5.069   3.226   9.014 -0.3915 -0.4071 -0.5174
   23SAPC  H16S 3046   5.160   3.081   8.974  0.2771 -1.1796 -0.1153
   23SAPC  C217 3047   5.172   3.230   8.816 -0.1229  0.0249 -0.2577
   23SAPC  H17R 3048   5.165   3.338   8.790 -1.1773 -0.0187 -0.1946
   23SAPC  H17S 3049   5.083   3.188   8.763  0.3948 -1.4293 -0.0039
   23SAPC  C218 3050   5.289   3.171   8.739  0.6106  0.3278  0.3111
   23SAPC  H18R 3051   5.312   3.071   8.781 -0.0751  0.6619  1.5110
   23SAPC  H18S 3052   5.368   3.248   8.752 -0.4428  1.7065 -1.2787
   23SAPC  C219 3053   5.266   3.148   8.586  0.3284  0.2604 -0.3509
   23SAPC  H19R 3054   5.203   3.231   8.547 -0.2891  0.7434  1.6272
   23SAPC  H19S 3055   5.199   3.063   8.558  0.4716  0.7561 -2.3196
   23SAPC  C220 3056   5.389   3.137   8.499  0.2049  0.3015 -0.2235
   23SAPC  H20R 3057   5.365   3.054   8.429 -0.6255  1.8090 -1.7638
   23SAPC  H20S 3058   5.470   3.104   8.567 -1.4102  0.1913  1.6893
   23SAPC  H20T 3059   5.410   3.239   8.462 -0.9949  1.3192  1.8315
   23SAPC   C33 3060   5.423   3.629   9.984  0.0793  0.0404  0.0783
   23SAPC   H3X 3061   5.510   3.697   9.970 -1.3477  1.4283 -2.3883
   23SAPC   H3Y 3062   5.334   3.681   9.944  0.6721 -0.0854 -1.4594
   23SAPC   C34 3063   5.431   3.501   9.894 -0.0906  0.7005 -0.3754
   23SAPC   H4X 3064   5.329   3.460   9.879  0.0024  0.9611 -1.7617
   23SAPC   H4Y 3065   5.508   3.433   9.936  0.2874  1.6613  0.5140
   23SAPC   C35 3066   5.485   3.545   9.760  0.6272  0.5321  0.7905
   23SAPC   H5X 3067   5.579   3.599   9.785  0.9313  0.8490 -0.9642
   23SAPC   H5Y 3068   5.416   3.622   9.719  0.4197  0.0764  0.2827
   23SAPC   C36 3069   5.509   3.437   9.660 -0.8860 -0.1963 -0.3219
   23SAPC   H6X 3070   5.421   3.370   9.672 -0.3984 -0.5185  1.7201
   23SAPC   H6Y 3071   5.597   3.376   9.692 -0.7796  0.0769 -0.0962
   23SAPC   C37 3072   5.541   3.487   9.521  0.1440  1.4973  0.2277
   23SAPC   H7X 3073   5.623   3.562   9.525  3.9084 -2.4933  3.2114
   23SAPC   H7Y 3074   5.447   3.533   9.484 -0.8468 -1.5314 -1.2211
   23SAPC   C38 3075   5.586   3.374   9.434  0.3039 -0.0103  0.0690
   23SAPC   H8X 3076   5.497   3.313   9.404  1.0568  0.0470 -2.3704
   23SAPC   H8Y 3077   5.656   3.307   9.489  1.7272  2.7396  1.7523
   23SAPC   C39 3078   5.639   3.416   9.298  0.3596  0.4512 -0.5511
   23SAPC   H9X 3079   5.717   3.495   9.299  0.0466  0.7520  1.4027
   23SAPC   H9Y 3080   5.551   3.467   9.253 -0.8570  0.8368  2.1432
   23SAPC  C310 3081   5.665   3.305   9.195 -0.1630 -0.7362 -0.1123
   23SAPC  H10X 3082   5.572   3.251   9.169 -1.5163  0.3176  2.3821
   23SAPC  H10Y 3083   5.724   3.228   9.248 -0.3066  0.1059  1.2740
   23SAPC  C311 3084   5.750   3.345   9.080  0.2852  0.5383 -0.8844
   23SAPC  H11X 3085   5.849   3.381   9.117  1.5305 -1.4965 -2.1712
   23SAPC  H11Y 3086   5.711   3.435   9.027 -2.1035  0.5254  0.7927
   23SAPC  C312 3087   5.757   3.225   8.987  0.2513  0.5408 -0.1033
   23SAPC  H12X 3088   5.665   3.216   8.926  0.4440 -0.2305 -0.2849
   23SAPC  H12Y 3089   5.755   3.127   9.039 -1.9594  1.6131  1.9267
   23SAPC  C313 3090   5.886   3.241   8.904 -0.6623  0.0278 -1.2456
   23SAPC  H13X 3091   5.964   3.219   8.980 -2.3314  0.0481  0.4889
   23SAPC  H13Y 3092   5.889   3.346   8.865 -0.5531  0.7311  0.6343
   23SAPC  C314 3093   5.898   3.148   8.783 -0.4720  0.7554  0.3513
   23SAPC  H14X 3094   5.842   3.056   8.812 -1.4394  0.3455 -2.6507
   23SAPC  H14Y 3095   6.003   3.123   8.755  0.1978  0.9510  2.5866
   23SAPC  C315 3096   5.843   3.197   8.649  0.0867  0.4817  0.4502
   23SAPC  H15X 3097   5.902   3.281   8.607  1.1904 -0.4272  0.1416
   23SAPC  H15Y 3098   5.737   3.229   8.661 -0.2048  0.9826 -2.8826
   23SAPC  C316 3099   5.841   3.088   8.535  0.0851 -0.8429 -0.0706
   23SAPC  H16X 3100   5.788   3.001   8.579 -0.6789 -0.3434  0.0026
   23SAPC  H16Y 3101   5.945   3.062   8.507  0.8800  1.5272  0.5873
   23SAPC  C317 3102   5.785   3.124   8.392 -0.7251 -0.3837 -0.3908
   23SAPC  H17X 3103   5.831   3.217   8.351 -1.2853 -0.2308 -0.6832
   23SAPC  H17Y 3104   5.677   3.148   8.394  0.0473  3.4199  1.6587
   23SAPC  C318 3105   5.799   3.004   8.289 -0.5977  0.0019 -0.4250
   23SAPC  H18X 3106   5.757   3.028   8.189  1.4067 -1.1634 -1.5941
   23SAPC  H18Y 3107   5.748   2.917   8.336  1.0006 -0.9605 -0.4029
   23SAPC  H18Z 3108   5.907   2.977   8.286 -0.7493 -0.7093  0.3083
   24SAPC     N 3109   0.580   4.983  11.326 -0.4006  0.0854 -0.7245
   24SAPC   C12 3110   0.730   4.993  11.328 -0.5385  0.4629 -0.0809
   24SAPC  H12A 3111   0.770   4.963  11.424 -1.5753  1.2834  0.6075
   24SAPC  H12B 3112   0.756   5.096  11.311 -0.0883  0.3859  0.1263
   24SAPC   C13 3113   0.512   5.045  11.208  0.0296  0.2448 -0.6920
   24SAPC  H13A 3114   0.525   5.152  11.213 -0.8703  0.3402 -0.2975
   24SAPC  H13B 3115   0.546   5.006  11.113 -2.0327 -0.5248 -1.1320
   24SAPC  H13C 3116   0.409   5.014  11.219  0.4754 -1.1762 -0.4542
   24SAPC   C14 3117   0.546   4.840  11.337 -0.0685  0.2199  0.2931
   24SAPC  H14A 3118   0.563   4.811  11.440  0.8721  0.0709  0.1078
   24SAPC  H14B 3119   0.444   4.814  11.314  0.3067 -0.1842 -0.9315
   24SAPC  H14C 3120   0.605   4.782  11.267  0.9049  0.0984  1.1968
   24SAPC   C15 3121   0.529   5.049  11.450  0.1777  0.3593  0.1132
   24SAPC  H15A 3122   0.593   5.021  11.533  1.0135  3.1115  0.4489
   24SAPC  H15B 3123   0.529   5.156  11.437  0.9091  0.5596  1.6164
   24SAPC  H15C 3124   0.430   5.023  11.485 -0.2832  0.5545 -1.0523
   24SAPC   C11 3125   0.809   4.911  11.221  0.3517 -0.9469  0.2429
   24SAPC  H11A 3126   0.909   4.957  11.206  0.0264 -0.3320 -0.0403
   24SAPC  H11B 3127   0.755   4.922  11.125  1.8140  0.0182 -0.4897
   24SAPC     P 3128   0.830   4.650  11.176  0.1763  0.1492 -0.5126
   24SAPC   O13 3129   0.915   4.546  11.246 -0.0189  0.1830  0.1069
   24SAPC   O14 3130   0.689   4.620  11.146  0.1738  0.9594 -0.3177
   24SAPC   O12 3131   0.826   4.776  11.272 -0.0276 -0.1732 -0.2481
   24SAPC   O11 3132   0.908   4.702  11.047  0.2346 -1.1481  1.0208
   24SAPC    C1 3133   0.846   4.714  10.924  0.3039 -0.7197 -0.2205
   24SAPC    HA 3134   0.739   4.744  10.937 -0.6063 -3.6820 -0.4812
   24SAPC    HB 3135   0.898   4.790  10.862  0.3823 -1.5995 -1.2516
   24SAPC    C2 3136   0.858   4.587  10.838 -0.2076 -0.8022 -0.3587
   24SAPC    HS 3137   0.847   4.495  10.900  1.1676 -1.0758 -0.5154
   24SAPC   O21 3138   0.986   4.590  10.777 -0.1386 -0.2553  0.1500
   24SAPC   C21 3139   1.036   4.467  10.746 -0.4686 -0.5497 -0.1167
   24SAPC   O22 3140   0.978   4.364  10.764 -0.6880 -0.2827  0.2198
   24SAPC   C22 3141   1.178   4.482  10.698 -0.3720 -0.6043  0.1874
   24SAPC   H2R 3142   1.239   4.461  10.789 -2.4932 -1.9768  1.3315
   24SAPC   H2S 3143   1.206   4.407  10.621 -1.0879 -0.0769 -0.5948
   24SAPC    C3 3144   0.747   4.576  10.728  0.0494 -0.6723  0.1594
   24SAPC    HX 3145   0.643   4.582  10.767 -0.7444  0.4972 -2.0501
   24SAPC    HY 3146   0.757   4.471  10.695 -2.7196 -1.4606  1.6977
   24SAPC   O31 3147   0.759   4.666  10.618 -0.2848 -0.3345 -0.4418
   24SAPC   C31 3148   0.825   4.631  10.501 -0.3162  0.5043  0.2279
   24SAPC   O32 3149   0.874   4.520  10.487  0.0840  0.1993 -0.6173
   24SAPC   C32 3150   0.829   4.746  10.398 -0.2940 -0.0299  1.3184
   24SAPC   H2X 3151   0.889   4.828  10.442 -0.4249 -0.7911  2.9469
   24SAPC   H2Y 3152   0.725   4.781  10.379  0.0033  0.4993  0.6287
   24SAPC   C23 3153   1.217   4.624  10.638  0.0459  0.2044  0.5733
   24SAPC   H3R 3154   1.222   4.696  10.723  1.3862  2.6836 -1.5087
   24SAPC   H3S 3155   1.125   4.656  10.584 -1.0984 -3.6956  0.0589
   24SAPC   C24 3156   1.344   4.615  10.551 -0.5346 -0.3535  0.7993
   24SAPC   H4R 3157   1.366   4.719  10.517 -3.1121  1.9692  5.7143
   24SAPC   H4S 3158   1.308   4.554  10.465  1.3600  1.4579 -1.3442
   24SAPC   C25 3159   1.466   4.542  10.601 -0.5186  0.0633  0.7607
   24SAPC   H5R 3160   1.474   4.543  10.711 -2.2677  0.8825  0.9114
   24SAPC   C26 3161   1.562   4.473  10.539 -0.3139 -0.4809  0.7418
   24SAPC   H6R 3162   1.648   4.431  10.593  1.8904  2.6437 -0.1651
   24SAPC   C27 3163   1.561   4.448  10.388 -0.2037  0.2213  0.0549
   24SAPC   H7R 3164   1.670   4.445  10.364 -0.3541 -1.3218 -0.4901
   24SAPC   H7S 3165   1.525   4.542  10.341  3.0835  1.5851  0.1162
   24SAPC   C28 3166   1.477   4.335  10.338 -0.5856 -0.0381  0.0305
   24SAPC   H8R 3167   1.515   4.233  10.356  0.5397  0.2332 -0.7508
   24SAPC   C29 3168   1.377   4.343  10.247  0.1471  0.3318 -0.0990
   24SAPC   H9R 3169   1.333   4.251  10.204  1.6858 -0.5591  0.2082
   24SAPC  C210 3170   1.327   4.462  10.168  0.2000 -0.5447  0.3577
   24SAPC  H10R 3171   1.388   4.474  10.076  0.5559  0.2919  0.7027
   24SAPC  H10S 3172   1.341   4.560  10.219 -0.9101 -0.8325  1.2207
   24SAPC  C211 3173   1.179   4.433  10.147 -0.6083  0.8558  0.0448
   24SAPC  H11R 3174   1.118   4.418  10.237 -1.4852 -1.9716 -0.9642
   24SAPC  C212 3175   1.112   4.424  10.025 -0.5447 -0.1156  0.2260
   24SAPC  H12R 3176   1.010   4.385  10.016  0.2852 -2.2874 -0.0696
   24SAPC  C213 3177   1.179   4.433   9.891  0.2286 -0.5133 -0.1789
   24SAPC  H13R 3178   1.257   4.512   9.894 -1.0000  0.7778 -1.3486
   24SAPC  H13S 3179   1.110   4.474   9.814  0.6208  2.0615  0.7873
   24SAPC  C214 3180   1.230   4.297   9.853  0.6446 -0.1095  0.4259
   24SAPC  H14R 3181   1.317   4.259   9.908  2.0507 -0.5097 -2.0133
   24SAPC  C215 3182   1.178   4.210   9.763 -0.8726 -0.6093  0.0977
   24SAPC  H15R 3183   1.229   4.114   9.747  0.2042 -0.1964  0.9447
   24SAPC  C216 3184   1.050   4.227   9.691 -0.6344 -0.2042 -0.4967
   24SAPC  H16R 3185   1.004   4.326   9.708  1.6157  0.7406  0.2441
   24SAPC  H16S 3186   0.975   4.156   9.731 -1.8405  0.3102 -1.7832
   24SAPC  C217 3187   1.063   4.201   9.540  1.1434 -0.1049  0.5329
   24SAPC  H17R 3188   1.066   4.091   9.529 -1.3690 -0.3676  2.1353
   24SAPC  H17S 3189   1.159   4.235   9.496  0.6611  0.4912 -0.0796
   24SAPC  C218 3190   0.933   4.248   9.468 -0.3069 -0.7043  0.3047
   24SAPC  H18R 3191   0.853   4.214   9.537 -0.5727  0.4851  0.6016
   24SAPC  H18S 3192   0.912   4.194   9.374 -1.1635  1.5388 -0.8304
   24SAPC  C219 3193   0.924   4.400   9.441 -0.2143 -0.1077  0.4872
   24SAPC  H19R 3194   0.923   4.440   9.545  1.1020 -0.9937  0.8478
   24SAPC  H19S 3195   0.826   4.430   9.398 -1.2246  0.0581  2.8079
   24SAPC  C220 3196   1.032   4.472   9.367 -0.0518  0.6521 -0.0809
   24SAPC  H20R 3197   1.023   4.455   9.257 -2.5100 -2.3897  0.4950
   24SAPC  H20S 3198   1.124   4.423   9.405  0.0983  1.2586  0.3408
   24SAPC  H20T 3199   1.039   4.580   9.390  1.7635  0.5586 -0.1482
   24SAPC   C33 3200   0.894   4.698  10.266 -0.9846  0.4307  0.0711
   24SAPC   H3X 3201   0.855   4.596  10.244  0.8532 -0.3718  0.4061
   24SAPC   H3Y 3202   1.002   4.676  10.277 -1.3456 -2.3587 -1.3710
   24SAPC   C34 3203   0.839   4.783  10.153  0.3638 -0.7494 -0.7095
   24SAPC   H4X 3204   0.915   4.864  10.150  0.9057 -1.2479 -0.5759
   24SAPC   H4Y 3205   0.741   4.834  10.163  0.9217 -0.1429  1.9851
   24SAPC   C35 3206   0.834   4.711  10.011 -0.5733  0.9316  1.0763
   24SAPC   H5X 3207   0.755   4.633  10.017 -0.8448  1.2142  1.1948
   24SAPC   H5Y 3208   0.934   4.664   9.997 -0.9115  1.2720 -2.9139
   24SAPC   C36 3209   0.818   4.806   9.889 -0.7449 -0.3258  0.1962
   24SAPC   H6X 3210   0.909   4.869   9.890 -1.5043  0.7870 -0.5339
   24SAPC   H6Y 3211   0.721   4.857   9.909 -2.0753 -3.1213  1.2871
   24SAPC   C37 3212   0.816   4.735   9.752 -0.7682  0.4854 -0.1341
   24SAPC   H7X 3213   0.766   4.637   9.764 -0.8851  0.6923  1.0503
   24SAPC   H7Y 3214   0.919   4.712   9.718 -1.2187 -1.9227  0.0524
   24SAPC   C38 3215   0.743   4.813   9.639 -0.0132  0.4591 -0.1960
   24SAPC   H8X 3216   0.806   4.905   9.635  1.3500 -0.3554  1.6428
   24SAPC   H8Y 3217   0.636   4.827   9.664 -0.3961 -0.2736 -1.4159
   24SAPC   C39 3218   0.743   4.727   9.516  0.5514  0.0220 -1.0619
   24SAPC   H9X 3219   0.708   4.624   9.540  1.3875  0.1660  0.8607
   24SAPC   H9Y 3220   0.850   4.717   9.491  0.8260 -2.9064  1.0521
   24SAPC  C310 3221   0.666   4.782   9.398  0.0346  0.2411  0.0484
   24SAPC  H10X 3222   0.715   4.875   9.363  2.8145 -0.7152  1.2372
   24SAPC  H10Y 3223   0.560   4.809   9.419 -0.5159 -0.1158 -2.1653
   24SAPC  C311 3224   0.661   4.684   9.284 -0.4485  0.0742 -0.0068
   24SAPC  H11X 3225   0.603   4.594   9.315  2.7550 -1.9700  0.2925
   24SAPC  H11Y 3226   0.759   4.642   9.253  0.0922  0.8957  0.5649
   24SAPC  C312 3227   0.572   4.739   9.170 -0.1225  0.1976  0.0100
   24SAPC  H12X 3228   0.633   4.810   9.111 -2.8503  1.6862 -1.1034
   24SAPC  H12Y 3229   0.490   4.795   9.221  0.7908  0.1575  1.5718
   24SAPC  C313 3230   0.510   4.635   9.073  0.5236 -0.3677  0.0011
   24SAPC  H13X 3231   0.451   4.563   9.134  1.9100 -0.7181  0.9585
   24SAPC  H13Y 3232   0.589   4.579   9.020  0.0355 -1.4175  0.3602
   24SAPC  C314 3233   0.414   4.717   8.985 -0.0239  0.2948 -0.9824
   24SAPC  H14X 3234   0.467   4.802   8.938  0.4208  1.5224  1.6763
   24SAPC  H14Y 3235   0.339   4.758   9.055  1.2856  0.2181  0.4903
   24SAPC  C315 3236   0.329   4.637   8.889 -0.2177  0.4414 -0.0573
   24SAPC  H15X 3237   0.250   4.703   8.847 -1.5336 -0.6473  0.6339
   24SAPC  H15Y 3238   0.276   4.553   8.940 -0.2279 -0.2050 -1.0990
   24SAPC  C316 3239   0.418   4.595   8.768 -0.0211  0.9279  0.4812
   24SAPC  H16X 3240   0.509   4.535   8.786 -1.7243 -1.8608  0.0967
   24SAPC  H16Y 3241   0.446   4.675   8.696 -0.8780 -1.5582 -2.7610
   24SAPC  C317 3242   0.343   4.497   8.671 -0.1591  0.0256 -0.0649
   24SAPC  H17X 3243   0.345   4.396   8.717  4.7094  0.2076  0.3833
   24SAPC  H17Y 3244   0.414   4.485   8.586 -0.5792 -0.3093 -0.3697
   24SAPC  C318 3245   0.211   4.545   8.615 -0.0841 -1.1121 -0.4079
   24SAPC  H18X 3246   0.239   4.634   8.555 -2.2845 -1.3027 -1.7453
   24SAPC  H18Y 3247   0.145   4.572   8.701 -0.5602  2.5892 -1.8343
   24SAPC  H18Z 3248   0.155   4.467   8.559 -2.4023 -1.7908  2.6738
   25SAPC     N 3249   4.589   0.765   6.141 -0.5345  0.5118 -0.3614
   25SAPC   C12 3250   4.670   0.894   6.158  0.0789  0.1174 -1.0506
   25SAPC  H12A 3251   4.661   0.942   6.061  0.4478  3.3801  0.4502
   25SAPC  H12B 3252   4.768   0.870   6.196  0.9635  3.5905 -0.9828
   25SAPC   C13 3253   4.659   0.680   6.037  0.9495 -0.0486  0.4170
   25SAPC  H13A 3254   4.756   0.647   6.071  1.4630 -0.2105 -1.1371
   25SAPC  H13B 3255   4.595   0.602   5.997  1.0169  1.2143 -2.2906
   25SAPC  H13C 3256   4.680   0.745   5.953 -0.3167 -0.8799 -0.5605
   25SAPC   C14 3257   4.585   0.684   6.270  0.2248 -0.8781  0.4772
   25SAPC  H14A 3258   4.552   0.751   6.348 -2.0055  1.8555 -2.6484
   25SAPC  H14B 3259   4.532   0.591   6.255 -1.6550 -0.0920  1.9581
   25SAPC  H14C 3260   4.684   0.657   6.300  0.5609 -0.2491 -0.0473
   25SAPC   C15 3261   4.448   0.793   6.101 -0.3235  0.1118  0.1475
   25SAPC  H15A 3262   4.404   0.867   6.166  1.2848  1.0655  0.1824
   25SAPC  H15B 3263   4.433   0.828   6.000  1.7792 -2.8236 -1.2746
   25SAPC  H15C 3264   4.395   0.699   6.104  2.8818 -1.8174 -0.9840
   25SAPC   C11 3265   4.603   1.006   6.250  0.2146  0.7184 -0.0042
   25SAPC  H11A 3266   4.691   1.065   6.286  2.5299 -2.1209 -0.8188
   25SAPC  H11B 3267   4.546   0.962   6.334 -1.2865 -2.5939 -2.6224
   25SAPC     P 3268   4.377   1.136   6.216 -0.1417  0.1325  0.0649
   25SAPC   O13 3269   4.317   1.208   6.101 -0.0560 -0.2562 -0.7643
   25SAPC   O14 3270   4.303   1.021   6.268  0.1914  0.0690 -0.0422
   25SAPC   O12 3271   4.520   1.091   6.169  0.3958 -0.0950 -0.2926
   25SAPC   O11 3272   4.404   1.235   6.337  0.0138 -0.4070 -0.8847
   25SAPC    C1 3273   4.509   1.331   6.318  0.4429 -0.2008 -0.1722
   25SAPC    HA 3274   4.573   1.318   6.228 -0.0881 -1.4471 -0.3838
   25SAPC    HB 3275   4.465   1.432   6.304  0.6162  0.0671  1.1672
   25SAPC    C2 3276   4.591   1.331   6.449 -0.0865  0.1143  0.3825
   25SAPC    HS 3277   4.669   1.252   6.450 -2.2458 -2.0598  1.3503
   25SAPC   O21 3278   4.493   1.308   6.563 -0.3584 -0.0300 -0.1944
   25SAPC   C21 3279   4.498   1.183   6.613 -0.4792 -0.0593  0.0041
   25SAPC   O22 3280   4.565   1.092   6.566 -0.1203  0.1204  0.8974
   25SAPC   C22 3281   4.387   1.173   6.726  1.1643  0.3912 -0.9424
   25SAPC   H2R 3282   4.368   1.272   6.772 -1.9426  0.7363 -2.8179
   25SAPC   H2S 3283   4.302   1.131   6.668 -0.5595  1.3753  0.8245
   25SAPC    C3 3284   4.656   1.471   6.463  0.6901 -0.0090  0.1579
   25SAPC    HX 3285   4.571   1.540   6.443  1.1706  0.1878 -1.3124
   25SAPC    HY 3286   4.718   1.485   6.372  0.1703  0.2463 -0.1618
   25SAPC   O31 3287   4.710   1.480   6.591 -0.6643  0.6724  0.1571
   25SAPC   C31 3288   4.756   1.600   6.630 -0.1817  0.3273  0.0788
   25SAPC   O32 3289   4.757   1.702   6.564  0.5187 -0.1650  0.4106
   25SAPC   C32 3290   4.810   1.590   6.776 -0.1470 -0.3619 -1.1100
   25SAPC   H2X 3291   4.734   1.641   6.839  0.9204 -0.7627  0.5328
   25SAPC   H2Y 3292   4.907   1.643   6.776  0.4972 -1.4990  0.4055
   25SAPC   C23 3293   4.438   1.068   6.833 -0.1168  0.2230  0.9416
   25SAPC   H3R 3294   4.535   1.105   6.870  0.2140  0.1805  0.1315
   25SAPC   H3S 3295   4.451   0.975   6.773  0.8050  0.5129  0.6982
   25SAPC   C24 3296   4.336   1.037   6.949 -0.7875 -0.5248  0.2873
   25SAPC   H4R 3297   4.378   0.957   7.014 -1.1888 -0.1537  1.0189
   25SAPC   H4S 3298   4.247   0.991   6.901 -1.2141  0.5479  0.0490
   25SAPC   C25 3299   4.295   1.154   7.036 -0.1780  0.2499  0.2510
   25SAPC   H5R 3300   4.245   1.235   6.980  0.4131 -0.3698 -1.1801
   25SAPC   C26 3301   4.313   1.170   7.169 -0.3763  0.0861 -0.2913
   25SAPC   H6R 3302   4.275   1.257   7.224  0.8387  0.3663  0.1182
   25SAPC   C27 3303   4.369   1.071   7.271  0.0969  0.1241 -1.0377
   25SAPC   H7R 3304   4.468   1.029   7.242  1.6019  0.2946  3.3484
   25SAPC   H7S 3305   4.298   0.987   7.279 -0.0290  0.3760  0.8028
   25SAPC   C28 3306   4.382   1.136   7.404 -0.0537  0.5444  0.3708
   25SAPC   H8R 3307   4.459   1.215   7.412  0.8564 -0.1269 -1.4791
   25SAPC   C29 3308   4.307   1.100   7.515 -0.5650 -0.0849  0.2402
   25SAPC   H9R 3309   4.338   1.134   7.615 -1.7907  0.1828  0.5311
   25SAPC  C210 3310   4.201   0.996   7.527 -0.3268 -0.1833 -0.1257
   25SAPC  H10R 3311   4.244   0.908   7.580  1.6886 -0.3625 -1.9892
   25SAPC  H10S 3312   4.177   0.950   7.429 -1.2031  0.0756 -0.0403
   25SAPC  C211 3313   4.086   1.056   7.596 -0.3845  0.3717  0.3150
   25SAPC  H11R 3314   4.088   1.059   7.706  1.0960  0.0845  0.3085
   25SAPC  C212 3315   3.982   1.106   7.528  0.4919 -0.5480 -0.0946
   25SAPC  H12R 3316   3.900   1.153   7.585  1.1938  1.4259 -0.6850
   25SAPC  C213 3317   3.954   1.116   7.384 -0.6673  0.7148  0.6857
   25SAPC  H13R 3318   3.932   1.012   7.352  0.1173  0.7311  0.0900
   25SAPC  H13S 3319   4.041   1.149   7.323  0.9791 -1.0837  2.0093
   25SAPC  C214 3320   3.826   1.189   7.346  1.1300  0.2852  0.7246
   25SAPC  H14R 3321   3.734   1.130   7.346  0.8749  0.6779  1.9209
   25SAPC  C215 3322   3.810   1.318   7.311 -0.4185  0.6531 -0.5610
   25SAPC  H15R 3323   3.711   1.356   7.280 -0.3758  0.9755 -0.2960
   25SAPC  C216 3324   3.931   1.411   7.282  1.4642  0.2941  0.1264
   25SAPC  H16R 3325   4.020   1.371   7.335 -0.0581  0.0096  2.5473
   25SAPC  H16S 3326   3.923   1.509   7.333 -1.6608 -0.0107  0.3516
   25SAPC  C217 3327   3.946   1.426   7.132 -1.1619  0.7364 -0.6280
   25SAPC  H17R 3328   3.979   1.330   7.087  0.1867  1.0227 -0.2556
   25SAPC  H17S 3329   4.034   1.493   7.125 -0.3455 -0.2000  0.6027
   25SAPC  C218 3330   3.822   1.486   7.054 -0.6298 -0.0426  0.8629
   25SAPC  H18R 3331   3.823   1.595   7.074 -2.0821  0.5306 -2.0609
   25SAPC  H18S 3332   3.726   1.444   7.092 -1.8814  0.1384 -1.9932
   25SAPC  C219 3333   3.823   1.458   6.902  0.2854 -0.6140  0.9313
   25SAPC  H19R 3334   3.756   1.525   6.845 -0.0933 -1.7320  0.0477
   25SAPC  H19S 3335   3.795   1.351   6.889 -1.7021  0.0320 -0.2976
   25SAPC  C220 3336   3.969   1.477   6.843 -0.1801  1.4764  0.0656
   25SAPC  H20R 3337   3.967   1.469   6.732 -0.4366 -2.1331  0.2964
   25SAPC  H20S 3338   4.032   1.400   6.892  0.5851  1.4208 -0.9880
   25SAPC  H20T 3339   4.016   1.572   6.877  1.6343  1.3775 -2.0064
   25SAPC   C33 3340   4.831   1.447   6.828 -0.0686  0.0198 -0.6727
   25SAPC   H3X 3341   4.907   1.395   6.766 -0.7279 -1.1333 -0.5334
   25SAPC   H3Y 3342   4.747   1.376   6.811  0.5776 -0.3386 -2.5627
   25SAPC   C34 3343   4.877   1.439   6.974  0.7792  0.0231 -0.2231
   25SAPC   H4X 3344   4.973   1.488   7.001 -0.0003  0.9851  0.8879
   25SAPC   H4Y 3345   4.884   1.332   7.005  0.5879  0.1891  0.4105
   25SAPC   C35 3346   4.779   1.494   7.081  0.3880 -0.3055  1.3453
   25SAPC   H5X 3347   4.698   1.418   7.086  0.1953 -0.1724  0.2663
   25SAPC   H5Y 3348   4.742   1.592   7.043  2.0286  0.6622  2.1677
   25SAPC   C36 3349   4.842   1.522   7.225 -0.2877 -0.7236  0.3664
   25SAPC   H6X 3350   4.914   1.606   7.226 -2.8928  1.6108 -0.0791
   25SAPC   H6Y 3351   4.896   1.435   7.266  0.2690 -1.3301 -1.5907
   25SAPC   C37 3352   4.733   1.551   7.333 -0.1378  0.1013 -0.1706
   25SAPC   H7X 3353   4.657   1.469   7.332 -0.4062  0.3302  0.8647
   25SAPC   H7Y 3354   4.677   1.645   7.318 -0.2031 -0.0172 -0.6719
   25SAPC   C38 3355   4.792   1.561   7.479  0.2182 -0.4781  0.2109
   25SAPC   H8X 3356   4.852   1.654   7.475  1.3889 -1.2783 -2.7888
   25SAPC   H8Y 3357   4.862   1.476   7.493 -2.1689 -2.9307 -2.1540
   25SAPC   C39 3358   4.694   1.564   7.591 -0.0223 -0.9473  0.3872
   25SAPC   H9X 3359   4.609   1.496   7.570  0.3097 -1.3165  0.2485
   25SAPC   H9Y 3360   4.649   1.666   7.599  2.7616  0.3213  0.5783
   25SAPC  C310 3361   4.753   1.531   7.728 -0.2913 -0.6755 -0.4780
   25SAPC  H10X 3362   4.834   1.602   7.756 -0.9176  0.6440 -1.9368
   25SAPC  H10Y 3363   4.803   1.432   7.733 -0.6341 -0.8606 -0.7364
   25SAPC  C311 3364   4.642   1.522   7.844  0.2751  0.6892 -0.3670
   25SAPC  H11X 3365   4.579   1.435   7.815  1.6326 -0.3736 -0.1708
   25SAPC  H11Y 3366   4.576   1.612   7.840 -0.1778  0.3221 -1.4063
   25SAPC  C312 3367   4.698   1.509   7.984 -0.4674 -0.6574  0.9155
   25SAPC  H12X 3368   4.756   1.603   7.996  1.4109 -0.9675 -4.4237
   25SAPC  H12Y 3369   4.778   1.432   7.983  0.6218  0.4739 -0.4887
   25SAPC  C313 3370   4.602   1.498   8.109 -0.3067 -0.1927  0.4831
   25SAPC  H13X 3371   4.539   1.407   8.096 -0.3346 -0.7177  3.9915
   25SAPC  H13Y 3372   4.543   1.591   8.121 -1.9746 -1.5428  3.2701
   25SAPC  C314 3373   4.685   1.481   8.242 -0.1664  0.6688 -0.4147
   25SAPC  H14X 3374   4.790   1.511   8.221 -0.6594  2.2725 -0.6218
   25SAPC  H14Y 3375   4.698   1.373   8.267 -0.6100  0.4594 -1.0741
   25SAPC  C315 3376   4.637   1.565   8.357  0.2499  0.0556 -0.4205
   25SAPC  H15X 3377   4.704   1.535   8.440  0.8478  1.7465 -0.2816
   25SAPC  H15Y 3378   4.529   1.540   8.371  0.9427 -2.6326  0.5413
   25SAPC  C316 3379   4.659   1.715   8.320 -0.1827  0.4749  0.0163
   25SAPC  H16X 3380   4.573   1.742   8.255  0.3799  3.0104  0.3093
   25SAPC  H16Y 3381   4.757   1.733   8.270 -0.1653 -0.2486 -0.2230
   25SAPC  C317 3382   4.667   1.805   8.445 -0.7006 -0.5433 -0.1863
   25SAPC  H17X 3383   4.667   1.906   8.400 -1.9481 -0.8561 -0.9347
   25SAPC  H17Y 3384   4.759   1.784   8.503 -1.0643  0.0432  0.6143
   25SAPC  C318 3385   4.548   1.796   8.534 -0.1937 -0.3750  0.2124
   25SAPC  H18X 3386   4.461   1.833   8.476 -0.7960 -2.6378 -0.3988
   25SAPC  H18Y 3387   4.554   1.852   8.630  4.8008  1.5117 -1.0740
   25SAPC  H18Z 3388   4.526   1.689   8.554 -0.6259 -0.5548 -1.2144
   26SAPC     N 3389   2.585   3.184   6.171 -0.0950 -0.5230  0.4735
   26SAPC   C12 3390   2.668   3.264   6.077  0.3121 -0.1518  0.0793
   26SAPC  H12A 3391   2.637   3.367   6.075  2.1188  0.4045  0.0889
   26SAPC  H12B 3392   2.649   3.226   5.977 -0.2164  0.0285  0.1070
   26SAPC   C13 3393   2.441   3.203   6.155 -0.9395  0.1812  0.4332
   26SAPC  H13A 3394   2.392   3.132   6.219 -1.8914  1.2832  0.9536
   26SAPC  H13B 3395   2.409   3.304   6.176  0.7300  0.9056 -0.3928
   26SAPC  H13C 3396   2.409   3.166   6.059  2.9209  0.9079 -1.2218
   26SAPC   C14 3397   2.615   3.042   6.168  0.6737 -0.1176 -0.3797
   26SAPC  H14A 3398   2.597   2.999   6.071 -0.6800 -0.7167  0.1387
   26SAPC  H14B 3399   2.714   3.024   6.209 -0.1962  1.7137  2.7360
   26SAPC  H14C 3400   2.543   3.000   6.236  2.2939 -0.7348  0.9877
   26SAPC   C15 3401   2.622   3.228   6.311 -0.6854  0.1734 -0.2173
   26SAPC  H15A 3402   2.614   3.333   6.336  0.7082  0.3173 -0.3406
   26SAPC  H15B 3403   2.554   3.177   6.378 -1.1285 -0.1771 -0.9412
   26SAPC  H15C 3404   2.725   3.199   6.331 -0.0747  2.3896  0.0101
   26SAPC   C11 3405   2.820   3.272   6.101 -0.2625 -0.8930  0.3823
   26SAPC  H11A 3406   2.868   3.309   6.009 -1.2811  1.4472  0.7586
   26SAPC  H11B 3407   2.853   3.170   6.131  0.4054 -1.2156 -1.3897
   26SAPC     P 3408   2.972   3.340   6.299  0.1679 -0.0816 -0.1259
   26SAPC   O13 3409   3.084   3.280   6.219  0.6035 -0.1564  0.2803
   26SAPC   O14 3410   3.004   3.467   6.367 -0.0626 -0.4805  0.2176
   26SAPC   O12 3411   2.843   3.356   6.215  0.5601  0.1780 -0.0016
   26SAPC   O11 3412   2.927   3.234   6.418  0.0556 -0.3810  0.3678
   26SAPC    C1 3413   2.967   3.100   6.422  0.0506  0.2853 -0.6274
   26SAPC    HA 3414   2.882   3.039   6.461 -0.4823  0.1505 -1.9564
   26SAPC    HB 3415   2.972   3.056   6.320 -0.1300  0.8150 -0.8663
   26SAPC    C2 3416   3.099   3.078   6.505  0.4346 -0.2891  0.1870
   26SAPC    HS 3417   3.185   3.135   6.464 -1.3831  2.5979  0.2348
   26SAPC   O21 3418   3.128   2.938   6.517 -0.3012  0.1683 -0.1939
   26SAPC   C21 3419   3.167   2.888   6.400 -0.7789 -0.6014  0.2281
   26SAPC   O22 3420   3.178   2.948   6.298 -0.0543 -0.1058  0.5367
   26SAPC   C22 3421   3.205   2.744   6.426 -0.2022 -0.5663 -0.5293
   26SAPC   H2R 3422   3.120   2.701   6.483  0.0006 -1.3225 -0.7808
   26SAPC   H2S 3423   3.213   2.696   6.326 -0.0781 -1.5589 -0.0487
   26SAPC    C3 3424   3.089   3.148   6.640 -0.0755 -0.3152 -0.4564
   26SAPC    HX 3425   3.005   3.098   6.693 -2.0169  2.3857 -0.8415
   26SAPC    HY 3426   3.062   3.255   6.628  0.6800 -0.1474 -0.6757
   26SAPC   O31 3427   3.217   3.146   6.714 -0.0628 -0.5208  0.6416
   26SAPC   C31 3428   3.215   3.185   6.843  0.1184  0.3682 -0.5772
   26SAPC   O32 3429   3.116   3.226   6.905 -0.1286 -0.0213 -0.0123
   26SAPC   C32 3430   3.355   3.181   6.895  0.2048  0.2971  0.3946
   26SAPC   H2X 3431   3.382   3.286   6.870  2.2064 -0.5779 -1.2683
   26SAPC   H2Y 3432   3.417   3.114   6.831 -2.3962 -0.1882 -1.6990
   26SAPC   C23 3433   3.334   2.728   6.503  0.4894  0.8945  0.7461
   26SAPC   H3R 3434   3.394   2.822   6.510  2.1788  0.0343 -1.4206
   26SAPC   H3S 3435   3.396   2.651   6.451  1.6414  3.0919 -1.2553
   26SAPC   C24 3436   3.315   2.669   6.644 -0.0514  0.0017 -0.2407
   26SAPC   H4R 3437   3.414   2.645   6.688 -2.7614 -1.9636  5.1446
   26SAPC   H4S 3438   3.262   2.571   6.644 -0.8751  0.4232  1.0079
   26SAPC   C25 3439   3.254   2.764   6.735 -0.2885 -0.8028 -0.5817
   26SAPC   H5R 3440   3.160   2.802   6.693 -0.3090 -1.2792 -0.9748
   26SAPC   C26 3441   3.294   2.807   6.859  0.4083 -0.0140  0.1099
   26SAPC   H6R 3442   3.245   2.895   6.903  3.8160  1.7049  0.6430
   26SAPC   C27 3443   3.417   2.772   6.935 -0.0734 -0.2519 -0.1111
   26SAPC   H7R 3444   3.445   2.852   7.007 -1.9238  0.3133 -0.0042
   26SAPC   H7S 3445   3.509   2.773   6.872  0.6671  3.1582  0.8950
   26SAPC   C28 3446   3.417   2.647   7.019 -0.2183 -0.0563  0.0232
   26SAPC   H8R 3447   3.485   2.575   6.973 -1.2835 -0.4833 -0.8870
   26SAPC   C29 3448   3.340   2.619   7.124 -0.6853  0.5990 -0.2035
   26SAPC   H9R 3449   3.352   2.526   7.181  0.9643  0.5090 -0.6616
   26SAPC  C210 3450   3.257   2.722   7.187 -0.4680 -0.4607  0.1940
   26SAPC  H10R 3451   3.164   2.677   7.228  0.8775 -2.7570  0.8030
   26SAPC  H10S 3452   3.225   2.798   7.113  2.1835 -0.9561 -1.5256
   26SAPC  C211 3453   3.338   2.780   7.299  0.0829 -1.3407  0.2787
   26SAPC  H11R 3454   3.437   2.814   7.264  0.7642 -0.6262  2.7627
   26SAPC  C212 3455   3.297   2.808   7.427  0.1419 -0.4532 -0.3072
   26SAPC  H12R 3456   3.372   2.854   7.493 -1.0653  1.7892 -0.4286
   26SAPC  C213 3457   3.171   2.772   7.487 -0.0770 -0.5058  0.1189
   26SAPC  H13R 3458   3.187   2.674   7.537 -0.8885 -0.0372  1.3048
   26SAPC  H13S 3459   3.092   2.761   7.410  0.7607  2.9037 -1.3184
   26SAPC  C214 3460   3.130   2.871   7.591  1.2829  0.2282 -0.2911
   26SAPC  H14R 3461   3.057   2.943   7.550 -1.2265 -2.1652 -0.2227
   26SAPC  C215 3462   3.165   2.885   7.723 -0.0367 -0.4761 -0.0718
   26SAPC  H15R 3463   3.118   2.970   7.775 -1.1430 -1.4847  0.5789
   26SAPC  C216 3464   3.271   2.805   7.792 -0.7853  0.1913 -0.5434
   26SAPC  H16R 3465   3.340   2.866   7.853 -3.6216  1.0691  1.9506
   26SAPC  H16S 3466   3.337   2.774   7.709 -0.8254 -0.9446 -0.1618
   26SAPC  C217 3467   3.218   2.695   7.890  0.5417 -0.0630 -0.3513
   26SAPC  H17R 3468   3.309   2.633   7.905  0.4739  0.0060  0.3489
   26SAPC  H17S 3469   3.139   2.644   7.831  0.5351 -1.3008  0.7055
   26SAPC  C218 3470   3.167   2.748   8.021  0.0095 -0.1768 -0.3472
   26SAPC  H18R 3471   3.094   2.830   8.003  0.9762  0.7871  0.0888
   26SAPC  H18S 3472   3.245   2.784   8.091 -0.7309  1.4204 -0.3182
   26SAPC  C219 3473   3.100   2.630   8.094 -0.9378 -0.4030 -0.0251
   26SAPC  H19R 3474   3.011   2.605   8.033  0.4117 -0.5150 -2.0118
   26SAPC  H19S 3475   3.071   2.666   8.195 -1.7297  1.4963 -0.9111
   26SAPC  C220 3476   3.195   2.506   8.110 -0.0025  0.2332 -0.2845
   26SAPC  H20R 3477   3.300   2.532   8.134  0.5441 -1.1806 -1.0852
   26SAPC  H20S 3478   3.206   2.437   8.023 -1.2304  0.8612 -0.9523
   26SAPC  H20T 3479   3.159   2.433   8.186 -0.7551 -1.0198 -1.8129
   26SAPC   C33 3480   3.368   3.140   7.039 -0.2561 -0.2127  0.4440
   26SAPC   H3X 3481   3.470   3.097   7.052  0.4115  1.8135  2.1819
   26SAPC   H3Y 3482   3.306   3.050   7.060 -2.1319  0.8021 -0.5486
   26SAPC   C34 3483   3.339   3.264   7.122 -0.2029  0.0976  0.3426
   26SAPC   H4X 3484   3.259   3.323   7.073 -1.2753  0.2158  2.1938
   26SAPC   H4Y 3485   3.425   3.333   7.131  0.5357 -1.0184  1.9713
   26SAPC   C35 3486   3.299   3.229   7.270 -0.3740 -0.4387  0.8524
   26SAPC   H5X 3487   3.239   3.136   7.276 -1.1357  0.0421  0.7477
   26SAPC   H5Y 3488   3.246   3.314   7.319 -0.9528  0.1077 -0.6968
   26SAPC   C36 3489   3.418   3.207   7.361 -0.2435  0.4663 -0.2153
   26SAPC   H6X 3490   3.502   3.277   7.343  1.8541 -1.2355  2.4871
   26SAPC   H6Y 3491   3.464   3.107   7.344 -0.1540  0.4742 -0.0246
   26SAPC   C37 3492   3.380   3.197   7.507  0.1648  0.5375  0.7431
   26SAPC   H7X 3493   3.310   3.111   7.512  1.1844 -0.2749  1.2508
   26SAPC   H7Y 3494   3.319   3.284   7.540 -1.6074 -0.5240  0.3170
   26SAPC   C38 3495   3.496   3.162   7.601 -0.3158  0.2980  0.4028
   26SAPC   H8X 3496   3.581   3.231   7.584  0.0943 -0.6652 -1.6271
   26SAPC   H8Y 3497   3.526   3.058   7.574 -2.9105 -0.5350  0.5853
   26SAPC   C39 3498   3.452   3.168   7.746  0.0878  0.4940  0.0502
   26SAPC   H9X 3499   3.365   3.100   7.758  1.5126 -1.2583  0.6864
   26SAPC   H9Y 3500   3.431   3.275   7.763 -1.6207  0.2018 -0.1128
   26SAPC  C310 3501   3.559   3.124   7.853  0.0928  0.1045 -0.0331
   26SAPC  H10X 3502   3.649   3.188   7.851 -1.0757  1.7572 -2.2807
   26SAPC  H10Y 3503   3.588   3.017   7.849  0.2752  0.1607 -0.1803
   26SAPC  C311 3504   3.492   3.149   7.987 -0.6257 -0.1078  0.6803
   26SAPC  H11X 3505   3.399   3.090   7.983 -0.4867 -0.4062  1.8190
   26SAPC  H11Y 3506   3.475   3.259   7.987 -1.9289 -0.1984 -4.0039
   26SAPC  C312 3507   3.582   3.115   8.108  0.6121  0.3140  0.4668
   26SAPC  H12X 3508   3.654   3.199   8.108  1.5112 -0.4325 -1.3537
   26SAPC  H12Y 3509   3.641   3.024   8.086 -0.2765 -0.2522  0.4104
   26SAPC  C313 3510   3.511   3.103   8.242 -0.8758 -0.0916 -0.3525
   26SAPC  H13X 3511   3.431   3.026   8.242 -0.0981 -0.8938 -0.6746
   26SAPC  H13Y 3512   3.460   3.197   8.272  0.8184 -0.1456  2.9757
   26SAPC  C314 3513   3.607   3.062   8.352 -0.2653  0.3242  0.0898
   26SAPC  H14X 3514   3.645   2.960   8.328  0.9395  0.2915  2.0404
   26SAPC  H14Y 3515   3.562   3.050   8.453 -0.4183  1.2435  0.1327
   26SAPC  C315 3516   3.721   3.166   8.370 -0.4667 -0.6510  0.0536
   26SAPC  H15X 3517   3.675   3.267   8.373 -0.1663 -0.5683  3.0412
   26SAPC  H15Y 3518   3.783   3.158   8.279  2.3047  1.4765  1.6877
   26SAPC  C316 3519   3.808   3.149   8.496  0.4093 -0.1085  0.4623
   26SAPC  H16X 3520   3.854   3.049   8.508  0.8460  0.2181  1.6213
   26SAPC  H16Y 3521   3.732   3.152   8.577  0.1057  0.1197  0.1684
   26SAPC  C317 3522   3.921   3.251   8.513 -0.0139 -0.1118 -0.0061
   26SAPC  H17X 3523   3.894   3.316   8.599 -0.2663  1.3760 -1.1853
   26SAPC  H17Y 3524   3.924   3.303   8.415  2.7040 -0.0849  0.0481
   26SAPC  C318 3525   4.060   3.195   8.550  0.2894  0.2612  0.0755
   26SAPC  H18X 3526   4.107   3.161   8.455  1.7125  0.7519  0.5913
   26SAPC  H18Y 3527   4.059   3.114   8.627 -3.0197 -0.8513 -1.0501
   26SAPC  H18Z 3528   4.133   3.274   8.579  0.1489  0.7756 -0.9713
   27SAPC     N 3529   1.227   4.196   6.622  0.3491 -0.0306 -0.5576
   27SAPC   C12 3530   1.334   4.273   6.693 -1.1067 -0.3937  0.0031
   27SAPC  H12A 3531   1.291   4.355   6.749 -2.1682 -1.0223  0.1188
   27SAPC  H12B 3532   1.395   4.328   6.622 -0.7211  0.3453  0.8947
   27SAPC   C13 3533   1.288   4.092   6.532 -0.0851  0.2700  0.0240
   27SAPC  H13A 3534   1.372   4.042   6.577 -0.4205 -2.2117 -1.9844
   27SAPC  H13B 3535   1.214   4.015   6.513  0.6233 -0.7715  1.4176
   27SAPC  H13C 3536   1.323   4.138   6.441 -0.2159  0.0504 -0.1390
   27SAPC   C14 3537   1.138   4.116   6.710 -0.0950  0.6695  0.1059
   27SAPC  H14A 3538   1.080   4.178   6.776  0.0732  1.2568 -0.3029
   27SAPC  H14B 3539   1.078   4.044   6.655 -3.2299  2.2350  1.3490
   27SAPC  H14C 3540   1.203   4.054   6.770  0.0709 -2.1111 -2.7994
   27SAPC   C15 3541   1.137   4.279   6.534 -0.2272  0.1105 -0.3214
   27SAPC  H15A 3542   1.097   4.365   6.587 -1.3159  0.2490 -1.3345
   27SAPC  H15B 3543   1.190   4.324   6.452  1.8394  0.8735  1.3929
   27SAPC  H15C 3544   1.052   4.231   6.488 -0.8873  1.0197 -0.0614
   27SAPC   C11 3545   1.428   4.194   6.787 -0.5047 -0.3379 -0.8787
   27SAPC  H11A 3546   1.368   4.164   6.876  0.6863 -2.8066 -0.8735
   27SAPC  H11B 3547   1.495   4.267   6.838 -1.2435  0.4296 -0.9791
   27SAPC     P 3548   1.553   3.974   6.833 -0.1472 -0.3006  0.2578
   27SAPC   O13 3549   1.645   3.883   6.758  0.3383  0.3597  0.1296
   27SAPC   O14 3550   1.593   4.038   6.960  0.0038 -0.0309 -0.4416
   27SAPC   O12 3551   1.505   4.091   6.734  0.1312  0.5775  0.4209
   27SAPC   O11 3552   1.421   3.889   6.861  0.3934 -0.3834  0.7410
   27SAPC    C1 3553   1.384   3.770   6.801  0.6698 -0.3798 -0.3319
   27SAPC    HA 3554   1.284   3.785   6.755  1.3702  1.5765 -1.3049
   27SAPC    HB 3555   1.458   3.729   6.729 -0.2083 -0.3367 -1.2825
   27SAPC    C2 3556   1.353   3.676   6.924  0.1117 -0.1567  0.1579
   27SAPC    HS 3557   1.331   3.575   6.882 -0.1946  1.0308 -2.5992
   27SAPC   O21 3558   1.248   3.718   7.016 -0.2060  0.3402 -0.5116
   27SAPC   C21 3559   1.121   3.738   6.970  0.3208 -0.2893  1.0764
   27SAPC   O22 3560   1.089   3.703   6.856  0.0417  0.0878 -0.4742
   27SAPC   C22 3561   1.035   3.810   7.077 -0.9524 -0.0872 -0.0979
   27SAPC   H2R 3562   1.079   3.910   7.095 -0.8822  0.5442 -3.5769
   27SAPC   H2S 3563   0.938   3.824   7.024  0.7527 -0.2786 -3.3653
   27SAPC    C3 3564   1.488   3.668   7.003 -0.2083  0.6384  0.0819
   27SAPC    HX 3565   1.519   3.766   7.046  1.4433 -1.0205  2.8438
   27SAPC    HY 3566   1.571   3.633   6.938 -1.9379 -1.3181 -1.1338
   27SAPC   O31 3567   1.482   3.578   7.120  0.4118 -0.0576  0.9374
   27SAPC   C31 3568   1.493   3.448   7.094  0.2090  0.1460 -0.0512
   27SAPC   O32 3569   1.500   3.387   6.990 -0.1689 -0.0596  0.4621
   27SAPC   C32 3570   1.458   3.382   7.227  0.5749  0.0859 -0.5007
   27SAPC   H2X 3571   1.351   3.409   7.242  0.5072  1.1120 -2.7386
   27SAPC   H2Y 3572   1.528   3.433   7.297 -0.3109  2.3605 -1.2296
   27SAPC   C23 3573   1.027   3.724   7.206 -0.7274 -0.2209  0.2945
   27SAPC   H3R 3574   0.990   3.789   7.288 -1.3253  0.6061 -0.6094
   27SAPC   H3S 3575   1.127   3.690   7.239 -0.0262  1.6364  0.1746
   27SAPC   C24 3576   0.944   3.592   7.199 -0.1079 -0.5636 -0.2348
   27SAPC   H4R 3577   0.970   3.521   7.117  0.2387 -0.6950 -0.0121
   27SAPC   H4S 3578   0.836   3.608   7.176 -0.2624 -0.7946  0.3293
   27SAPC   C25 3579   0.954   3.519   7.329 -0.7837  0.5472  0.5205
   27SAPC   H5R 3580   1.048   3.463   7.343 -0.7058  0.5104 -0.1144
   27SAPC   C26 3581   0.871   3.529   7.433 -0.2822 -0.1590  0.2620
   27SAPC   H6R 3582   0.890   3.463   7.519 -0.1767 -1.6175 -0.8767
   27SAPC   C27 3583   0.753   3.621   7.454 -0.3635 -0.3805  0.2513
   27SAPC   H7R 3584   0.739   3.680   7.362  0.2622 -0.6572 -0.0244
   27SAPC   H7S 3585   0.777   3.708   7.519 -0.2161  0.2601 -0.6617
   27SAPC   C28 3586   0.628   3.541   7.483 -0.1504 -0.3814 -0.6033
   27SAPC   H8R 3587   0.590   3.484   7.398 -0.3547  0.5539 -1.1482
   27SAPC   C29 3588   0.562   3.536   7.596  0.1426 -0.2357  0.2343
   27SAPC   H9R 3589   0.470   3.476   7.601  1.1624 -1.8548  0.1064
   27SAPC  C210 3590   0.596   3.614   7.719  0.0994  0.6254  0.3725
   27SAPC  H10R 3591   0.505   3.659   7.763 -1.3854  0.0744 -2.0181
   27SAPC  H10S 3592   0.650   3.705   7.687 -0.7364  1.0227  0.0851
   27SAPC  C211 3593   0.686   3.538   7.816 -0.1950 -0.0438  0.0611
   27SAPC  H11R 3594   0.751   3.468   7.760  2.3923  1.4267  1.1582
   27SAPC  C212 3595   0.682   3.539   7.953  0.5247  0.4497  0.0016
   27SAPC  H12R 3596   0.757   3.479   8.006 -0.2645 -0.4771  0.0982
   27SAPC  C213 3597   0.597   3.630   8.043 -0.7699 -0.5154 -0.9885
   27SAPC  H13R 3598   0.596   3.736   8.012 -1.5414 -0.5191 -0.9874
   27SAPC  H13S 3599   0.648   3.641   8.141 -0.1562  0.7384 -1.4384
   27SAPC  C214 3600   0.451   3.588   8.042  0.9227 -0.0984 -0.1337
   27SAPC  H14R 3601   0.406   3.577   7.942  0.2579  3.6105 -0.2946
   27SAPC  C215 3602   0.365   3.557   8.140  0.6350 -0.3358  0.0310
   27SAPC  H15R 3603   0.263   3.542   8.104 -0.5224  1.1438  2.5054
   27SAPC  C216 3604   0.369   3.558   8.289  0.2909 -0.2188  0.3961
   27SAPC  H16R 3605   0.455   3.491   8.311  0.1403 -0.1490  1.1910
   27SAPC  H16S 3606   0.278   3.519   8.338 -1.5192  0.1526 -2.5223
   27SAPC  C217 3607   0.374   3.703   8.350 -0.1130 -0.3153 -0.4671
   27SAPC  H17R 3608   0.276   3.754   8.334  0.0631  1.3614  3.1994
   27SAPC  H17S 3609   0.454   3.761   8.299  0.9348 -1.0244  0.3524
   27SAPC  C218 3610   0.422   3.707   8.497  0.2444  0.4659 -0.2625
   27SAPC  H18R 3611   0.459   3.807   8.526  1.2311  0.2734 -0.8291
   27SAPC  H18S 3612   0.512   3.642   8.504 -1.6574 -2.0020  2.7051
   27SAPC  C219 3613   0.320   3.655   8.601 -0.3688  0.1182 -1.0225
   27SAPC  H19R 3614   0.275   3.562   8.561 -0.0621  0.3662 -1.9618
   27SAPC  H19S 3615   0.241   3.732   8.609 -0.6556 -0.3682  1.3344
   27SAPC  C220 3616   0.369   3.614   8.746  0.7776 -0.4329  0.4152
   27SAPC  H20R 3617   0.388   3.703   8.810  0.9533  0.3304 -0.6908
   27SAPC  H20S 3618   0.451   3.540   8.730  3.0803  2.0787  0.1444
   27SAPC  H20T 3619   0.282   3.562   8.789 -0.4073  0.0826 -1.3086
   27SAPC   C33 3620   1.471   3.233   7.219  0.4932  0.3126  0.8732
   27SAPC   H3X 3621   1.578   3.210   7.196 -0.3093 -2.5688 -0.1809
   27SAPC   H3Y 3622   1.408   3.191   7.138  0.7351  0.0386  0.8256
   27SAPC   C34 3623   1.443   3.160   7.356  0.0381  0.2307 -0.2102
   27SAPC   H4X 3624   1.472   3.052   7.353 -0.7246  0.0782 -2.0820
   27SAPC   H4Y 3625   1.341   3.166   7.400  0.3314 -0.8297  0.6529
   27SAPC   C35 3626   1.537   3.214   7.466  0.2602 -0.5408 -0.1288
   27SAPC   H5X 3627   1.548   3.324   7.464  3.3435 -0.7791  1.5829
   27SAPC   H5Y 3628   1.639   3.173   7.453  0.6214 -0.9023  3.4184
   27SAPC   C36 3629   1.482   3.176   7.605 -0.0894 -0.2566  0.2840
   27SAPC   H6X 3630   1.477   3.067   7.626 -2.2730 -0.0629  0.8718
   27SAPC   H6Y 3631   1.377   3.210   7.612 -0.2131 -0.7100  0.6360
   27SAPC   C37 3632   1.571   3.255   7.699  0.1700 -1.2015  0.1035
   27SAPC   H7X 3633   1.571   3.364   7.678  1.5215 -0.8819  1.6591
   27SAPC   H7Y 3634   1.673   3.220   7.676  1.1982  1.6413  0.1033
   27SAPC   C38 3635   1.545   3.244   7.851  0.1225 -0.2600  0.8799
   27SAPC   H8X 3636   1.534   3.140   7.888  2.4608  0.1085  2.7211
   27SAPC   H8Y 3637   1.462   3.307   7.890  0.0898  0.2232  0.0483
   27SAPC   C39 3638   1.674   3.290   7.920  0.0501 -0.0434 -0.1193
   27SAPC   H9X 3639   1.682   3.400   7.922  1.8508 -0.1539  3.0967
   27SAPC   H9Y 3640   1.757   3.243   7.864  1.3330  3.4702 -1.2506
   27SAPC  C310 3641   1.694   3.234   8.058 -0.1741 -0.6306  0.1905
   27SAPC  H10X 3642   1.781   3.273   8.117 -1.3180  0.4128  1.2131
   27SAPC  H10Y 3643   1.707   3.127   8.033 -1.2291 -0.5049 -0.9945
   27SAPC  C311 3644   1.574   3.258   8.158 -0.1141  0.2479 -0.2683
   27SAPC  H11X 3645   1.485   3.200   8.123 -0.1417 -0.3321  0.7455
   27SAPC  H11Y 3646   1.544   3.365   8.159  0.4904  0.4267 -0.9192
   27SAPC  C312 3647   1.621   3.209   8.298 -0.1754 -0.3479 -0.0230
   27SAPC  H12X 3648   1.712   3.264   8.329 -0.9483  0.9874 -0.0894
   27SAPC  H12Y 3649   1.638   3.101   8.276  0.6471 -0.2903  0.3359
   27SAPC  C313 3650   1.532   3.224   8.416  0.5368  0.7170 -0.6947
   27SAPC  H13X 3651   1.439   3.164   8.406 -1.6288  3.8446 -0.1717
   27SAPC  H13Y 3652   1.490   3.327   8.419 -0.8430  0.2593 -3.0703
   27SAPC  C314 3653   1.604   3.195   8.552 -0.3999  0.3177 -0.5100
   27SAPC  H14X 3654   1.691   3.264   8.561  0.5519 -0.6288 -2.2668
   27SAPC  H14Y 3655   1.637   3.090   8.539 -0.9457  0.2800 -1.5917
   27SAPC  C315 3656   1.512   3.212   8.681 -0.3516 -0.2343 -0.5464
   27SAPC  H15X 3657   1.406   3.178   8.673 -0.8084  0.4439  1.9689
   27SAPC  H15Y 3658   1.495   3.322   8.692 -0.3643 -0.3732  0.9635
   27SAPC  C316 3659   1.582   3.151   8.807 -0.3663 -0.3987  0.5463
   27SAPC  H16X 3660   1.565   3.041   8.807  0.6754 -0.5611  0.1380
   27SAPC  H16Y 3661   1.526   3.199   8.891 -1.8132 -0.6920 -0.2311
   27SAPC  C317 3662   1.728   3.206   8.825 -0.3229  0.1144  0.1784
   27SAPC  H17X 3663   1.732   3.316   8.812 -0.3598 -0.0429 -1.2839
   27SAPC  H17Y 3664   1.779   3.180   8.730  0.5666  2.2447  0.0485
   27SAPC  C318 3665   1.790   3.166   8.955  0.6465  0.1371  0.8763
   27SAPC  H18X 3666   1.832   3.064   8.952  1.9977  0.6699 -4.4017
   27SAPC  H18Y 3667   1.717   3.178   9.038  0.8577 -1.7976  1.3582
   27SAPC  H18Z 3668   1.876   3.235   8.968  0.5711  0.3457  0.3206
   28SAPC     N 3669   0.635   0.567   6.172 -1.4619 -0.3471  0.9198
   28SAPC   C12 3670   0.611   0.505   6.311 -0.0135  0.0153 -0.2150
   28SAPC  H12A 3671   0.685   0.530   6.385  2.5363 -1.0851 -2.3244
   28SAPC  H12B 3672   0.617   0.397   6.303 -2.1584 -0.2679  1.7282
   28SAPC   C13 3673   0.532   0.519   6.081 -0.3932 -0.1279 -0.2553
   28SAPC  H13A 3674   0.437   0.558   6.114 -0.9600 -0.1921 -1.7469
   28SAPC  H13B 3675   0.550   0.551   5.979 -0.9882 -0.6135 -0.5161
   28SAPC  H13C 3676   0.527   0.411   6.082  2.8767 -0.3724 -2.1302
   28SAPC   C14 3677   0.628   0.718   6.183  0.7286  0.2657  0.4579
   28SAPC  H14A 3678   0.525   0.743   6.206 -0.6741 -1.1548 -3.7198
   28SAPC  H14B 3679   0.695   0.745   6.263  0.7128  0.8340  0.2798
   28SAPC  H14C 3680   0.655   0.770   6.093  1.7589 -0.8710  0.0876
   28SAPC   C15 3681   0.769   0.518   6.120  0.2606 -0.1111 -0.8204
   28SAPC  H15A 3682   0.856   0.547   6.176 -0.4411  1.0053 -0.2833
   28SAPC  H15B 3683   0.757   0.412   6.103 -1.6772 -0.0349 -0.0967
   28SAPC  H15C 3684   0.781   0.565   6.023 -1.6875  2.3491  0.0564
   28SAPC   C11 3685   0.478   0.535   6.380 -1.0969 -0.2175  0.4527
   28SAPC  H11A 3686   0.476   0.644   6.400  1.5659 -0.0249 -0.0781
   28SAPC  H11B 3687   0.486   0.479   6.475 -0.2445  0.1199  0.5905
   28SAPC     P 3688   0.222   0.532   6.343 -0.0568 -0.1359  0.6400
   28SAPC   O13 3689   0.218   0.656   6.426  0.0359  0.0674 -0.5329
   28SAPC   O14 3690   0.150   0.532   6.211 -0.0703 -0.6531  0.2468
   28SAPC   O12 3691   0.367   0.498   6.308 -0.1797  0.0440 -1.7386
   28SAPC   O11 3692   0.178   0.407   6.437 -0.0399  0.3453  0.0502
   28SAPC    C1 3693   0.190   0.415   6.580 -0.1574  0.4897  0.2186
   28SAPC    HA 3694   0.213   0.514   6.625  0.1682  0.6905 -0.3682
   28SAPC    HB 3695   0.093   0.379   6.619 -0.8456  2.8269  0.7247
   28SAPC    C2 3696   0.290   0.308   6.641  0.0287 -0.1998 -0.9196
   28SAPC    HS 3697   0.384   0.328   6.586  0.6853  1.9676  0.8595
   28SAPC   O21 3698   0.234   0.178   6.617  0.7485  0.4300  0.2747
   28SAPC   C21 3699   0.317   0.073   6.634  0.1373 -0.3872  0.0678
   28SAPC   O22 3700   0.440   0.092   6.645 -0.2235  0.0072 -0.0505
   28SAPC   C22 3701   0.246  -0.063   6.611  0.1688  0.4219 -0.6050
   28SAPC   H2R 3702   0.168  -0.073   6.690 -0.7392 -0.9210 -1.6367
   28SAPC   H2S 3703   0.203  -0.070   6.509  3.4005  1.2114 -2.0883
   28SAPC    C3 3704   0.304   0.336   6.796 -0.5505  0.2484  1.0363
   28SAPC    HX 3705   0.220   0.285   6.848  0.2388 -0.5756  1.5136
   28SAPC    HY 3706   0.298   0.446   6.807 -0.7672  0.4607 -1.0117
   28SAPC   O31 3707   0.419   0.269   6.841 -0.5689 -0.3542  0.3488
   28SAPC   C31 3708   0.541   0.316   6.810  0.3839 -0.5443 -0.2704
   28SAPC   O32 3709   0.553   0.422   6.742 -0.0328  0.0131 -0.3015
   28SAPC   C32 3710   0.651   0.228   6.871  0.5429 -0.2197 -0.2535
   28SAPC   H2X 3711   0.708   0.201   6.780 -0.9120 -1.0094 -0.9613
   28SAPC   H2Y 3712   0.613   0.128   6.901  1.4111 -0.0188  1.5556
   28SAPC   C23 3713   0.344  -0.177   6.633 -0.0224  0.2571  0.8935
   28SAPC   H3R 3714   0.423  -0.195   6.558 -0.1239 -3.1424  1.5399
   28SAPC   H3S 3715   0.287  -0.272   6.628  0.0749  0.2322  0.3077
   28SAPC   C24 3716   0.411  -0.183   6.777 -0.6171 -0.1689  0.0786
   28SAPC   H4R 3717   0.476  -0.273   6.780 -1.3589 -0.6971  0.4307
   28SAPC   H4S 3718   0.483  -0.106   6.812 -2.5134  0.5405  2.5325
   28SAPC   C25 3719   0.296  -0.193   6.880 -0.0563  0.3388  0.1141
   28SAPC   H5R 3720   0.224  -0.268   6.847  0.5717 -0.5538  0.7373
   28SAPC   C26 3721   0.272  -0.119   6.992 -0.2696  0.4457 -0.0900
   28SAPC   H6R 3722   0.193  -0.153   7.060 -2.3825 -0.6450 -3.0257
   28SAPC   C27 3723   0.362  -0.002   7.035  0.1853  0.5845  0.4199
   28SAPC   H7R 3724   0.406   0.037   6.940 -1.3987  0.9563 -0.1702
   28SAPC   H7S 3725   0.436  -0.050   7.102 -0.2699  0.4316  0.8178
   28SAPC   C28 3726   0.280   0.103   7.113  0.0801  0.2207  0.3382
   28SAPC   H8R 3727   0.257   0.196   7.058  0.0663  1.0684  1.7516
   28SAPC   C29 3728   0.237   0.090   7.242  0.7618 -0.7667  0.8293
   28SAPC   H9R 3729   0.179   0.175   7.280 -2.6375 -2.1656 -0.9361
   28SAPC  C210 3730   0.260  -0.020   7.341  0.0648  0.5692 -0.2182
   28SAPC  H10R 3731   0.294   0.033   7.432 -1.4501  2.0787 -0.5114
   28SAPC  H10S 3732   0.351  -0.080   7.322  0.1745  0.3634  0.9293
   28SAPC  C211 3733   0.146  -0.121   7.364 -0.1134  0.0881  0.4836
   28SAPC  H11R 3734   0.176  -0.225   7.347  0.7779  0.1744  1.4847
   28SAPC  C212 3735   0.029  -0.103   7.431  0.3875  0.2233 -0.4459
   28SAPC  H12R 3736  -0.038  -0.187   7.455  0.7394  0.5361  1.6868
   28SAPC  C213 3737  -0.028   0.024   7.495  0.8049  0.2014  0.7576
   28SAPC  H13R 3738  -0.014   0.115   7.433 -1.4098 -1.2825 -2.0329
   28SAPC  H13S 3739   0.035   0.043   7.585 -0.1339 -1.1125  1.6986
   28SAPC  C214 3740  -0.174   0.020   7.524  0.3443 -0.0630 -0.4942
   28SAPC  H14R 3741  -0.236   0.075   7.452 -0.9457  1.0032  1.3862
   28SAPC  C215 3742  -0.221  -0.034   7.638 -0.3457  0.0707 -0.2344
   28SAPC  H15R 3743  -0.327  -0.013   7.659  0.4753  2.7632  1.4023
   28SAPC  C216 3744  -0.135  -0.100   7.745  0.2120 -0.0886 -0.6924
   28SAPC  H16R 3745  -0.117  -0.024   7.823  1.6032  2.7476 -3.6581
   28SAPC  H16S 3746  -0.034  -0.129   7.707  0.1286  1.3572 -2.0691
   28SAPC  C217 3747  -0.201  -0.233   7.789 -0.5992  0.0286  0.1893
   28SAPC  H17R 3748  -0.199  -0.309   7.708 -0.5844 -0.1987  0.4054
   28SAPC  H17S 3749  -0.307  -0.222   7.821 -0.3670 -1.4165  1.4752
   28SAPC  C218 3750  -0.136  -0.294   7.912  0.0479  0.5409 -0.1250
   28SAPC  H18R 3751  -0.029  -0.288   7.883  0.2933 -0.6468  0.5327
   28SAPC  H18S 3752  -0.176  -0.397   7.917 -1.2084  1.1027  1.9386
   28SAPC  C219 3753  -0.182  -0.227   8.047 -0.1684 -0.0231 -0.1726
   28SAPC  H19R 3754  -0.290  -0.248   8.053 -0.0238 -0.1048  2.5089
   28SAPC  H19S 3755  -0.158  -0.119   8.055  0.8431 -0.0576 -2.2156
   28SAPC  C220 3756  -0.113  -0.289   8.165 -0.0904 -0.1441 -0.3631
   28SAPC  H20R 3757  -0.136  -0.394   8.194  2.2396  0.2668  3.4250
   28SAPC  H20S 3758  -0.158  -0.230   8.248 -0.6452  0.7373 -1.2807
   28SAPC  H20T 3759  -0.003  -0.281   8.153 -0.1292 -2.4641 -2.7153
   28SAPC   C33 3760   0.767   0.286   6.956  0.4907  0.2236 -0.8387
   28SAPC   H3X 3761   0.800   0.390   6.934 -0.7255  0.3167 -2.2230
   28SAPC   H3Y 3762   0.853   0.216   6.943  1.4298  0.9755  1.1106
   28SAPC   C34 3763   0.734   0.293   7.104  0.3503  0.1876 -0.0810
   28SAPC   H4X 3764   0.632   0.335   7.117 -0.4613 -1.0523 -2.2771
   28SAPC   H4Y 3765   0.796   0.362   7.165  0.8228 -1.1914  1.0057
   28SAPC   C35 3766   0.731   0.152   7.167  0.2914 -1.2617  1.2905
   28SAPC   H5X 3767   0.838   0.135   7.188  0.5863 -1.3118 -0.1630
   28SAPC   H5Y 3768   0.683   0.075   7.103 -0.3703  0.0458  0.1578
   28SAPC   C36 3769   0.650   0.161   7.298  0.1709 -0.6742 -0.7364
   28SAPC   H6X 3770   0.643   0.063   7.349 -2.6663  0.0898  0.4817
   28SAPC   H6Y 3771   0.544   0.191   7.282  0.4811  0.4578 -0.7386
   28SAPC   C37 3772   0.723   0.260   7.402  0.3034  0.5261  0.0538
   28SAPC   H7X 3773   0.679   0.362   7.396  1.2251  0.8953 -0.5527
   28SAPC   H7Y 3774   0.828   0.275   7.370  0.3606  2.5286  1.1239
   28SAPC   C38 3775   0.707   0.225   7.543 -0.9091  0.7331 -0.4044
   28SAPC   H8X 3776   0.598   0.209   7.553 -0.6257 -0.7360  0.4947
   28SAPC   H8Y 3777   0.750   0.299   7.613  0.6242 -0.8654  0.4030
   28SAPC   C39 3778   0.766   0.092   7.597 -0.2961  0.0732 -0.3045
   28SAPC   H9X 3779   0.872   0.094   7.562 -0.5538  0.2563 -1.0728
   28SAPC   H9Y 3780   0.710   0.008   7.552  0.6772  0.4747 -2.3132
   28SAPC  C310 3781   0.759   0.074   7.754  0.4990 -0.8636  0.0529
   28SAPC  H10X 3782   0.773  -0.035   7.771 -2.3098 -1.1265  0.7928
   28SAPC  H10Y 3783   0.658   0.102   7.789  0.3970  1.0438 -1.6369
   28SAPC  C311 3784   0.868   0.147   7.842 -0.3954  0.3075 -0.7852
   28SAPC  H11X 3785   0.825   0.248   7.860 -0.2362  0.0231  1.3311
   28SAPC  H11Y 3786   0.967   0.141   7.793  0.4802 -3.1783  1.2338
   28SAPC  C312 3787   0.882   0.083   7.985 -0.3487 -0.2056  0.1565
   28SAPC  H12X 3788   0.966   0.142   8.027 -0.8120  1.1117 -0.7423
   28SAPC  H12Y 3789   0.917  -0.022   7.972  1.5023  0.2894  1.0061
   28SAPC  C313 3790   0.759   0.082   8.083  0.0119 -0.2276  0.3910
   28SAPC  H13X 3791   0.670   0.037   8.034 -0.4499 -0.7015  1.6393
   28SAPC  H13Y 3792   0.729   0.184   8.116  1.7223 -0.6960  3.6397
   28SAPC  C314 3793   0.779   0.002   8.201 -0.2498  0.3427 -0.3141
   28SAPC  H14X 3794   0.874   0.040   8.246  0.4116 -0.8917 -0.6334
   28SAPC  H14Y 3795   0.784  -0.106   8.175  0.6858  0.6903 -1.6163
   28SAPC  C315 3796   0.673   0.009   8.311 -0.1199  0.7411  0.0612
   28SAPC  H15X 3797   0.571  -0.018   8.278 -0.4366  0.5121  1.1972
   28SAPC  H15Y 3798   0.660   0.114   8.343 -2.1113  0.5035  0.0556
   28SAPC  C316 3799   0.707  -0.080   8.437 -0.3378  0.1734 -0.5541
   28SAPC  H16X 3800   0.795  -0.032   8.485 -0.0020 -0.9139 -0.0715
   28SAPC  H16Y 3801   0.744  -0.179   8.403 -0.3004  0.5072 -1.5273
   28SAPC  C317 3802   0.581  -0.095   8.528 -0.1326  0.7819  0.0934
   28SAPC  H17X 3803   0.494  -0.146   8.482 -0.2517 -0.2213  1.4084
   28SAPC  H17Y 3804   0.545   0.009   8.541  0.5566  1.0251  0.1094
   28SAPC  C318 3805   0.605  -0.159   8.664  0.2233 -0.5231  0.1611
   28SAPC  H18X 3806   0.518  -0.126   8.724 -1.6832 -1.9384 -1.7322
   28SAPC  H18Y 3807   0.702  -0.124   8.705  0.0281  0.9402 -0.6141
   28SAPC  H18Z 3808   0.612  -0.270   8.662  0.0979 -0.5211 -0.3211
   29SAPC     N 3809   3.460   3.746   6.275  0.2436 -0.0611  0.4076
   29SAPC   C12 3810   3.314   3.705   6.281  0.5490 -0.1670 -0.1038
   29SAPC  H12A 3811   3.306   3.598   6.292 -0.4797  0.0244  1.2098
   29SAPC  H12B 3812   3.264   3.727   6.188  2.6979  0.9873 -1.0121
   29SAPC   C13 3813   3.529   3.763   6.408  0.1668  0.2161 -0.0310
   29SAPC  H13A 3814   3.636   3.769   6.397 -0.0280  1.5630 -1.2876
   29SAPC  H13B 3815   3.490   3.847   6.465 -1.5871 -0.1286 -0.6753
   29SAPC  H13C 3816   3.498   3.686   6.478 -0.5147  1.2248  0.8043
   29SAPC   C14 3817   3.540   3.646   6.196  0.1025 -0.0795  0.9039
   29SAPC  H14A 3818   3.506   3.640   6.094  0.6359 -1.7499  0.8160
   29SAPC  H14B 3819   3.645   3.672   6.192 -0.7965  3.4874 -1.2832
   29SAPC  H14C 3820   3.534   3.546   6.238 -1.3998 -0.1526  0.5366
   29SAPC   C15 3821   3.471   3.870   6.205  0.0980 -0.1181  0.6269
   29SAPC  H15A 3822   3.417   3.863   6.111  0.9296  0.9988  0.0519
   29SAPC  H15B 3823   3.426   3.950   6.261 -2.1512 -2.5796  2.4027
   29SAPC  H15C 3824   3.573   3.895   6.179 -0.5266 -0.6347 -2.5138
   29SAPC   C11 3825   3.229   3.768   6.394 -0.5577  1.0016 -0.1791
   29SAPC  H11A 3826   3.295   3.763   6.483  0.4624 -1.1479 -1.0354
   29SAPC  H11B 3827   3.144   3.700   6.416 -1.2089  1.9794  0.3796
   29SAPC     P 3828   3.052   3.921   6.288 -0.0883  0.0151  0.2157
   29SAPC   O13 3829   3.033   4.060   6.240  0.5647 -0.8776 -0.0028
   29SAPC   O14 3830   3.026   3.813   6.193 -0.2647  0.4377  0.5839
   29SAPC   O12 3831   3.195   3.901   6.356  0.7668  0.3060  0.4266
   29SAPC   O11 3832   2.952   3.900   6.405 -0.6174 -0.2861 -0.2370
   29SAPC    C1 3833   2.931   4.012   6.494  0.1290 -0.0971  0.2173
   29SAPC    HA 3834   3.027   4.052   6.533 -0.5262  0.3708  1.3890
   29SAPC    HB 3835   2.885   4.100   6.445 -1.0318 -0.6476  0.3092
   29SAPC    C2 3836   2.838   3.975   6.620 -0.1663  0.0887  0.8503
   29SAPC    HS 3837   2.829   4.069   6.679 -0.1621 -0.0856  1.1321
   29SAPC   O21 3838   2.896   3.863   6.699  0.2664 -0.1575 -0.7537
   29SAPC   C21 3839   3.004   3.900   6.769  0.1504 -0.2209  0.4360
   29SAPC   O22 3840   3.037   4.017   6.796 -0.4737  0.1626 -0.1537
   29SAPC   C22 3841   3.069   3.770   6.811 -0.6583 -0.0723 -0.2357
   29SAPC   H2R 3842   2.995   3.704   6.862 -0.4543 -0.3451 -0.2940
   29SAPC   H2S 3843   3.102   3.724   6.716  0.9930 -1.0601  0.7902
   29SAPC    C3 3844   2.692   3.937   6.579 -0.2661 -0.5577  0.1571
   29SAPC    HX 3845   2.709   3.848   6.516  1.6497  1.0580 -1.6562
   29SAPC    HY 3846   2.648   4.016   6.514  1.5537  0.1424 -0.2665
   29SAPC   O31 3847   2.620   3.896   6.695  0.1156 -1.4716  0.0286
   29SAPC   C31 3848   2.554   3.980   6.760  0.2394  0.6629 -0.6211
   29SAPC   O32 3849   2.550   4.098   6.733  0.1615  0.2583 -0.4137
   29SAPC   C32 3850   2.480   3.922   6.885 -0.0256  0.2052  0.1717
   29SAPC   H2X 3851   2.386   3.877   6.846  1.2246 -2.9110  0.6206
   29SAPC   H2Y 3852   2.467   4.015   6.944 -0.2910  0.1729  0.1656
   29SAPC   C23 3853   3.194   3.788   6.910  0.1957 -0.0927 -0.1354
   29SAPC   H3R 3854   3.170   3.830   7.010  2.0759 -2.1075  1.2203
   29SAPC   H3S 3855   3.271   3.853   6.862  0.3886 -0.9957 -1.0686
   29SAPC   C24 3856   3.262   3.663   6.975  0.1565  0.2715  0.0864
   29SAPC   H4R 3857   3.359   3.697   7.018 -0.7867  0.2757  2.2860
   29SAPC   H4S 3858   3.282   3.593   6.891 -1.2402  0.2282 -0.2251
   29SAPC   C25 3859   3.188   3.590   7.074 -0.3350 -0.4357  0.3221
   29SAPC   H5R 3860   3.110   3.521   7.038  0.5069 -1.4754  0.5011
   29SAPC   C26 3861   3.190   3.601   7.209  0.1528 -0.0967 -0.3057
   29SAPC   H6R 3862   3.107   3.567   7.273  0.5664  1.5490  1.1205
   29SAPC   C27 3863   3.292   3.682   7.285 -0.3857 -0.1438 -0.1279
   29SAPC   H7R 3864   3.268   3.790   7.279  2.8147  0.5353 -1.5811
   29SAPC   H7S 3865   3.398   3.665   7.255 -0.0075  1.6609  0.1221
   29SAPC   C28 3866   3.293   3.638   7.434 -0.4305  0.1276  0.7089
   29SAPC   H8R 3867   3.356   3.551   7.452 -0.2133  0.7298  3.0438
   29SAPC   C29 3868   3.222   3.689   7.533 -0.0448 -0.4429  0.8415
   29SAPC   H9R 3869   3.241   3.641   7.631 -0.8428 -0.6642  0.8915
   29SAPC  C210 3870   3.108   3.786   7.525  0.5282 -0.5257 -0.6332
   29SAPC  H10R 3871   3.059   3.779   7.426  0.7109  0.5186 -0.8026
   29SAPC  H10S 3872   3.160   3.881   7.548  1.9001 -0.9969 -1.6368
   29SAPC  C211 3873   3.000   3.751   7.621 -0.8378  0.5519  0.7836
   29SAPC  H11R 3874   2.928   3.682   7.575 -0.0206 -0.6608  1.3064
   29SAPC  C212 3875   2.971   3.807   7.743 -0.2066 -0.6997 -0.2004
   29SAPC  H12R 3876   2.896   3.758   7.806  0.2753  0.9942  1.7385
   29SAPC  C213 3877   3.064   3.892   7.829 -0.1404 -0.3059  0.2217
   29SAPC  H13R 3878   3.156   3.924   7.775 -0.1027 -0.9288 -0.0810
   29SAPC  H13S 3879   3.106   3.840   7.918 -2.9560  1.2998  2.5541
   29SAPC  C214 3880   3.005   4.023   7.876 -0.9428  0.0503  0.4094
   29SAPC  H14R 3881   2.991   4.096   7.795  2.2691  0.2311 -0.0209
   29SAPC  C215 3882   2.988   4.064   7.997 -0.2805  0.0996 -0.0636
   29SAPC  H15R 3883   2.934   4.158   8.016 -0.6435 -0.1832  0.3196
   29SAPC  C216 3884   3.025   3.994   8.122 -0.5469 -0.4697  0.0245
   29SAPC  H16R 3885   3.084   4.059   8.191 -2.5251  0.8003  0.5442
   29SAPC  H16S 3886   3.091   3.907   8.101  0.5522  0.1871  0.6547
   29SAPC  C217 3887   2.898   3.954   8.202 -0.1567 -0.3188 -0.3968
   29SAPC  H17R 3888   2.847   3.875   8.143  0.8944 -1.1974 -0.1478
   29SAPC  H17S 3889   2.829   4.041   8.212 -0.3628  0.0148 -4.2205
   29SAPC  C218 3890   2.945   3.911   8.340  0.1970  0.2414 -0.3221
   29SAPC  H18R 3891   2.851   3.921   8.398 -1.1816 -1.4524 -2.2281
   29SAPC  H18S 3892   3.019   3.990   8.368 -0.8910  1.1672 -0.0130
   29SAPC  C219 3893   3.006   3.769   8.359  0.3682 -0.3253 -0.5961
   29SAPC  H19R 3894   3.047   3.757   8.462  0.0210 -1.5687 -0.5870
   29SAPC  H19S 3895   3.100   3.764   8.299 -0.4355  0.4701 -1.9573
   29SAPC  C220 3896   2.936   3.649   8.310 -0.6606 -0.7242  0.0786
   29SAPC  H20R 3897   2.912   3.667   8.203 -0.8917 -0.6004  0.1515
   29SAPC  H20S 3898   2.840   3.629   8.363 -0.0060 -2.5336  0.6247
   29SAPC  H20T 3899   3.006   3.563   8.312  1.5235  0.9976 -0.9070
   29SAPC   C33 3900   2.555   3.811   6.952 -0.5793  0.9059 -0.3865
   29SAPC   H3X 3901   2.586   3.733   6.879  1.1989  1.9952 -0.8364
   29SAPC   H3Y 3902   2.484   3.756   7.017 -0.4462 -0.3380 -1.2547
   29SAPC   C34 3903   2.679   3.842   7.034  0.0083  0.4885  0.1534
   29SAPC   H4X 3904   2.704   3.950   7.028  2.3471 -0.0606 -1.1073
   29SAPC   H4Y 3905   2.762   3.793   6.978  0.5867 -0.7833  2.0523
   29SAPC   C35 3906   2.691   3.783   7.167 -0.1326  0.0038  0.1702
   29SAPC   H5X 3907   2.664   3.677   7.146  1.0045 -0.7727  2.4785
   29SAPC   H5Y 3908   2.607   3.811   7.234 -1.1713  0.5652 -1.3501
   29SAPC   C36 3909   2.821   3.791   7.241  0.9287 -0.1511 -0.0249
   29SAPC   H6X 3910   2.901   3.749   7.177 -1.4947 -1.4352 -2.2667
   29SAPC   H6Y 3911   2.818   3.719   7.325 -0.1300 -1.2752 -1.0132
   29SAPC   C37 3912   2.849   3.931   7.301  0.5695 -0.5481  0.1672
   29SAPC   H7X 3913   2.828   3.998   7.216  1.1643  2.4794  2.3459
   29SAPC   H7Y 3914   2.951   3.940   7.346  0.7733  1.7352 -0.7204
   29SAPC   C38 3915   2.754   3.958   7.422  0.0965  0.2434 -0.4297
   29SAPC   H8X 3916   2.761   3.875   7.496  3.6136 -0.1959 -1.1397
   29SAPC   H8Y 3917   2.646   3.953   7.399  0.1427  2.3260 -1.2171
   29SAPC   C39 3918   2.792   4.085   7.496 -0.4108 -0.1402 -0.1082
   29SAPC   H9X 3919   2.775   4.181   7.443  1.0330  0.3143  0.2025
   29SAPC   H9Y 3920   2.900   4.090   7.524 -0.5763 -0.0891  0.5280
   29SAPC  C310 3921   2.712   4.097   7.626 -0.3713 -0.4380  0.7543
   29SAPC  H10X 3922   2.737   4.011   7.692 -0.1440  0.4140  1.7904
   29SAPC  H10Y 3923   2.606   4.086   7.594 -0.8284  0.6864  1.8422
   29SAPC  C311 3924   2.722   4.234   7.689 -0.0698  0.1631  0.0290
   29SAPC  H11X 3925   2.706   4.310   7.611 -0.3072  0.5698  0.4681
   29SAPC  H11Y 3926   2.829   4.244   7.718  0.6830 -0.7547 -2.3451
   29SAPC  C312 3927   2.627   4.253   7.813 -0.1612 -0.1165  1.2552
   29SAPC  H12X 3928   2.650   4.174   7.888  0.9079 -0.9483  0.0652
   29SAPC  H12Y 3929   2.528   4.233   7.767  0.2204 -1.9485  1.1794
   29SAPC  C313 3930   2.631   4.390   7.878  0.0558  0.0857  1.0166
   29SAPC  H13X 3931   2.631   4.478   7.810  1.1945 -1.0992 -0.5416
   29SAPC  H13Y 3932   2.731   4.394   7.927  0.6340  0.2952 -0.1565
   29SAPC  C314 3933   2.526   4.402   7.994  0.8359  0.5696  0.0515
   29SAPC  H14X 3934   2.534   4.304   8.047 -2.7246 -0.5610 -1.3728
   29SAPC  H14Y 3935   2.420   4.407   7.962  1.0853  4.1609 -0.3751
   29SAPC  C315 3936   2.544   4.521   8.091 -0.0221 -0.5920 -0.1290
   29SAPC  H15X 3937   2.547   4.608   8.022 -1.7063  0.5042  1.1041
   29SAPC  H15Y 3938   2.649   4.519   8.127 -0.0088  1.1911 -0.0172
   29SAPC  C316 3939   2.430   4.549   8.191  0.5887  0.1664  0.3281
   29SAPC  H16X 3940   2.411   4.466   8.263 -0.9882  0.4223  0.2185
   29SAPC  H16Y 3941   2.329   4.552   8.146 -0.1972 -1.4571  1.9021
   29SAPC  C317 3942   2.457   4.667   8.287 -0.9030  0.0463 -0.1616
   29SAPC  H17X 3943   2.462   4.752   8.216 -0.6187  0.4491  0.3400
   29SAPC  H17Y 3944   2.556   4.649   8.334 -0.3409  0.1649 -1.2990
   29SAPC  C318 3945   2.356   4.687   8.401  0.1828 -0.0357 -0.1841
   29SAPC  H18X 3946   2.263   4.736   8.365  0.3102 -0.4034 -1.0358
   29SAPC  H18Y 3947   2.397   4.742   8.488 -2.2778  1.2096  0.2361
   29SAPC  H18Z 3948   2.329   4.589   8.446 -1.3275  1.0350  1.2969
   30SAPC     N 3949   4.818   3.888   5.783 -0.3997 -0.5840  0.0228
   30SAPC   C12 3950   4.886   3.849   5.915 -0.5754  0.5434 -0.2258
   30SAPC  H12A 3951   4.933   3.933   5.964  0.9259 -1.5191  2.0196
   30SAPC  H12B 3952   4.963   3.774   5.903 -1.9298 -1.4232  2.5567
   30SAPC   C13 3953   4.926   3.932   5.687  0.6967  0.6030  0.0257
   30SAPC  H13A 3954   4.978   4.020   5.723  0.8580  0.1996  0.7832
   30SAPC  H13B 3955   5.002   3.856   5.688 -1.5500 -1.6855  0.6264
   30SAPC  H13C 3956   4.882   3.951   5.590 -2.3609  0.4459  1.3374
   30SAPC   C14 3957   4.754   3.767   5.722 -0.0639  0.9164 -0.1652
   30SAPC  H14A 3958   4.695   3.715   5.795 -0.8642  1.4999 -0.3887
   30SAPC  H14B 3959   4.701   3.781   5.629  0.0680  0.3524 -0.3253
   30SAPC  H14C 3960   4.831   3.693   5.706  0.7127  1.4940  0.8160
   30SAPC   C15 3961   4.717   3.996   5.792  0.2557 -0.7204  0.5143
   30SAPC  H15A 3962   4.633   3.963   5.851  0.1690 -0.2791  0.6421
   30SAPC  H15B 3963   4.751   4.079   5.852 -1.7459  0.8881 -0.5013
   30SAPC  H15C 3964   4.674   4.024   5.697  1.5173 -0.9380 -0.1193
   30SAPC   C11 3965   4.802   3.796   6.038  0.4179 -0.6592 -0.0351
   30SAPC  H11A 3966   4.869   3.765   6.122  0.1546 -0.1045  0.3858
   30SAPC  H11B 3967   4.750   3.703   6.010 -2.5753  1.0782 -0.4441
   30SAPC     P 3968   4.564   3.869   6.117 -0.3904 -0.0187 -0.0326
   30SAPC   O13 3969   4.521   3.975   6.206 -0.1908 -0.0745  0.2783
   30SAPC   O14 3970   4.495   3.858   5.984  0.2144 -0.1081  0.0442
   30SAPC   O12 3971   4.720   3.887   6.096 -0.4435 -0.1565  0.6072
   30SAPC   O11 3972   4.552   3.731   6.196  0.8390  0.9414 -0.1653
   30SAPC    C1 3973   4.606   3.701   6.319  0.4618  0.1976 -0.6870
   30SAPC    HA 3974   4.615   3.590   6.317  2.7079  0.3445 -0.6194
   30SAPC    HB 3975   4.704   3.754   6.324  2.0190 -2.4803 -1.5338
   30SAPC    C2 3976   4.510   3.736   6.438 -0.4303  0.4158  0.5143
   30SAPC    HS 3977   4.476   3.837   6.405 -1.3722 -0.3792 -0.9946
   30SAPC   O21 3978   4.586   3.731   6.557 -0.1887  0.1086 -0.8830
   30SAPC   C21 3979   4.558   3.822   6.655  0.1760 -0.3864 -0.2624
   30SAPC   O22 3980   4.466   3.902   6.653  0.0048  0.3624 -0.2590
   30SAPC   C22 3981   4.666   3.822   6.762  0.5198 -1.0965 -0.4583
   30SAPC   H2R 3982   4.763   3.793   6.717  0.8854  1.8472 -1.6600
   30SAPC   H2S 3983   4.686   3.926   6.796  1.0737 -0.9702 -1.1809
   30SAPC    C3 3984   4.391   3.636   6.435  0.0366 -0.2662  1.0728
   30SAPC    HX 3985   4.426   3.530   6.442  2.6084  0.4374 -0.3579
   30SAPC    HY 3986   4.339   3.660   6.340 -0.2860  0.2791  1.3893
   30SAPC   O31 3987   4.290   3.660   6.535  0.4359  0.2195 -0.3610
   30SAPC   C31 3988   4.314   3.597   6.656 -0.3177 -0.2365  0.7187
   30SAPC   O32 3989   4.413   3.533   6.678  0.7767 -0.6054 -0.3093
   30SAPC   C32 3990   4.200   3.626   6.748 -0.4739 -0.0138 -0.2309
   30SAPC   H2X 3991   4.122   3.546   6.752  0.2091 -0.5915  2.2285
   30SAPC   H2Y 3992   4.150   3.712   6.700 -0.1145  0.5166  0.3387
   30SAPC   C23 3993   4.619   3.741   6.890  0.5762  0.0263  0.9059
   30SAPC   H3R 3994   4.561   3.652   6.859  0.3302  0.3682  0.3733
   30SAPC   H3S 3995   4.549   3.806   6.947 -1.6173 -1.2034 -0.3482
   30SAPC   C24 3996   4.741   3.700   6.975 -0.4559 -0.3973 -0.9335
   30SAPC   H4R 3997   4.806   3.633   6.913  0.8984 -0.5340  0.6034
   30SAPC   H4S 3998   4.700   3.635   7.055  1.1582 -0.3314 -0.0321
   30SAPC   C25 3999   4.812   3.823   7.037 -0.2930  0.3144  0.7233
   30SAPC   H5R 4000   4.840   3.885   6.951  0.3411 -0.2062  0.5495
   30SAPC   C26 4001   4.847   3.836   7.168  0.2642 -1.1867  0.2855
   30SAPC   H6R 4002   4.892   3.930   7.201 -0.9774 -0.1808 -0.8259
   30SAPC   C27 4003   4.813   3.745   7.279 -0.6744 -0.6815 -0.0523
   30SAPC   H7R 4004   4.718   3.693   7.256  0.7749 -3.0796 -0.7174
   30SAPC   H7S 4005   4.788   3.802   7.371 -0.3121 -1.4703  0.5327
   30SAPC   C28 4006   4.923   3.644   7.292  0.5881 -0.2166  0.2986
   30SAPC   H8R 4007   4.911   3.544   7.248 -1.4813  0.4352 -0.6817
   30SAPC   C29 4008   5.029   3.662   7.369  0.1235  0.3926 -0.5265
   30SAPC   H9R 4009   5.103   3.581   7.362  0.2550  0.4843 -0.1926
   30SAPC  C210 4010   5.075   3.777   7.459 -0.3325  0.2446  0.5970
   30SAPC  H10R 4011   4.998   3.855   7.473 -1.7961 -1.2924  1.2776
   30SAPC  H10S 4012   5.154   3.825   7.397 -1.4923 -0.5987 -1.5948
   30SAPC  C211 4013   5.119   3.744   7.600  0.2701 -0.8684  0.4504
   30SAPC  H11R 4014   5.034   3.733   7.669  0.7930 -4.1654  0.6841
   30SAPC  C212 4015   5.243   3.707   7.637 -0.0902  0.7920 -0.1252
   30SAPC  H12R 4016   5.259   3.689   7.745  1.3904 -0.6759 -0.5769
   30SAPC  C213 4017   5.371   3.701   7.559  0.1187 -0.4878 -0.4620
   30SAPC  H13R 4018   5.358   3.731   7.452  0.1698 -0.9237 -0.5921
   30SAPC  H13S 4019   5.384   3.594   7.531 -0.4263 -0.4624 -0.8124
   30SAPC  C214 4020   5.491   3.757   7.626  0.0336 -0.8333  0.3839
   30SAPC  H14R 4021   5.487   3.866   7.641 -0.6143 -1.0139  1.5889
   30SAPC  C215 4022   5.604   3.691   7.661 -0.3455  0.0114 -0.2012
   30SAPC  H15R 4023   5.685   3.750   7.707  0.1188 -0.4011 -0.4837
   30SAPC  C216 4024   5.641   3.550   7.643 -0.1053  0.8628  0.1766
   30SAPC  H16R 4025   5.740   3.528   7.597 -0.6917 -1.5432 -0.0109
   30SAPC  H16S 4026   5.568   3.517   7.566  0.8626  1.5189 -1.0301
   30SAPC  C217 4027   5.613   3.468   7.776  0.8690  0.4261 -0.5324
   30SAPC  H17R 4028   5.640   3.364   7.749  0.0972  0.4550 -1.4304
   30SAPC  H17S 4029   5.505   3.467   7.802  0.7696  0.3795 -0.9510
   30SAPC  C218 4030   5.702   3.514   7.889 -0.1623  0.6114 -1.0060
   30SAPC  H18R 4031   5.671   3.615   7.923  1.3671  0.8145 -0.1745
   30SAPC  H18S 4032   5.806   3.528   7.854  1.3502 -1.5831  2.3178
   30SAPC  C219 4033   5.703   3.411   8.005 -0.4302 -0.4507  0.5516
   30SAPC  H19R 4034   5.807   3.384   8.032  0.0617  0.9281  0.0799
   30SAPC  H19S 4035   5.646   3.319   7.978  0.6579 -1.0272  0.1372
   30SAPC  C220 4036   5.649   3.481   8.127  0.3055  0.0161  0.2549
   30SAPC  H20R 4037   5.701   3.578   8.138 -0.5450  0.6895 -1.4489
   30SAPC  H20S 4038   5.656   3.426   8.223 -1.6724  0.7737  0.8374
   30SAPC  H20T 4039   5.543   3.503   8.103  0.1087  2.3641  3.0272
   30SAPC   C33 4040   4.256   3.678   6.886 -0.3756  0.5019 -0.0247
   30SAPC   H3X 4041   4.181   3.741   6.938  0.3575  1.2291  0.1598
   30SAPC   H3Y 4042   4.352   3.735   6.886  0.1351 -0.3407  0.6828
   30SAPC   C34 4043   4.281   3.560   6.986  0.2441  0.1213 -0.0674
   30SAPC   H4X 4044   4.327   3.471   6.938  0.2429 -1.0670  2.0380
   30SAPC   H4Y 4045   4.180   3.535   7.025  0.6687 -1.7148 -0.1023
   30SAPC   C35 4046   4.374   3.596   7.099 -0.5717 -0.1417 -1.3241
   30SAPC   H5X 4047   4.469   3.648   7.075  0.4906 -0.9528  0.9146
   30SAPC   H5Y 4048   4.391   3.503   7.157  1.5856  0.3415 -1.1072
   30SAPC   C36 4049   4.312   3.688   7.204 -0.7786 -0.3430 -0.5371
   30SAPC   H6X 4050   4.206   3.660   7.219 -1.2626  0.3572 -2.5114
   30SAPC   H6Y 4051   4.304   3.795   7.176  0.3441  0.2752  1.3727
   30SAPC   C37 4052   4.386   3.690   7.339 -0.0636  0.8473 -0.7251
   30SAPC   H7X 4053   4.399   3.795   7.374  3.5902  0.4069 -0.5585
   30SAPC   H7Y 4054   4.490   3.653   7.323 -0.5736 -0.4468 -1.0954
   30SAPC   C38 4055   4.315   3.612   7.449  0.3655 -0.0046  0.7794
   30SAPC   H8X 4056   4.305   3.507   7.414  1.0187  0.3251 -0.4225
   30SAPC   H8Y 4057   4.214   3.654   7.471  0.1226  1.6493 -3.1059
   30SAPC   C39 4058   4.393   3.601   7.581  0.4438 -1.0242  0.3347
   30SAPC   H9X 4059   4.494   3.641   7.560 -0.5048  1.2145 -0.1657
   30SAPC   H9Y 4060   4.412   3.493   7.597  3.2427 -0.7258 -0.8238
   30SAPC  C310 4061   4.323   3.680   7.690 -0.4399  0.0617  0.7298
   30SAPC  H10X 4062   4.214   3.668   7.705 -0.4646  0.8050  1.1721
   30SAPC  H10Y 4063   4.328   3.787   7.664  0.0409 -0.7348 -2.6487
   30SAPC  C311 4064   4.384   3.664   7.829 -0.0433 -0.9483  0.3536
   30SAPC  H11X 4065   4.466   3.737   7.841 -0.8457  0.2580 -1.2865
   30SAPC  H11Y 4066   4.418   3.559   7.843  0.7366 -0.7602 -0.1235
   30SAPC  C312 4067   4.287   3.691   7.942 -0.0267 -0.4466  0.1743
   30SAPC  H12X 4068   4.239   3.791   7.935  0.2128 -0.4660 -2.0748
   30SAPC  H12Y 4069   4.341   3.699   8.039 -0.5437  0.3132  0.4065
   30SAPC  C313 4070   4.174   3.588   7.972 -0.1303  0.4135 -0.5004
   30SAPC  H13X 4071   4.233   3.494   7.963  0.2158  0.6187 -0.3920
   30SAPC  H13Y 4072   4.093   3.598   7.897 -3.5516 -0.1749  2.9898
   30SAPC  C314 4073   4.115   3.581   8.114 -0.0470  0.0618 -0.4473
   30SAPC  H14X 4074   4.207   3.582   8.176  0.7052 -2.5547 -1.4388
   30SAPC  H14Y 4075   4.062   3.485   8.133  2.8569 -2.1285 -3.1100
   30SAPC  C315 4076   4.030   3.704   8.164 -0.7491 -0.9151 -0.2467
   30SAPC  H15X 4077   4.034   3.775   8.078  2.1306  1.0391  1.4168
   30SAPC  H15Y 4078   4.083   3.751   8.250  0.6029 -0.2222 -1.4363
   30SAPC  C316 4079   3.893   3.658   8.211  0.2387  0.5904 -1.0223
   30SAPC  H16X 4080   3.914   3.600   8.303  2.2215  1.8738 -0.6359
   30SAPC  H16Y 4081   3.841   3.599   8.133 -4.3329 -0.2607  2.4435
   30SAPC  C317 4082   3.799   3.777   8.249  0.5659  0.8069  0.0190
   30SAPC  H17X 4083   3.696   3.736   8.261  1.1883 -0.2383  2.0029
   30SAPC  H17Y 4084   3.812   3.857   8.173 -1.7290  1.5991  0.4100
   30SAPC  C318 4085   3.836   3.830   8.390 -0.8350 -0.5666 -0.3192
   30SAPC  H18X 4086   3.834   3.742   8.457 -1.0920  0.3221  0.8543
   30SAPC  H18Y 4087   3.773   3.913   8.428  0.8032  0.8676 -0.6429
   30SAPC  H18Z 4088   3.944   3.858   8.395 -0.7814 -0.7626 -0.3604
   31SAPC     N 4089   4.893   4.966   6.120  0.0682 -0.0870  0.1125
   31SAPC   C12 4090   5.039   4.987   6.107 -0.1323  0.5806 -0.3726
   31SAPC  H12A 4091   5.060   5.085   6.147 -0.3253 -0.5249  2.5049
   31SAPC  H12B 4092   5.064   4.986   6.002 -1.1712 -1.4823 -0.6193
   31SAPC   C13 4093   4.855   4.826   6.076 -0.3206 -0.3767 -0.2378
   31SAPC  H13A 4094   4.748   4.815   6.071 -0.4125 -0.5266  1.6642
   31SAPC  H13B 4095   4.890   4.812   5.975  3.9486  0.8462  0.9406
   31SAPC  H13C 4096   4.906   4.752   6.137 -1.9791 -0.8135  0.6439
   31SAPC   C14 4097   4.854   4.991   6.261 -0.3314 -0.4985 -0.1236
   31SAPC  H14A 4098   4.941   4.969   6.321 -0.7574 -0.3925  0.5526
   31SAPC  H14B 4099   4.828   5.095   6.272  4.4212  0.7780  0.0961
   31SAPC  H14C 4100   4.767   4.935   6.294 -0.2178  0.1162  1.2755
   31SAPC   C15 4101   4.823   5.062   6.026  0.2658  0.8724 -0.3123
   31SAPC  H15A 4102   4.845   5.043   5.922  0.3533  0.3754 -0.2008
   31SAPC  H15B 4103   4.717   5.045   6.039  0.8761 -1.2696  2.3027
   31SAPC  H15C 4104   4.862   5.161   6.049  3.1280 -0.2002 -0.3504
   31SAPC   C11 4105   5.146   4.893   6.179  0.5664  0.3646 -1.4126
   31SAPC  H11A 4106   5.248   4.920   6.144 -1.1472  4.4360 -3.5579
   31SAPC  H11B 4107   5.122   4.790   6.145 -0.2334  0.0052  0.2093
   31SAPC     P 4108   5.226   4.984   6.415 -0.3849  0.1361  0.0505
   31SAPC   O13 4109   5.361   4.934   6.390  0.4607 -0.0939  0.1948
   31SAPC   O14 4110   5.184   5.124   6.385  0.2805 -0.0085  0.2350
   31SAPC   O12 4111   5.129   4.908   6.319 -0.2277 -0.7759 -0.3406
   31SAPC   O11 4112   5.179   4.937   6.559 -0.0936  0.3816 -0.3862
   31SAPC    C1 4113   5.086   5.029   6.632  0.1308  0.1264  0.6581
   31SAPC    HA 4114   5.004   5.062   6.564  0.6454 -1.0277 -0.5540
   31SAPC    HB 4115   5.031   4.971   6.709 -0.0565  1.3160  1.4398
   31SAPC    C2 4116   5.151   5.147   6.711  0.1271 -0.0108 -0.2590
   31SAPC    HS 4117   5.215   5.208   6.644 -0.1426  1.3664  0.7190
   31SAPC   O21 4118   5.237   5.085   6.812 -0.0238  0.3157 -0.2946
   31SAPC   C21 4119   5.356   5.046   6.775 -0.7859  0.6975 -0.4024
   31SAPC   O22 4120   5.417   5.076   6.676  0.7069  0.0184 -0.5449
   31SAPC   C22 4121   5.419   4.939   6.875 -0.9685 -0.4903  0.1264
   31SAPC   H2R 4122   5.458   5.002   6.958  1.2572 -0.9894 -0.5235
   31SAPC   H2S 4123   5.335   4.877   6.913  0.1555 -1.2008  1.4633
   31SAPC    C3 4124   5.042   5.241   6.776 -0.4827 -0.1076  0.0495
   31SAPC    HX 4125   4.973   5.273   6.695 -0.0978 -1.2511 -0.7519
   31SAPC    HY 4126   5.082   5.336   6.815 -1.0569 -0.0368  0.4749
   31SAPC   O31 4127   4.952   5.171   6.863  0.0396  1.0129  0.8952
   31SAPC   C31 4128   4.989   5.183   6.993  0.4198  0.3525 -0.4239
   31SAPC   O32 4129   5.052   5.275   7.040  0.1388 -0.1189  0.1016
   31SAPC   C32 4130   4.953   5.069   7.079  0.2464 -0.1246  0.1570
   31SAPC   H2X 4131   4.942   4.978   7.015 -0.4547  0.2734 -0.3004
   31SAPC   H2Y 4132   4.852   5.086   7.124  1.1986  1.0101  1.9126
   31SAPC   C23 4133   5.531   4.853   6.819  0.4700  0.4180 -0.0377
   31SAPC   H3R 4134   5.609   4.926   6.788  1.3358  0.2558  1.7158
   31SAPC   H3S 4135   5.495   4.789   6.735  0.3293  0.8191 -0.2848
   31SAPC   C24 4136   5.601   4.768   6.925 -0.3866 -0.5145  0.0326
   31SAPC   H4R 4137   5.676   4.713   6.864  0.6609 -2.1832  2.7548
   31SAPC   H4S 4138   5.517   4.701   6.950 -0.5490 -0.2315  0.2399
   31SAPC   C25 4139   5.668   4.861   7.030 -0.1291 -0.0855  0.0778
   31SAPC   H5R 4140   5.742   4.933   6.992 -0.1086 -0.2521 -0.2018
   31SAPC   C26 4141   5.601   4.884   7.147 -0.7072  0.0433 -0.0270
   31SAPC   H6R 4142   5.662   4.940   7.219 -1.6155 -0.7480  1.3799
   31SAPC   C27 4143   5.469   4.828   7.196 -0.0718 -0.4431  0.0978
   31SAPC   H7R 4144   5.461   4.721   7.167 -1.2288 -0.2236 -0.3787
   31SAPC   H7S 4145   5.392   4.884   7.139  2.7670  2.1909 -1.2627
   31SAPC   C28 4146   5.443   4.841   7.346 -0.5346 -0.4001  0.8047
   31SAPC   H8R 4147   5.430   4.750   7.406 -0.3238  0.3258  1.9745
   31SAPC   C29 4148   5.413   4.947   7.419 -0.0943  0.7017  0.7257
   31SAPC   H9R 4149   5.392   4.944   7.526  0.2971  1.7113  0.8326
   31SAPC  C210 4150   5.393   5.075   7.348  0.4911 -1.0193  0.3601
   31SAPC  H10R 4151   5.288   5.076   7.311  1.2383  0.3679 -1.8622
   31SAPC  H10S 4152   5.465   5.092   7.265 -0.9312  2.7843 -0.1945
   31SAPC  C211 4153   5.416   5.192   7.440 -0.4095  0.6950 -1.1192
   31SAPC  H11R 4154   5.397   5.167   7.545  2.2776  0.6345 -0.6071
   31SAPC  C212 4155   5.480   5.304   7.411 -0.3106  0.2182 -0.3364
   31SAPC  H12R 4156   5.492   5.376   7.493  3.1558 -2.1282  1.3363
   31SAPC  C213 4157   5.529   5.347   7.278 -0.7731 -0.0852 -0.4749
   31SAPC  H13R 4158   5.531   5.458   7.271 -1.1916  0.1245  2.4604
   31SAPC  H13S 4159   5.448   5.319   7.207 -1.8910 -0.4571  0.9310
   31SAPC  C214 4160   5.665   5.293   7.239 -0.0143 -0.1277  0.3557
   31SAPC  H14R 4161   5.728   5.266   7.325  0.7814  0.1654 -0.1266
   31SAPC  C215 4162   5.699   5.264   7.108 -0.5510  0.9040 -0.3841
   31SAPC  H15R 4163   5.805   5.239   7.090 -0.5186  0.5848  0.2316
   31SAPC  C216 4164   5.622   5.290   6.985  0.1069  0.4973 -0.0700
   31SAPC  H16R 4165   5.537   5.356   7.012  1.0637  1.2345  1.1885
   31SAPC  H16S 4166   5.574   5.199   6.943 -2.6329  1.1045  1.6231
   31SAPC  C217 4167   5.685   5.362   6.872 -0.1844 -0.2687 -0.4490
   31SAPC  H17R 4168   5.753   5.446   6.900 -0.5968 -0.0484 -0.1118
   31SAPC  H17S 4169   5.619   5.415   6.800  1.3535  0.3276 -1.4489
   31SAPC  C218 4170   5.751   5.264   6.773 -0.2809  0.3148  0.1182
   31SAPC  H18R 4171   5.786   5.312   6.679  0.4528 -0.2564  0.0954
   31SAPC  H18S 4172   5.678   5.187   6.741  0.5086 -0.5654  0.4057
   31SAPC  C219 4173   5.867   5.182   6.828 -0.7938  1.3273 -0.8282
   31SAPC  H19R 4174   5.829   5.106   6.899  1.2368  1.4421  0.4197
   31SAPC  H19S 4175   5.932   5.254   6.883 -0.1672  2.1204 -2.5629
   31SAPC  C220 4176   5.952   5.113   6.716 -0.1524 -0.2238 -0.1496
   31SAPC  H20R 4177   6.020   5.034   6.755  0.0910  0.3353  0.5684
   31SAPC  H20S 4178   6.021   5.178   6.658 -0.7186 -0.5870 -1.2457
   31SAPC  H20T 4179   5.876   5.063   6.652  0.1686  1.3940 -1.8438
   31SAPC   C33 4180   5.051   5.040   7.197  0.2687 -0.2735 -0.0409
   31SAPC   H3X 4181   5.084   5.131   7.251 -2.3187  0.4941  0.3111
   31SAPC   H3Y 4182   5.127   4.967   7.162  1.2510  0.9142 -0.3935
   31SAPC   C34 4183   4.976   4.974   7.313  0.1673  0.1767  0.4582
   31SAPC   H4X 4184   4.912   4.891   7.275  0.1525  0.6104 -0.4985
   31SAPC   H4Y 4185   4.910   5.050   7.360  1.4864  0.7571  1.4094
   31SAPC   C35 4186   5.068   4.921   7.422 -0.1317  0.4936 -0.3327
   31SAPC   H5X 4187   5.129   5.006   7.460 -2.0885  1.4454  0.7670
   31SAPC   H5Y 4188   5.120   4.829   7.388 -1.9480 -0.3166 -1.0096
   31SAPC   C36 4189   4.982   4.870   7.542 -0.0268 -0.4128 -0.0244
   31SAPC   H6X 4190   4.892   4.818   7.504  0.1871 -1.2320  0.5813
   31SAPC   H6Y 4191   4.928   4.951   7.597 -1.6151 -0.5174 -1.3960
   31SAPC   C37 4192   5.058   4.793   7.648 -0.1617  0.0133  0.5668
   31SAPC   H7X 4193   5.129   4.862   7.699  1.5883  1.2134 -3.3195
   31SAPC   H7Y 4194   5.126   4.715   7.608 -2.0490 -0.4365 -1.9081
   31SAPC   C38 4195   4.979   4.718   7.757  0.1443  0.1361  0.2905
   31SAPC   H8X 4196   4.934   4.626   7.713  0.4169 -0.1931  0.7007
   31SAPC   H8Y 4197   4.904   4.780   7.811  0.8507  0.8885  0.4122
   31SAPC   C39 4198   5.071   4.653   7.861 -0.7243  0.1014  0.2560
   31SAPC   H9X 4199   5.165   4.705   7.887  0.0004 -0.6734 -0.7886
   31SAPC   H9Y 4200   5.105   4.554   7.824 -0.4659  0.1669  0.3207
   31SAPC  C310 4201   4.995   4.626   7.992 -0.3113 -0.3952  0.0737
   31SAPC  H10X 4202   4.887   4.604   7.975 -0.9797 -0.8293  4.1597
   31SAPC  H10Y 4203   4.996   4.721   8.050 -1.6030 -0.8729  0.9241
   31SAPC  C311 4204   5.048   4.513   8.083 -0.4143  0.1178  0.3498
   31SAPC  H11X 4205   5.017   4.420   8.030  0.2652 -0.2006  0.4948
   31SAPC  H11Y 4206   4.995   4.516   8.180  0.4863 -0.1070  0.8535
   31SAPC  C312 4207   5.200   4.517   8.106 -0.6357  0.2717 -0.5298
   31SAPC  H12X 4208   5.230   4.618   8.139  0.4795 -1.0705  2.8309
   31SAPC  H12Y 4209   5.259   4.487   8.016  2.6105  1.8489  0.9977
   31SAPC  C313 4210   5.230   4.431   8.232  0.5229  0.4627  0.0403
   31SAPC  H13X 4211   5.225   4.324   8.206  1.1710  0.6951 -1.1191
   31SAPC  H13Y 4212   5.169   4.460   8.320 -0.1602 -0.1951 -0.2144
   31SAPC  C314 4213   5.378   4.445   8.266 -0.4633  0.4252 -0.3309
   31SAPC  H14X 4214   5.387   4.366   8.344 -1.5771  0.0323 -0.5800
   31SAPC  H14Y 4215   5.394   4.548   8.303  2.2931  0.6198 -1.8989
   31SAPC  C315 4216   5.483   4.425   8.151  0.3501 -0.0274 -0.3278
   31SAPC  H15X 4217   5.468   4.503   8.073  1.3201 -1.0129 -1.5170
   31SAPC  H15Y 4218   5.475   4.327   8.100 -1.5576 -1.2747  2.2972
   31SAPC  C316 4219   5.624   4.435   8.192 -0.0244 -0.1728 -0.1958
   31SAPC  H16X 4220   5.629   4.348   8.261 -0.0424  0.5918  0.7844
   31SAPC  H16Y 4221   5.628   4.525   8.257 -0.5111 -1.2153  1.3111
   31SAPC  C317 4222   5.731   4.433   8.078 -0.3815  0.3363 -0.4464
   31SAPC  H17X 4223   5.721   4.526   8.017 -2.5912 -1.3239 -2.7443
   31SAPC  H17Y 4224   5.711   4.355   8.002  3.8631 -2.4582  1.1617
   31SAPC  C318 4225   5.872   4.406   8.141  0.3004 -0.2848  0.1844
   31SAPC  H18X 4226   5.888   4.467   8.232 -1.3997  0.7312 -0.1614
   31SAPC  H18Y 4227   5.948   4.411   8.060 -0.1320 -0.2272 -0.2256
   31SAPC  H18Z 4228   5.878   4.300   8.172 -0.5397 -0.6949 -0.9846
   32SAPC     N 4229   1.005   5.796   6.064 -0.6454 -0.5683 -0.6560
   32SAPC   C12 4230   0.939   5.836   6.200  0.5932  1.0360 -0.2339
   32SAPC  H12A 4231   0.978   5.774   6.280 -0.9607  1.3944  0.8197
   32SAPC  H12B 4232   0.835   5.808   6.197  1.2699 -1.4517 -4.1412
   32SAPC   C13 4233   0.954   5.891   5.963  0.2580 -0.1622 -0.3578
   32SAPC  H13A 4234   0.849   5.868   5.951  0.3841 -1.5405  1.0829
   32SAPC  H13B 4235   0.972   5.996   5.981  0.1458 -0.0627 -0.8182
   32SAPC  H13C 4236   0.993   5.872   5.864  0.1665 -1.0505 -0.2236
   32SAPC   C14 4237   1.152   5.815   6.078  0.1904 -0.0541  1.1055
   32SAPC  H14A 4238   1.192   5.745   6.150 -1.8441 -0.0083  2.3157
   32SAPC  H14B 4239   1.197   5.803   5.981 -1.7450 -1.0616  0.3104
   32SAPC  H14C 4240   1.174   5.915   6.113  2.3493  0.2330 -1.0146
   32SAPC   C15 4241   0.984   5.653   6.033 -0.4864  0.0034 -0.3064
   32SAPC  H15A 4242   1.022   5.586   6.108 -1.3446  1.6788  1.6945
   32SAPC  H15B 4243   0.877   5.638   6.032 -0.4979 -0.1196  1.8393
   32SAPC  H15C 4244   1.021   5.627   5.935 -1.5911 -0.1715 -0.6834
   32SAPC   C11 4245   0.944   5.983   6.244 -0.7779  0.5682 -0.3693
   32SAPC  H11A 4246   1.049   6.019   6.235  0.7170 -3.6832 -0.7023
   32SAPC  H11B 4247   0.918   5.989   6.352  1.2994 -0.7559  0.2360
   32SAPC     P 4248   0.721   6.082   6.191  0.0400 -0.0517 -0.1673
   32SAPC   O13 4249   0.663   6.188   6.110 -0.3109 -0.0203  0.2273
   32SAPC   O14 4250   0.654   5.949   6.186 -0.4584 -0.5122  0.6077
   32SAPC   O12 4251   0.870   6.067   6.155  0.0728 -0.1785 -0.2149
   32SAPC   O11 4252   0.726   6.129   6.337  0.2885  0.6488 -0.0722
   32SAPC    C1 4253   0.625   6.217   6.387 -0.2453 -0.2684 -0.3851
   32SAPC    HA 4254   0.633   6.319   6.342 -0.7533  1.2023  2.7269
   32SAPC    HB 4255   0.520   6.186   6.374 -0.6038  0.8984 -0.3857
   32SAPC    C2 4256   0.639   6.252   6.540  0.5501 -0.1139 -0.5233
   32SAPC    HS 4257   0.726   6.321   6.548  0.8769 -0.2563 -2.6547
   32SAPC   O21 4258   0.665   6.127   6.605  0.1016 -0.4849 -0.6969
   32SAPC   C21 4259   0.790   6.098   6.631  0.0106 -0.8263  0.2926
   32SAPC   O22 4260   0.878   6.183   6.625 -0.6947  0.4622 -0.2319
   32SAPC   C22 4261   0.809   5.961   6.691 -0.4286  0.0137 -0.7718
   32SAPC   H2R 4262   0.793   5.876   6.621 -1.1251  0.3365 -0.9994
   32SAPC   H2S 4263   0.919   5.960   6.710 -0.8047 -0.9645  1.5404
   32SAPC    C3 4264   0.512   6.327   6.593 -0.0885  0.3254  0.3116
   32SAPC    HX 4265   0.422   6.293   6.538 -0.1587  1.1404 -0.0689
   32SAPC    HY 4266   0.528   6.434   6.571 -0.1197  0.0236 -1.2076
   32SAPC   O31 4267   0.492   6.296   6.729  0.3274  0.4799 -0.0448
   32SAPC   C31 4268   0.444   6.173   6.758  0.9457  0.6885  0.6664
   32SAPC   O32 4269   0.402   6.099   6.671  0.2496 -0.0330 -0.1909
   32SAPC   C32 4270   0.434   6.143   6.910  0.2080 -0.4624 -0.2952
   32SAPC   H2X 4271   0.410   6.240   6.956  1.7424 -0.4306  0.4829
   32SAPC   H2Y 4272   0.533   6.106   6.947 -0.4408  0.3781  2.3500
   32SAPC   C23 4273   0.743   5.928   6.819 -0.1962  0.9585 -0.3161
   32SAPC   H3R 4274   0.634   5.914   6.803  0.1705 -0.2898 -1.8317
   32SAPC   H3S 4275   0.764   6.012   6.889  0.5351  0.9650 -0.5393
   32SAPC   C24 4276   0.791   5.796   6.886 -0.8902  0.2892  0.1211
   32SAPC   H4R 4277   0.902   5.802   6.894 -0.9822 -1.2236  3.5441
   32SAPC   H4S 4278   0.744   5.711   6.832 -1.9944  2.5037 -2.4869
   32SAPC   C25 4279   0.735   5.797   7.031  0.1402 -0.7670 -0.3846
   32SAPC   H5R 4280   0.649   5.732   7.050 -2.1296  1.9805 -0.8372
   32SAPC   C26 4281   0.797   5.855   7.134  0.7553 -0.6520 -0.6371
   32SAPC   H6R 4282   0.747   5.839   7.231 -0.4528 -1.0211 -1.3094
   32SAPC   C27 4283   0.918   5.946   7.142  0.7210 -0.1077 -0.3121
   32SAPC   H7R 4284   0.983   5.971   7.055 -0.3440 -1.2319 -1.4493
   32SAPC   H7S 4285   1.002   5.917   7.209  1.2922  0.4929 -0.7630
   32SAPC   C28 4286   0.851   6.079   7.174  0.1085  0.0161  0.4368
   32SAPC   H8R 4287   0.840   6.150   7.091 -0.4437  0.1508  0.6206
   32SAPC   C29 4288   0.812   6.122   7.298 -0.0213  0.8275  0.2379
   32SAPC   H9R 4289   0.761   6.219   7.299 -0.2303  0.7093  0.9777
   32SAPC  C210 4290   0.831   6.056   7.438 -0.6027  0.1646  0.2669
   32SAPC  H10R 4291   0.912   5.981   7.426  0.5068  1.4920 -0.8521
   32SAPC  H10S 4292   0.733   6.009   7.458 -0.2605 -1.4347 -1.5784
   32SAPC  C211 4293   0.881   6.142   7.546  0.0987  0.1642 -0.9165
   32SAPC  H11R 4294   0.865   6.248   7.520  0.3803  0.3796 -0.2138
   32SAPC  C212 4295   0.937   6.108   7.666 -0.1140 -0.7843 -0.1355
   32SAPC  H12R 4296   0.956   6.185   7.743 -2.8486  1.8139 -1.9544
   32SAPC  C213 4297   0.965   5.969   7.715 -0.2519 -0.3166 -0.5527
   32SAPC  H13R 4298   0.941   5.894   7.636 -1.6234  1.0530 -1.4657
   32SAPC  H13S 4299   0.900   5.947   7.802 -1.0755  1.8606 -0.5920
   32SAPC  C214 4300   1.113   5.970   7.756 -0.2920  0.6767 -0.4400
   32SAPC  H14R 4301   1.186   5.928   7.686  0.5237  1.9573 -0.3738
   32SAPC  C215 4302   1.163   6.010   7.878  0.4892  0.3936  0.0940
   32SAPC  H15R 4303   1.271   6.000   7.900  0.8027 -0.4791 -1.7462
   32SAPC  C216 4304   1.087   6.073   7.983 -0.0787 -0.1436 -0.1954
   32SAPC  H16R 4305   1.097   6.018   8.079 -0.0079 -1.4528 -0.9505
   32SAPC  H16S 4306   0.981   6.087   7.955  0.2396  1.3380 -0.7168
   32SAPC  C217 4307   1.129   6.212   8.018 -0.0171 -0.6910 -0.5864
   32SAPC  H17R 4308   1.044   6.267   8.066  1.5195  2.1389 -0.9767
   32SAPC  H17S 4309   1.156   6.275   7.930  0.6568  1.2012  0.9537
   32SAPC  C218 4310   1.267   6.218   8.093 -0.1782 -0.3226 -0.4250
   32SAPC  H18R 4311   1.289   6.327   8.091  0.1979 -0.4077 -1.2651
   32SAPC  H18S 4312   1.350   6.160   8.047 -1.1021 -0.3452 -2.0876
   32SAPC  C219 4313   1.261   6.178   8.241  0.0221  0.4441 -0.1490
   32SAPC  H19R 4314   1.244   6.069   8.255  1.3803  0.2594  0.1215
   32SAPC  H19S 4315   1.182   6.245   8.282  1.0240  1.2124  0.5652
   32SAPC  C220 4316   1.394   6.206   8.311 -0.6073 -0.2773 -0.6611
   32SAPC  H20R 4317   1.413   6.311   8.341 -0.5423 -0.5060  0.1097
   32SAPC  H20S 4318   1.482   6.187   8.247 -0.0455  1.1057 -0.3217
   32SAPC  H20T 4319   1.402   6.134   8.396  1.6930  0.5102 -0.1832
   32SAPC   C33 4320   0.329   6.043   6.945  0.5898 -0.4471  0.8406
   32SAPC   H3X 4321   0.360   5.943   6.909  0.2343 -0.1365 -0.3380
   32SAPC   H3Y 4322   0.234   6.056   6.889 -1.7349 -2.0280  4.2442
   32SAPC   C34 4323   0.296   6.034   7.099 -0.2683  0.2347 -0.4979
   32SAPC   H4X 4324   0.213   5.960   7.091 -1.1866  1.1877  0.0887
   32SAPC   H4Y 4325   0.257   6.131   7.135  1.3419  0.6158  0.2797
   32SAPC   C35 4326   0.417   5.973   7.172 -0.5284  0.2489  0.0814
   32SAPC   H5X 4327   0.496   6.051   7.175 -0.4176  0.1462 -0.1894
   32SAPC   H5Y 4328   0.456   5.888   7.113 -1.2081 -1.5132  2.1235
   32SAPC   C36 4329   0.385   5.898   7.304  1.2256 -0.1274  0.4092
   32SAPC   H6X 4330   0.477   5.872   7.361 -1.1570  2.2203  5.6416
   32SAPC   H6Y 4331   0.331   5.803   7.289  0.5546  0.3263 -0.0883
   32SAPC   C37 4332   0.304   5.989   7.408  0.1347  0.2496 -0.5066
   32SAPC   H7X 4333   0.198   5.984   7.377 -1.0815 -0.2527  3.5286
   32SAPC   H7Y 4334   0.341   6.090   7.380  1.4945 -0.1943 -0.3704
   32SAPC   C38 4335   0.321   5.951   7.556  0.0812  0.4862 -0.2108
   32SAPC   H8X 4336   0.274   5.853   7.578 -2.9773  1.6763 -1.1536
   32SAPC   H8Y 4337   0.262   6.026   7.612  1.9015  2.5626 -1.0146
   32SAPC   C39 4338   0.465   5.946   7.608  0.0632 -0.3135 -0.0022
   32SAPC   H9X 4339   0.524   6.021   7.551  1.5181 -0.7250  0.9284
   32SAPC   H9Y 4340   0.498   5.842   7.586  1.2730 -0.2568  1.4598
   32SAPC  C310 4341   0.468   5.973   7.758 -0.0687  0.3463 -0.2569
   32SAPC  H10X 4342   0.407   5.894   7.806 -2.2523  1.3178 -1.3735
   32SAPC  H10Y 4343   0.421   6.070   7.785  1.3130  0.9513  0.0498
   32SAPC  C311 4344   0.610   5.969   7.818 -0.2789  0.0999 -0.1850
   32SAPC  H11X 4345   0.666   6.048   7.763  1.1571  0.2683  1.4594
   32SAPC  H11Y 4346   0.651   5.873   7.781  0.4682  1.2257 -2.4254
   32SAPC  C312 4347   0.614   5.998   7.965  0.1965  0.0032 -0.3860
   32SAPC  H12X 4348   0.514   5.978   8.009  1.2188 -0.1979  1.9333
   32SAPC  H12Y 4349   0.636   6.106   7.979  0.8837  0.1528 -2.4290
   32SAPC  C313 4350   0.715   5.926   8.053  0.3054  0.2150 -0.2011
   32SAPC  H13X 4351   0.815   5.948   8.010  0.0849 -2.5069 -2.2365
   32SAPC  H13Y 4352   0.707   5.816   8.043 -1.7655  0.2527  0.7919
   32SAPC  C314 4353   0.708   5.962   8.206 -0.1647 -0.7159  0.0965
   32SAPC  H14X 4354   0.656   6.059   8.215 -2.5907 -1.7515 -2.1514
   32SAPC  H14Y 4355   0.812   5.975   8.245  0.3399  1.6783 -1.8955
   32SAPC  C315 4356   0.645   5.843   8.279  0.0807  0.2288 -0.0449
   32SAPC  H15X 4357   0.702   5.750   8.259  0.0909 -0.8535  4.5668
   32SAPC  H15Y 4358   0.540   5.829   8.244 -0.3441  1.0418  0.8717
   32SAPC  C316 4359   0.640   5.875   8.426 -0.1425 -0.7123 -0.2655
   32SAPC  H16X 4360   0.592   5.973   8.443 -0.2945 -0.2691 -2.9462
   32SAPC  H16Y 4361   0.744   5.875   8.465  0.0545 -0.6360 -0.7895
   32SAPC  C317 4362   0.565   5.760   8.502  0.2943  0.2458 -0.1455
   32SAPC  H17X 4363   0.637   5.676   8.490 -1.4539 -0.7415 -4.7033
   32SAPC  H17Y 4364   0.474   5.728   8.447  0.3705 -1.6823  0.8164
   32SAPC  C318 4365   0.547   5.782   8.648  0.4712  0.0656 -0.3954
   32SAPC  H18X 4366   0.471   5.861   8.666 -0.3348 -0.7506 -0.2134
   32SAPC  H18Y 4367   0.637   5.818   8.704  0.0762  0.3908  0.0448
   32SAPC  H18Z 4368   0.522   5.695   8.712  0.6365  0.2660 -0.0537
   33POPC     N 4369   4.706   0.399  10.698 -0.2858  0.3362  0.2265
   33POPC   C12 4370   4.798   0.289  10.758  1.0016 -0.0411  0.1266
   33POPC  H12A 4371   4.807   0.321  10.860 -0.0827  1.3045 -0.1881
   33POPC  H12B 4372   4.896   0.288  10.712 -0.4529  0.6387 -3.0951
   33POPC   C13 4373   4.577   0.400  10.775 -0.0516 -0.4288 -0.2047
   33POPC  H13A 4374   4.581   0.436  10.877 -1.1006  1.2293 -0.7388
   33POPC  H13B 4375   4.498   0.453  10.725 -0.6312 -1.1997 -0.1214
   33POPC  H13C 4376   4.541   0.298  10.776  0.9201 -0.7747  0.0112
   33POPC   C14 4377   4.771   0.530  10.699 -0.1571 -0.2540 -0.4553
   33POPC  H14A 4378   4.876   0.525  10.673 -0.4760 -0.6323 -1.6819
   33POPC  H14B 4379   4.714   0.595  10.635  1.2137  1.1199 -0.2883
   33POPC  H14C 4380   4.774   0.574  10.798  0.7292 -2.9704  0.7669
   33POPC   C15 4381   4.675   0.364  10.560  0.4095  0.2723 -0.4399
   33POPC  H15A 4382   4.597   0.429  10.524 -0.8378 -0.2911  1.1871
   33POPC  H15B 4383   4.627   0.268  10.553  1.5129 -0.2731 -0.5988
   33POPC  H15C 4384   4.762   0.368  10.497  1.2147  0.0020  0.6501
   33POPC   C11 4385   4.752   0.142  10.760 -0.2955  0.2188 -0.2874
   33POPC  H11A 4386   4.665   0.129  10.828 -0.4087  1.1677 -0.2483
   33POPC  H11B 4387   4.831   0.080  10.809 -0.8891 -0.2238  0.1248
   33POPC     P 4388   4.792  -0.010  10.551  0.1157  0.0819  0.7588
   33POPC   O13 4389   4.801  -0.129  10.642 -0.2965  0.2188  0.6489
   33POPC   O14 4390   4.923   0.048  10.498 -0.2719 -0.1416  0.4397
   33POPC   O12 4391   4.712   0.098  10.625  0.0876 -0.5019  0.3540
   33POPC   O11 4392   4.697  -0.040  10.428 -0.1141  0.2734 -0.1156
   33POPC    C1 4393   4.648   0.067  10.341 -0.0671  0.4970 -0.5914
   33POPC    HA 4394   4.663   0.173  10.371  1.4214  0.0073  0.4186
   33POPC    HB 4395   4.672   0.057  10.233  1.4800  1.0981 -0.3134
   33POPC    C2 4396   4.495   0.046  10.332 -0.3057  0.3202 -0.3306
   33POPC    HS 4397   4.454   0.057  10.434 -0.0952 -1.9504  0.0252
   33POPC   O21 4398   4.466  -0.088  10.275  0.8277  0.6017  0.2990
   33POPC   C21 4399   4.344  -0.142  10.306 -0.0642  0.6861 -0.6669
   33POPC   O22 4400   4.260  -0.081  10.370 -0.1168  0.1390 -0.1283
   33POPC   C22 4401   4.321  -0.287  10.257 -0.1665  0.1248  0.3822
   33POPC   H2R 4402   4.214  -0.296  10.230 -0.2361 -1.3298  1.0546
   33POPC   H2S 4403   4.358  -0.355  10.337  1.7235  0.9423  0.2227
   33POPC    C3 4404   4.431   0.161  10.251  0.1385  0.7827  0.5256
   33POPC    HX 4405   4.441   0.257  10.307  1.2563  0.4508  0.9057
   33POPC    HY 4406   4.321   0.146  10.242  0.6983 -3.1303 -0.4086
   33POPC   O31 4407   4.492   0.181  10.128 -0.2407 -0.0166 -0.0780
   33POPC   C31 4408   4.418   0.151  10.025  0.3585 -0.2698  0.7076
   33POPC   O32 4409   4.303   0.114  10.017  0.3919  0.1689 -0.4694
   33POPC   C32 4410   4.503   0.153   9.899  0.0958  0.0812 -0.3111
   33POPC   H2X 4411   4.489   0.049   9.863 -0.5288 -0.0421  0.2651
   33POPC   H2Y 4412   4.611   0.171   9.919  0.0333  0.1523 -0.0340
   33POPC   C23 4413   4.401  -0.318  10.123 -0.0474 -0.0886 -0.1675
   33POPC   H3R 4414   4.394  -0.428  10.112 -0.0206  0.0014 -1.0675
   33POPC   H3S 4415   4.510  -0.300  10.137 -0.2077  0.7420  0.0472
   33POPC   C24 4416   4.343  -0.253   9.993 -0.2093  0.3489  0.1217
   33POPC   H4R 4417   4.329  -0.145  10.018 -0.7932 -0.2113  2.3675
   33POPC   H4S 4418   4.246  -0.303   9.975 -0.7398  1.3741  0.0841
   33POPC   C25 4419   4.454  -0.254   9.884 -0.4584 -0.5566 -0.3091
   33POPC   H5R 4420   4.511  -0.349   9.877  1.9137  0.5902  2.2567
   33POPC   H5S 4421   4.523  -0.169   9.901 -1.6986  1.0990 -3.1639
   33POPC   C26 4422   4.408  -0.230   9.746  0.6398 -0.1701  0.1404
   33POPC   H6R 4423   4.367  -0.127   9.755  0.8611 -0.3010  2.8573
   33POPC   H6S 4424   4.330  -0.299   9.707  1.0518 -0.1630 -0.7221
   33POPC   C27 4425   4.524  -0.236   9.647 -0.7647  0.1077  0.5167
   33POPC   H7R 4426   4.556  -0.341   9.634  3.1528  1.4994 -2.1203
   33POPC   H7S 4427   4.615  -0.184   9.683 -1.8569  0.5954  2.6441
   33POPC   C28 4428   4.482  -0.179   9.511  0.5758  0.4782  0.3269
   33POPC   H8R 4429   4.472  -0.073   9.541 -0.0222  0.2044  1.0933
   33POPC   H8S 4430   4.384  -0.214   9.472  1.1609 -1.3876  0.4527
   33POPC   C29 4431   4.598  -0.187   9.417  0.1684 -0.3832  0.0936
   33POPC   H91 4432   4.695  -0.215   9.459  0.4112  1.0358  0.4897
   33POPC  C210 4433   4.593  -0.148   9.291  0.2899 -0.4145  0.3483
   33POPC  H101 4434   4.680  -0.156   9.223 -0.4900 -2.9838 -0.4072
   33POPC  C211 4435   4.472  -0.101   9.216  0.4194  0.0976 -0.2162
   33POPC  H11R 4436   4.473   0.007   9.190  1.9498  0.6954  2.1316
   33POPC  H11S 4437   4.385  -0.105   9.285  0.1330  1.1661 -0.5078
   33POPC  C212 4438   4.438  -0.182   9.087 -0.4214 -0.3440 -0.2974
   33POPC  H12R 4439   4.357  -0.133   9.028 -1.0221 -1.4211 -0.3664
   33POPC  H12S 4440   4.391  -0.276   9.121 -1.2752  0.6935  1.4586
   33POPC  C213 4441   4.559  -0.205   8.996 -0.3833 -0.3413 -0.3076
   33POPC  H13R 4442   4.523  -0.277   8.919  0.4319 -1.4161  0.2889
   33POPC  H13S 4443   4.649  -0.252   9.041  0.6476  0.4476 -1.5241
   33POPC  C214 4444   4.617  -0.078   8.936  0.1332 -0.1368 -0.3305
   33POPC  H14R 4445   4.653  -0.015   9.020  2.7569 -2.9950  0.7923
   33POPC  H14S 4446   4.534  -0.044   8.871  0.1350  1.6039  0.5501
   33POPC  C215 4447   4.742  -0.109   8.848  0.7014  0.6293  0.6021
   33POPC  H15R 4448   4.810  -0.177   8.902  1.1563  0.4525 -0.1888
   33POPC  H15S 4449   4.794  -0.013   8.826  0.1911  0.6919 -0.3607
   33POPC  C216 4450   4.695  -0.154   8.701 -0.4383  0.2565 -0.3382
   33POPC  H16R 4451   4.611  -0.088   8.670 -1.7568 -0.4715  1.5921
   33POPC  H16S 4452   4.653  -0.254   8.724  0.7059 -0.1097  0.2025
   33POPC  C217 4453   4.803  -0.164   8.592 -0.2993 -0.2986  0.3432
   33POPC  H17R 4454   4.882  -0.238   8.619  0.0278 -0.9479 -2.2926
   33POPC  H17S 4455   4.855  -0.066   8.579  1.3825 -1.4544 -1.9096
   33POPC  C218 4456   4.738  -0.206   8.456 -0.3387  0.6199 -0.1545
   33POPC  H18R 4457   4.671  -0.123   8.427  1.5303  2.1693 -0.0813
   33POPC  H18S 4458   4.671  -0.295   8.459 -0.1733  0.5138  0.6599
   33POPC  H18T 4459   4.816  -0.223   8.379 -1.2047 -1.6657 -0.5742
   33POPC   C33 4460   4.473   0.256   9.785  1.0595 -0.1985 -0.3036
   33POPC   H3X 4461   4.487   0.361   9.817  1.9114 -1.4552  3.8113
   33POPC   H3Y 4462   4.365   0.247   9.762  1.5038  1.7777 -3.3341
   33POPC   C34 4463   4.549   0.222   9.660  0.2929 -0.3029  0.6500
   33POPC   H4X 4464   4.531   0.119   9.625 -4.3962  0.6083  0.0909
   33POPC   H4Y 4465   4.659   0.234   9.674  0.4272 -0.6857 -0.0612
   33POPC   C35 4466   4.510   0.318   9.549 -0.2927  0.1998 -0.2812
   33POPC   H5X 4467   4.590   0.323   9.472 -0.1619  0.3538 -0.1369
   33POPC   H5Y 4468   4.506   0.418   9.598 -2.5843 -0.6636  1.3857
   33POPC   C36 4469   4.389   0.267   9.467 -0.5345 -0.0177 -0.6225
   33POPC   H6X 4470   4.303   0.235   9.530 -0.7494  1.9052  0.1064
   33POPC   H6Y 4471   4.411   0.172   9.415 -0.5355 -0.3888  0.0473
   33POPC   C37 4472   4.337   0.370   9.370  0.5738 -0.5836 -0.2901
   33POPC   H7X 4473   4.421   0.399   9.303  0.0970 -0.6752 -0.9259
   33POPC   H7Y 4474   4.310   0.469   9.411  0.8120 -0.4086 -0.5553
   33POPC   C38 4475   4.227   0.312   9.291 -0.0843  0.6101  0.2148
   33POPC   H8X 4476   4.146   0.271   9.356  1.5022 -0.6152  1.4658
   33POPC   H8Y 4477   4.252   0.228   9.224 -1.0392  2.5020 -2.5846
   33POPC   C39 4478   4.158   0.412   9.198 -0.9502  0.0670 -0.0268
   33POPC   H9X 4479   4.243   0.430   9.128 -0.1574 -2.2583  0.2902
   33POPC   H9Y 4480   4.140   0.512   9.241 -0.8582 -0.0381  0.2596
   33POPC  C310 4481   4.049   0.363   9.119  0.5119 -0.2741  0.2338
   33POPC  H10X 4482   3.967   0.334   9.188  0.4179  1.2681  0.7877
   33POPC  H10Y 4483   4.078   0.271   9.065  1.7318 -0.2727  0.8563
   33POPC  C311 4484   4.004   0.452   9.004 -0.2476  1.2180  0.2507
   33POPC  H11X 4485   4.088   0.474   8.934 -0.2737  2.2302  0.5331
   33POPC  H11Y 4486   3.972   0.550   9.048 -2.0601 -0.1438  2.0760
   33POPC  C312 4487   3.883   0.392   8.936 -0.7507  0.0235 -0.6434
   33POPC  H12X 4488   3.792   0.403   8.998  0.5296  2.2809  0.9104
   33POPC  H12Y 4489   3.889   0.282   8.919 -2.0261  0.0368 -1.2718
   33POPC  C313 4490   3.863   0.459   8.797  0.8883  1.0146 -0.5944
   33POPC  H13X 4491   3.966   0.459   8.754  0.5656 -2.5346 -1.4472
   33POPC  H13Y 4492   3.816   0.560   8.797 -3.1454 -0.7272  2.1869
   33POPC  C314 4493   3.784   0.357   8.701  0.5434 -0.3879  0.6995
   33POPC  H14X 4494   3.857   0.276   8.677 -2.6311 -3.1888  0.0873
   33POPC  H14Y 4495   3.770   0.419   8.610  1.6480  1.0466  1.4816
   33POPC  C315 4496   3.654   0.295   8.744 -0.5651  0.4655  1.5364
   33POPC  H15X 4497   3.589   0.377   8.782  0.0362  1.6914 -0.0301
   33POPC  H15Y 4498   3.665   0.236   8.837  1.2054  1.9322  2.2816
   33POPC  C316 4499   3.583   0.237   8.619 -0.0305  0.3242 -0.3021
   33POPC  H16X 4500   3.654   0.167   8.571  0.3404  0.0837  0.5805
   33POPC  H16Y 4501   3.531   0.309   8.552 -0.1425 -0.4173 -1.0170
   33POPC  H16Z 4502   3.501   0.167   8.648  0.2134  0.8730  1.8053
   34POPC     N 4503   4.384   1.536  10.684  0.8627 -0.0470 -0.7812
   34POPC   C12 4504   4.325   1.484  10.561  0.2088 -0.7729 -0.3917
   34POPC  H12A 4505   4.353   1.554  10.484 -0.8980 -0.5074 -0.5606
   34POPC  H12B 4506   4.217   1.487  10.571  0.2768  1.5426 -0.1316
   34POPC   C13 4507   4.334   1.458  10.803 -0.7413 -0.2171  0.5532
   34POPC  H13A 4508   4.337   1.353  10.777  0.5172 -0.4107  1.3955
   34POPC  H13B 4509   4.403   1.482  10.883 -1.9327  0.4859  1.3889
   34POPC  H13C 4510   4.232   1.483  10.828 -0.6147  0.7090  0.1823
   34POPC   C14 4511   4.533   1.540  10.681 -0.6395  0.3153 -0.6075
   34POPC  H14A 4512   4.572   1.440  10.667  0.1805  0.0923  2.8333
   34POPC  H14B 4513   4.578   1.597  10.601  0.5142  1.1909  0.6375
   34POPC  H14C 4514   4.582   1.571  10.773  0.4067  1.1345 -1.4224
   34POPC   C15 4515   4.330   1.673  10.715  0.0890 -0.2092  0.1863
   34POPC  H15A 4516   4.366   1.741  10.639  1.9316 -0.6209  0.6698
   34POPC  H15B 4517   4.360   1.715  10.809 -0.6493  0.7467  0.0063
   34POPC  H15C 4518   4.222   1.665  10.710  0.1721 -0.2742 -2.6387
   34POPC   C11 4519   4.371   1.340  10.525 -0.8042 -0.0824  0.0044
   34POPC  H11A 4520   4.472   1.323  10.568 -0.4168  1.3714 -0.2721
   34POPC  H11B 4521   4.361   1.328  10.415  0.7875  0.6523 -0.2301
   34POPC     P 4522   4.147   1.213  10.551 -0.2621 -0.0973 -0.0884
   34POPC   O13 4523   4.069   1.329  10.607  0.1434 -0.0830  0.1715
   34POPC   O14 4524   4.116   1.067  10.587  0.0893  0.1729 -0.2969
   34POPC   O12 4525   4.296   1.235  10.586  0.0600 -0.1030  0.0468
   34POPC   O11 4526   4.155   1.218  10.389 -0.2299  0.0290 -0.4011
   34POPC    C1 4527   4.082   1.325  10.331 -0.5532  0.1366  1.1002
   34POPC    HA 4528   4.133   1.346  10.235 -1.6685 -0.4483  0.3736
   34POPC    HB 4529   4.087   1.415  10.396 -0.4294 -0.0761  1.3900
   34POPC    C2 4530   3.942   1.273  10.301 -0.5893  0.3081  0.5142
   34POPC    HS 4531   3.901   1.235  10.397  0.4256 -0.9192  0.4780
   34POPC   O21 4532   3.952   1.169  10.205  0.2224  0.4204 -0.2131
   34POPC   C21 4533   3.852   1.095  10.177 -0.4383  0.7550  0.3648
   34POPC   O22 4534   3.741   1.106  10.229  0.1796  0.4005 -0.0340
   34POPC   C22 4535   3.895   0.979  10.071 -0.4707  0.0069 -0.9475
   34POPC   H2R 4536   3.802   0.919  10.062 -1.1994  1.0119 -0.2881
   34POPC   H2S 4537   3.969   0.906  10.110 -0.5179  1.3424  1.7812
   34POPC    C3 4538   3.844   1.388  10.250 -0.6663  0.1925  0.0271
   34POPC    HX 4539   3.827   1.459  10.333  1.6407 -1.4416  1.9579
   34POPC    HY 4540   3.740   1.350  10.243  0.0876 -2.0554  0.5245
   34POPC   O31 4541   3.896   1.462  10.140 -0.2585 -0.2091  0.0812
   34POPC   C31 4542   3.848   1.422  10.022 -0.8002 -0.4071  0.3197
   34POPC   O32 4543   3.768   1.339  10.003 -0.5680 -0.4427  0.0807
   34POPC   C32 4544   3.911   1.506   9.912 -0.0895  0.5845  0.6107
   34POPC   H2X 4545   4.011   1.544   9.941  0.2366 -0.1475  0.4375
   34POPC   H2Y 4546   3.852   1.601   9.912  1.1053  1.3548  1.8149
   34POPC   C23 4547   3.928   1.035   9.932 -0.2060 -0.4178  0.0064
   34POPC   H3R 4548   4.023   1.093   9.934 -0.2948 -0.3097  1.9381
   34POPC   H3S 4549   3.846   1.098   9.893  1.7637  1.6525 -0.8911
   34POPC   C24 4550   3.943   0.937   9.816  0.9333 -0.9074  0.2072
   34POPC   H4R 4551   3.853   0.875   9.800  0.5156 -0.8041  2.1355
   34POPC   H4S 4552   4.025   0.863   9.828  0.0925 -2.0751 -1.1970
   34POPC   C25 4553   3.977   1.008   9.683  0.2852 -0.3504 -0.0975
   34POPC   H5R 4554   4.075   1.058   9.700  0.1031  0.2639 -0.8194
   34POPC   H5S 4555   3.905   1.093   9.677  2.6525  1.6834 -0.7243
   34POPC   C26 4556   3.969   0.934   9.554 -0.1365 -0.2278  0.5490
   34POPC   H6R 4557   3.886   0.860   9.558 -0.7162  0.4821  2.8477
   34POPC   H6S 4558   4.065   0.882   9.533  1.2676  3.0038 -1.3809
   34POPC   C27 4559   3.930   1.021   9.437 -0.1800 -0.2290  0.0346
   34POPC   H7R 4560   3.837   1.073   9.465 -1.2447 -1.4777 -1.1157
   34POPC   H7S 4561   3.903   0.956   9.351  0.6429  0.7233 -0.9644
   34POPC   C28 4562   4.047   1.108   9.389 -0.2052  0.2046  0.0883
   34POPC   H8R 4563   4.146   1.061   9.373 -0.3003 -0.5222  1.5263
   34POPC   H8S 4564   4.055   1.181   9.473 -0.1196 -0.3534  0.5693
   34POPC   C29 4565   4.004   1.162   9.248 -0.7004  0.6051 -0.0059
   34POPC   H91 4566   4.033   1.097   9.164 -2.0183  0.4067 -0.3265
   34POPC  C210 4567   3.958   1.283   9.222  0.1365  0.4625 -0.1454
   34POPC  H101 4568   3.932   1.300   9.116  0.3273 -0.3564 -0.3267
   34POPC  C211 4569   3.922   1.388   9.325 -0.5133 -0.0392  0.4020
   34POPC  H11R 4570   3.950   1.353   9.427 -0.3608  0.5279  0.5594
   34POPC  H11S 4571   3.811   1.385   9.323 -0.5023 -0.0909 -0.2485
   34POPC  C212 4572   3.975   1.520   9.276  0.2301 -0.6528 -0.1603
   34POPC  H12R 4573   3.941   1.539   9.172  0.1018  1.9624  0.3370
   34POPC  H12S 4574   4.086   1.526   9.282  0.0897  1.2426  1.0610
   34POPC  C213 4575   3.920   1.635   9.363 -0.4791 -0.5618  0.1503
   34POPC  H13R 4576   3.975   1.647   9.459 -1.5024  2.2605  0.4406
   34POPC  H13S 4577   3.818   1.612   9.402 -1.5842  1.0247 -1.6755
   34POPC  C214 4578   3.927   1.774   9.287  0.2302  0.7665  0.3225
   34POPC  H14R 4579   3.860   1.757   9.199 -1.4507  1.0656  1.5076
   34POPC  H14S 4580   4.031   1.782   9.249  0.1620 -0.7128 -0.2194
   34POPC  C215 4581   3.867   1.894   9.364  0.0207 -0.1345  0.2345
   34POPC  H15R 4582   3.766   1.862   9.399 -0.9947  2.8046  0.1436
   34POPC  H15S 4583   3.864   1.971   9.284 -1.6683 -1.3226 -0.8935
   34POPC  C216 4584   3.944   1.930   9.497 -0.3915 -0.4070  0.0253
   34POPC  H16R 4585   3.949   2.040   9.504 -0.4836 -0.3159 -1.2258
   34POPC  H16S 4586   4.045   1.885   9.481  0.7511  1.8124  0.8024
   34POPC  C217 4587   3.860   1.875   9.616 -0.6091  0.0803  0.3526
   34POPC  H17R 4588   3.807   1.781   9.588 -0.2381 -0.1291  0.3471
   34POPC  H17S 4589   3.780   1.951   9.622  0.4128  1.1262  1.0365
   34POPC  C218 4590   3.932   1.857   9.746 -0.8033 -0.3322 -0.1248
   34POPC  H18R 4591   3.850   1.812   9.806 -3.3094  0.4684 -2.8067
   34POPC  H18S 4592   3.966   1.952   9.791  2.8524 -1.8783  0.5443
   34POPC  H18T 4593   4.018   1.787   9.733 -2.7955 -2.6148 -1.4466
   34POPC   C33 4594   3.918   1.440   9.767  0.5661  0.3465  0.2277
   34POPC   H3X 4595   3.976   1.345   9.770  0.7347  0.4706  1.1044
   34POPC   H3Y 4596   3.966   1.508   9.694 -1.8583 -2.1931 -3.9613
   34POPC   C34 4597   3.780   1.397   9.715  0.3447  0.2878  0.6277
   34POPC   H4X 4598   3.745   1.304   9.765  0.0086 -0.3333 -0.7374
   34POPC   H4Y 4599   3.795   1.364   9.610 -2.2865 -0.3050  0.4124
   34POPC   C35 4600   3.691   1.514   9.706 -0.2407  0.0942 -0.0923
   34POPC   H5X 4601   3.749   1.599   9.664  0.6710 -0.2354  0.4821
   34POPC   H5Y 4602   3.658   1.535   9.810  0.4582 -1.2613  0.4106
   34POPC   C36 4603   3.563   1.491   9.620  0.1565 -0.1169  0.5934
   34POPC   H6X 4604   3.595   1.437   9.528  0.5666  2.5667 -0.8725
   34POPC   H6Y 4605   3.519   1.589   9.593  0.7252  0.0927  0.4213
   34POPC   C37 4606   3.447   1.425   9.697 -0.2666 -0.5334  0.6566
   34POPC   H7X 4607   3.447   1.479   9.794  3.2884 -2.2084  1.6738
   34POPC   H7Y 4608   3.469   1.317   9.708 -1.3412 -0.8411 -0.1243
   34POPC   C38 4609   3.311   1.422   9.633  0.5323 -0.4863  1.0497
   34POPC   H8X 4610   3.273   1.525   9.613  1.6128 -0.2591  0.1671
   34POPC   H8Y 4611   3.241   1.374   9.705  0.4967 -0.2676  1.1605
   34POPC   C39 4612   3.313   1.350   9.491  0.0522 -0.6270 -0.5196
   34POPC   H9X 4613   3.334   1.241   9.506  0.2781 -0.2533  2.2295
   34POPC   H9Y 4614   3.383   1.400   9.421 -0.3872  0.7224  0.0010
   34POPC  C310 4615   3.179   1.377   9.425  0.3494  0.7085 -0.0307
   34POPC  H10X 4616   3.168   1.483   9.393  1.6753  0.7941 -0.2510
   34POPC  H10Y 4617   3.090   1.359   9.489 -0.2235  1.1581 -0.6966
   34POPC  C311 4618   3.161   1.291   9.298 -0.0509 -1.0791  0.0844
   34POPC  H11X 4619   3.239   1.323   9.226 -0.8664  0.6061 -0.0799
   34POPC  H11Y 4620   3.059   1.310   9.258  0.9152  2.2364 -0.9379
   34POPC  C312 4621   3.170   1.141   9.315  0.1274  0.1323 -0.7915
   34POPC  H12X 4622   3.269   1.113   9.359  0.3538  0.3522 -1.1606
   34POPC  H12Y 4623   3.174   1.107   9.209 -1.9655  1.6569 -1.3973
   34POPC  C313 4624   3.063   1.078   9.394 -0.3896 -0.1472  0.2172
   34POPC  H13X 4625   2.961   1.080   9.349 -0.2657  0.5501 -0.0405
   34POPC  H13Y 4626   3.055   1.123   9.495  1.7854  0.6645  0.0399
   34POPC  C314 4627   3.107   0.928   9.415  0.0509 -0.0964  0.2857
   34POPC  H14X 4628   3.202   0.916   9.472 -0.2163  1.2013  1.0260
   34POPC  H14Y 4629   3.128   0.892   9.312 -1.0218 -0.1061  0.0694
   34POPC  C315 4630   3.013   0.830   9.475 -0.2164  0.5780  0.1744
   34POPC  H15X 4631   3.033   0.722   9.456  2.0556  0.6057  2.0883
   34POPC  H15Y 4632   2.914   0.851   9.430  0.4962 -0.0362 -1.7538
   34POPC  C316 4633   2.993   0.850   9.621 -0.5573  0.4583  0.3593
   34POPC  H16X 4634   3.092   0.867   9.668  0.1821 -0.3949 -0.8770
   34POPC  H16Y 4635   2.934   0.767   9.668 -2.8207  1.5361 -0.4921
   34POPC  H16Z 4636   2.942   0.945   9.648  1.1988  1.5970 -0.2885
   35POPC     N 4637   3.064   4.761  10.827  0.8752 -1.1826 -0.5445
   35POPC   C12 4638   3.002   4.888  10.883  0.5994 -0.4990  0.5407
   35POPC  H12A 4639   2.896   4.890  10.862  0.5140  3.7177  0.8264
   35POPC  H12B 4640   3.041   4.970  10.825  0.9290 -0.2817  1.0681
   35POPC   C13 4641   3.026   4.640  10.905  0.2034  0.4380 -0.3090
   35POPC  H13A 4642   2.923   4.618  10.930  0.8878 -2.5258  0.0425
   35POPC  H13B 4643   3.058   4.558  10.843  0.3643 -0.3710  0.8213
   35POPC  H13C 4644   3.065   4.641  11.006  1.8933  2.8217 -0.9477
   35POPC   C14 4645   3.030   4.749  10.681  1.0429  1.1020  0.5781
   35POPC  H14A 4646   3.054   4.843  10.634 -1.4769  0.5904 -1.8647
   35POPC  H14B 4647   3.102   4.684  10.634 -1.5697 -0.7424 -0.9847
   35POPC  H14C 4648   2.929   4.712  10.669  1.5432  0.4560 -1.8038
   35POPC   C15 4649   3.215   4.770  10.822 -0.2859  0.1573 -0.6940
   35POPC  H15A 4650   3.262   4.680  10.784 -0.3086 -0.0211 -0.3041
   35POPC  H15B 4651   3.253   4.782  10.923  2.4953  1.0789 -1.7957
   35POPC  H15C 4652   3.251   4.852  10.762 -0.8621  0.7177 -0.2693
   35POPC   C11 4653   3.018   4.930  11.031  0.0588 -1.2385  0.3720
   35POPC  H11A 4654   2.967   4.872  11.110  0.3866  2.2532  3.2581
   35POPC  H11B 4655   2.973   5.031  11.042  0.5471 -0.6935 -2.1944
   35POPC     P 4656   3.234   5.075  11.034  0.0944  0.3167  0.2237
   35POPC   O13 4657   3.379   5.047  11.022 -0.0748 -0.4004  0.1442
   35POPC   O14 4658   3.195   5.172  11.137 -0.0495  0.5264  0.3774
   35POPC   O12 4659   3.161   4.936  11.055 -0.7604 -0.1848  0.2392
   35POPC   O11 4660   3.177   5.114  10.895 -0.2684 -0.2226  0.6252
   35POPC    C1 4661   3.128   5.247  10.869 -0.1243  0.3279  0.2384
   35POPC    HA 4662   3.218   5.312  10.864 -0.9551  1.4660  0.0048
   35POPC    HB 4663   3.049   5.284  10.938 -0.8392 -1.4451  0.3965
   35POPC    C2 4664   3.065   5.257  10.724 -0.3716 -0.2310  0.1271
   35POPC    HS 4665   2.985   5.180  10.713 -0.8956  0.2929  0.2478
   35POPC   O21 4666   3.172   5.242  10.629  0.6621  0.3126 -0.1191
   35POPC   C21 4667   3.203   5.125  10.589  0.1256  0.6461 -0.7194
   35POPC   O22 4668   3.146   5.020  10.613  0.2768  0.2432 -0.0665
   35POPC   C22 4669   3.319   5.139  10.498 -0.3148  0.8097  0.3154
   35POPC   H2R 4670   3.394   5.198  10.556  1.1103  0.1848 -0.8517
   35POPC   H2S 4671   3.281   5.207  10.419 -0.8196  1.8141  1.4106
   35POPC    C3 4672   3.000   5.399  10.709 -0.8398  0.5560 -0.1543
   35POPC    HX 4673   3.057   5.487  10.744 -0.0033 -0.6458  1.5323
   35POPC    HY 4674   2.918   5.402  10.784  0.1028 -0.2643  0.9150
   35POPC   O31 4675   2.951   5.434  10.581  0.1725 -1.1214  0.0739
   35POPC   C31 4676   2.842   5.373  10.536 -0.5220 -0.0540  0.6276
   35POPC   O32 4677   2.778   5.292  10.602  0.3265  0.2272  0.5639
   35POPC   C32 4678   2.802   5.422  10.390  0.3756 -0.4841  0.4245
   35POPC   H2X 4679   2.807   5.533  10.390 -0.8737 -0.4201 -0.2449
   35POPC   H2Y 4680   2.694   5.404  10.371  0.4317 -0.3858  0.0031
   35POPC   C23 4681   3.382   5.010  10.436 -0.6142  0.0446  0.7996
   35POPC   H3R 4682   3.397   4.930  10.511 -1.1779 -0.6736  0.1467
   35POPC   H3S 4683   3.485   5.041  10.407 -0.1897 -1.2413  0.9221
   35POPC   C24 4684   3.315   4.960  10.309 -0.2201 -0.6655  0.0705
   35POPC   H4R 4685   3.206   4.965  10.332  0.2966  0.0426  2.5641
   35POPC   H4S 4686   3.344   4.854  10.298  0.9991 -0.5139  1.7506
   35POPC   C25 4687   3.354   5.042  10.188  0.2189  0.2183 -0.8083
   35POPC   H5R 4688   3.465   5.040  10.187  0.2262 -1.3393  0.5892
   35POPC   H5S 4689   3.315   5.146  10.199 -0.9931 -0.1551 -1.4913
   35POPC   C26 4690   3.290   4.993  10.054 -0.3060  0.3188  0.2961
   35POPC   H6R 4691   3.303   4.885  10.032 -0.1372  0.2829  0.5667
   35POPC   H6S 4692   3.346   5.044   9.974 -1.4484 -0.3793 -0.9653
   35POPC   C27 4693   3.147   5.033  10.063 -0.6777  0.4603  0.5015
   35POPC   H7R 4694   3.142   5.143  10.072  0.1837  0.3597  2.3833
   35POPC   H7S 4695   3.091   4.998  10.152 -0.1903  1.2786  1.1315
   35POPC   C28 4696   3.071   5.005   9.927  0.0952  0.0390  0.0830
   35POPC   H8R 4697   3.104   5.082   9.853  1.5938 -2.3669 -1.8068
   35POPC   H8S 4698   2.966   5.019   9.961 -0.0998 -2.4986  0.5820
   35POPC   C29 4699   3.076   4.871   9.856 -0.4047 -0.0683 -0.1036
   35POPC   H91 4700   3.050   4.796   9.932 -1.6072  1.4507  1.0256
   35POPC  C210 4701   3.082   4.852   9.725  0.1231  0.2578  0.7725
   35POPC  H101 4702   3.070   4.749   9.687 -1.2608 -0.4332  3.0012
   35POPC  C211 4703   3.079   4.958   9.619  1.0607  0.2930  0.0954
   35POPC  H11R 4704   3.165   5.022   9.649  0.9338  0.0610  0.9819
   35POPC  H11S 4705   2.981   5.009   9.635  0.1947 -1.4425  0.3745
   35POPC  C212 4706   3.114   4.895   9.480 -0.4188 -0.0103 -0.0384
   35POPC  H12R 4707   3.061   4.806   9.441 -0.8182 -0.7070  1.9996
   35POPC  H12S 4708   3.217   4.853   9.480  0.2527  1.5644 -1.0164
   35POPC  C213 4709   3.104   5.002   9.367  0.5264 -0.6164 -0.2886
   35POPC  H13R 4710   3.148   5.096   9.406  2.5530 -2.7250  2.7263
   35POPC  H13S 4711   2.996   5.027   9.356  0.7889  0.6924 -0.0075
   35POPC  C214 4712   3.173   4.952   9.241  0.0248 -0.3782  0.6574
   35POPC  H14R 4713   3.138   4.849   9.217  2.5414 -0.5197 -2.8040
   35POPC  H14S 4714   3.276   4.932   9.278  1.5565  2.0685 -2.0798
   35POPC  C215 4715   3.187   5.026   9.107  0.2202 -1.0433 -0.6446
   35POPC  H15R 4716   3.233   5.126   9.119 -0.0550 -1.2688  2.6855
   35POPC  H15S 4717   3.088   5.050   9.062  0.8323  1.0087 -0.9299
   35POPC  C216 4718   3.267   4.944   8.997 -0.2266  1.0715 -0.8769
   35POPC  H16R 4719   3.352   4.890   9.045 -1.1087 -0.3611 -0.8845
   35POPC  H16S 4720   3.330   5.006   8.931  0.7952  0.1149 -0.8291
   35POPC  C217 4721   3.180   4.861   8.908 -0.1372 -0.2242 -0.3080
   35POPC  H17R 4722   3.137   4.918   8.823  0.4972  0.8880  0.1075
   35POPC  H17S 4723   3.093   4.811   8.956  1.4639 -2.5638  0.2310
   35POPC  C218 4724   3.258   4.747   8.846 -0.2952 -0.7073  0.0675
   35POPC  H18R 4725   3.206   4.710   8.755 -0.2363  0.5848 -0.5086
   35POPC  H18S 4726   3.261   4.672   8.927 -0.8044 -2.2787 -1.3586
   35POPC  H18T 4727   3.365   4.757   8.816  0.1660 -1.3773  1.4735
   35POPC   C33 4728   2.889   5.350  10.279 -0.9471 -0.2758 -0.7069
   35POPC   H3X 4729   2.868   5.244  10.255  0.1634 -0.2735 -1.7505
   35POPC   H3Y 4730   2.998   5.364  10.295 -0.9380  0.0468 -1.0437
   35POPC   C34 4731   2.856   5.415  10.143 -0.2031  0.5485  0.7466
   35POPC   H4X 4732   2.878   5.524  10.144 -1.0076  0.7123  0.7739
   35POPC   H4Y 4733   2.748   5.406  10.120 -0.0607  0.3122  0.1654
   35POPC   C35 4734   2.940   5.355  10.028 -0.7781  0.0531 -0.0875
   35POPC   H5X 4735   2.923   5.246  10.026  0.1689 -0.0898 -1.1804
   35POPC   H5Y 4736   3.045   5.384  10.050  0.0786 -1.3264 -2.2412
   35POPC   C36 4737   2.890   5.418   9.896 -0.4075  0.4346 -0.1281
   35POPC   H6X 4738   2.906   5.528   9.890  0.1195  0.4878  1.7686
   35POPC   H6Y 4739   2.782   5.398   9.880 -0.4315  1.7791 -1.7629
   35POPC   C37 4740   2.963   5.354   9.768 -0.2856 -0.1573  0.3198
   35POPC   H7X 4741   2.949   5.244   9.774 -0.9201 -0.0448  1.0286
   35POPC   H7Y 4742   3.072   5.360   9.789 -0.0545  0.3340 -0.9650
   35POPC   C38 4743   2.920   5.414   9.634  0.1102 -0.5709 -0.3213
   35POPC   H8X 4744   2.954   5.520   9.628 -1.8213  0.0006 -1.7289
   35POPC   H8Y 4745   2.809   5.419   9.626  0.3087  1.2580 -2.2257
   35POPC   C39 4746   2.991   5.354   9.514  0.2096 -0.1754 -0.4321
   35POPC   H9X 4747   2.955   5.251   9.496 -1.8213 -0.4527  4.4066
   35POPC   H9Y 4748   3.101   5.349   9.528  0.2162  0.6222 -0.1582
   35POPC  C310 4749   2.974   5.434   9.384 -0.3696 -0.3678  0.9442
   35POPC  H10X 4750   3.015   5.537   9.391 -2.0221  0.2445  1.7298
   35POPC  H10Y 4751   2.865   5.441   9.368  0.0670  0.0816 -2.0591
   35POPC  C311 4752   3.033   5.373   9.254  0.4385  0.6262  0.0695
   35POPC  H11X 4753   2.988   5.275   9.227  0.8239 -0.4123  3.0389
   35POPC  H11Y 4754   3.138   5.351   9.281  0.1245 -2.7808 -1.2155
   35POPC  C312 4755   3.025   5.454   9.125 -0.2602 -0.0529 -0.2633
   35POPC  H12X 4756   3.082   5.411   9.040  1.4139  1.2588  0.1802
   35POPC  H12Y 4757   3.078   5.544   9.162  0.2165 -0.3885 -0.1169
   35POPC  C313 4758   2.884   5.483   9.071 -0.1131  0.0400  0.2683
   35POPC  H13X 4759   2.835   5.554   9.141 -1.2041  1.3273 -1.7700
   35POPC  H13Y 4760   2.822   5.391   9.078 -1.1918  0.7941  0.8985
   35POPC  C314 4761   2.882   5.552   8.931 -0.4643 -0.2715 -0.4567
   35POPC  H14X 4762   2.935   5.486   8.859  1.8611  0.0119  0.9454
   35POPC  H14Y 4763   2.936   5.647   8.949  0.8856 -1.5438  2.6524
   35POPC  C315 4764   2.739   5.574   8.878 -0.1201  0.1315 -0.9609
   35POPC  H15X 4765   2.746   5.625   8.780  1.1384 -0.8896 -1.4167
   35POPC  H15Y 4766   2.679   5.633   8.951  0.2925  0.5882 -0.9881
   35POPC  C316 4767   2.666   5.434   8.855 -0.2356 -0.4571  0.9319
   35POPC  H16X 4768   2.558   5.456   8.845  0.0845  0.2368 -1.3060
   35POPC  H16Y 4769   2.675   5.368   8.945  0.5723  0.9920  1.9466
   35POPC  H16Z 4770   2.713   5.379   8.770  0.2448  1.1725  0.1289
   36POPC     N 4771   2.764   3.937  10.925 -0.0792 -0.5489 -1.1203
   36POPC   C12 4772   2.684   3.820  10.987 -0.1559  0.1507  0.1950
   36POPC  H12A 4773   2.617   3.859  11.063  0.1564  2.1506 -0.5242
   36POPC  H12B 4774   2.751   3.754  11.040 -0.4256  0.5680  1.0828
   36POPC   C13 4775   2.871   3.983  11.020 -0.6430 -0.2206 -0.2451
   36POPC  H13A 4776   2.831   4.018  11.113  0.2566  1.0559 -0.3329
   36POPC  H13B 4777   2.947   3.906  11.030 -0.0087  0.3847 -0.4150
   36POPC  H13C 4778   2.909   4.071  10.971 -2.3081  0.7208  0.1413
   36POPC   C14 4779   2.825   3.899  10.797 -0.6261 -0.5928  0.5732
   36POPC  H14A 4780   2.885   3.983  10.764  0.0115 -0.8980  0.9596
   36POPC  H14B 4781   2.885   3.810  10.809 -0.5187 -0.3401  1.9387
   36POPC  H14C 4782   2.749   3.879  10.722 -0.5395  3.2151 -0.6219
   36POPC   C15 4783   2.685   4.061  10.889  0.4197 -0.3470  0.1736
   36POPC  H15A 4784   2.648   4.108  10.979 -1.0485 -0.7579 -0.1913
   36POPC  H15B 4785   2.594   4.035  10.836  0.9555  1.1454 -1.5325
   36POPC  H15C 4786   2.748   4.132  10.837 -1.4412  0.7294 -0.6845
   36POPC   C11 4787   2.605   3.737  10.878 -0.5488 -0.6727 -0.3187
   36POPC  H11A 4788   2.560   3.650  10.929  0.6933 -1.7935 -1.0962
   36POPC  H11B 4789   2.679   3.711  10.799 -0.4221 -0.2234 -0.3511
   36POPC     P 4790   2.382   3.866  10.887  0.1274 -0.2927  0.3878
   36POPC   O13 4791   2.399   4.009  10.938  0.1082 -0.1005 -0.0038
   36POPC   O14 4792   2.339   3.772  10.987  0.0776  0.5839 -0.5943
   36POPC   O12 4793   2.516   3.814  10.814  0.1679 -0.0643 -0.5848
   36POPC   O11 4794   2.274   3.859  10.773  0.1433 -0.4907  0.0318
   36POPC    C1 4795   2.140   3.809  10.789  0.2839 -0.2445 -0.3347
   36POPC    HA 4796   2.092   3.838  10.884  1.5991  3.2468 -0.6642
   36POPC    HB 4797   2.132   3.700  10.772 -3.6730 -0.3415  1.5802
   36POPC    C2 4798   2.053   3.885  10.689  0.3101  1.2995  0.4731
   36POPC    HS 4799   1.950   3.845  10.701  0.3232  1.0898 -0.0895
   36POPC   O21 4800   2.101   3.869  10.556  0.3826  0.2466  0.4130
   36POPC   C21 4801   2.058   3.776  10.478 -0.4284  0.1336 -0.0461
   36POPC   O22 4802   1.979   3.683  10.497  0.6350  0.0202  0.3339
   36POPC   C22 4803   2.130   3.799  10.341 -1.0760 -0.1095  0.7438
   36POPC   H2R 4804   2.236   3.769  10.354 -0.2604  2.3362 -0.0395
   36POPC   H2S 4805   2.115   3.905  10.313 -0.0875  0.0074  0.6400
   36POPC    C3 4806   2.034   4.033  10.716 -0.0581 -0.1938 -0.0197
   36POPC    HX 4807   2.135   4.078  10.725 -0.6351  0.8294  1.5072
   36POPC    HY 4808   1.995   4.047  10.819 -0.7708  0.0272 -0.3121
   36POPC   O31 4809   1.957   4.099  10.616  0.0977 -0.5472 -0.4282
   36POPC   C31 4810   2.010   4.173  10.518  0.4751  0.2581  0.2113
   36POPC   O32 4811   2.126   4.199  10.499 -0.1285  0.2185  0.4092
   36POPC   C32 4812   1.891   4.226  10.429  0.0672  0.5218 -0.0501
   36POPC   H2X 4813   1.834   4.306  10.482 -1.8475  0.7769 -2.4058
   36POPC   H2Y 4814   1.826   4.137  10.419  0.7050 -0.1216  1.3345
   36POPC   C23 4815   2.089   3.708  10.227 -0.5533 -0.8870  0.0673
   36POPC   H3R 4816   1.989   3.664  10.250 -1.0779 -0.7932 -1.9352
   36POPC   H3S 4817   2.162   3.625  10.214  0.5267  0.1381 -0.3793
   36POPC   C24 4818   2.061   3.768  10.090  0.6195  0.5522  0.7367
   36POPC   H4R 4819   2.147   3.836  10.074  1.7770 -1.0594 -0.0146
   36POPC   H4S 4820   1.966   3.825  10.103  0.1681  0.1995 -0.7904
   36POPC   C25 4821   2.047   3.669   9.973 -0.5817  0.2729 -0.0663
   36POPC   H5R 4822   1.957   3.604   9.988 -1.9226  2.2712  0.7672
   36POPC   H5S 4823   2.134   3.600   9.972 -0.9121 -0.1530 -3.7716
   36POPC   C26 4824   2.031   3.724   9.833 -0.9193 -0.4429  0.6749
   36POPC   H6R 4825   2.088   3.819   9.820 -2.6201  0.3695 -1.0336
   36POPC   H6S 4826   1.923   3.745   9.820 -0.9004  0.4044  1.8713
   36POPC   C27 4827   2.068   3.621   9.723  0.6149  0.3237  0.0806
   36POPC   H7R 4828   2.030   3.527   9.768 -0.5279  0.1954 -1.1394
   36POPC   H7S 4829   2.178   3.613   9.709  0.4329 -0.4312 -0.9438
   36POPC   C28 4830   1.998   3.646   9.588  0.0622 -0.4476  0.2516
   36POPC   H8R 4831   1.887   3.638   9.590 -0.0117  0.1430 -1.0221
   36POPC   H8S 4832   2.038   3.570   9.518  0.1684  0.6942 -0.9533
   36POPC   C29 4833   2.029   3.775   9.522 -0.3350  0.7371 -0.3071
   36POPC   H91 4834   1.992   3.862   9.579  3.0685  2.2278 -0.2029
   36POPC  C210 4835   2.100   3.806   9.414  0.0704  0.0749  0.9236
   36POPC  H101 4836   2.115   3.912   9.392  0.6074 -0.2599 -0.3364
   36POPC  C211 4837   2.160   3.699   9.323  0.7624 -0.3321  1.0413
   36POPC  H11R 4838   2.198   3.610   9.377 -0.5787 -1.9310 -0.5901
   36POPC  H11S 4839   2.251   3.734   9.269  1.1167  0.2832  2.0161
   36POPC  C212 4840   2.059   3.649   9.212  0.2919 -0.1342 -0.7441
   36POPC  H12R 4841   2.058   3.709   9.119  1.5671  1.3793  0.1937
   36POPC  H12S 4842   1.954   3.648   9.245  0.4964  0.0825 -0.0863
   36POPC  C213 4843   2.087   3.500   9.179 -0.3360  0.3495 -0.3224
   36POPC  H13R 4844   2.007   3.430   9.212 -1.7603  0.7449 -2.8379
   36POPC  H13S 4845   2.188   3.472   9.218  0.4713  0.7325 -2.0849
   36POPC  C214 4846   2.101   3.493   9.023  0.1231  0.0248 -0.9913
   36POPC  H14R 4847   2.015   3.546   8.976 -1.2049  1.1335  2.5401
   36POPC  H14S 4848   2.114   3.385   8.998  1.7420 -0.6055  2.2649
   36POPC  C215 4849   2.226   3.559   8.969  0.1822  0.1425  0.6595
   36POPC  H15R 4850   2.320   3.510   9.001 -0.9146 -1.4335  1.5008
   36POPC  H15S 4851   2.238   3.663   9.008  1.5607 -0.2849  1.3772
   36POPC  C216 4852   2.226   3.569   8.814 -0.1665  0.4608  0.1280
   36POPC  H16R 4853   2.158   3.650   8.779  2.1189  2.0058 -0.9205
   36POPC  H16S 4854   2.187   3.472   8.777 -2.0228  0.9583  0.7754
   36POPC  C217 4855   2.366   3.586   8.753 -1.0687  0.7553 -0.1253
   36POPC  H17R 4856   2.441   3.510   8.786 -1.6026  0.8945  1.4612
   36POPC  H17S 4857   2.401   3.683   8.794  1.0121  0.3606 -0.9148
   36POPC  C218 4858   2.377   3.600   8.597  0.7408  0.3177  0.9672
   36POPC  H18R 4859   2.481   3.608   8.560  0.8942 -0.1697  1.2994
   36POPC  H18S 4860   2.313   3.687   8.568  1.0318  0.2153 -0.0150
   36POPC  H18T 4861   2.333   3.510   8.548  1.2598  0.1072  0.8912
   36POPC   C33 4862   1.931   4.289  10.297  0.5634 -0.5365  0.7162
   36POPC   H3X 4863   2.016   4.359  10.310  0.6593 -0.5228  0.0294
   36POPC   H3Y 4864   1.845   4.346  10.256  0.1736 -1.1680  0.6511
   36POPC   C34 4865   1.967   4.179  10.197  0.2304 -1.1775 -0.1583
   36POPC   H4X 4866   1.882   4.108  10.192 -0.7689  0.0538 -0.7391
   36POPC   H4Y 4867   2.061   4.130  10.231  0.5447 -0.1956  0.3755
   36POPC   C35 4868   1.992   4.230  10.052 -0.6201  0.3678 -0.6012
   36POPC   H5X 4869   2.060   4.318  10.044  0.1406 -0.2005 -0.3823
   36POPC   H5Y 4870   1.890   4.248  10.012 -0.9596  0.0209  0.0903
   36POPC   C36 4871   2.056   4.129   9.955 -0.0687 -0.1946  0.5937
   36POPC   H6X 4872   1.975   4.054   9.945 -1.1887  0.7545  2.2980
   36POPC   H6Y 4873   2.149   4.080   9.991  0.0668 -1.1910 -1.0454
   36POPC   C37 4874   2.104   4.185   9.816  0.4815 -0.2485  0.0531
   36POPC   H7X 4875   2.149   4.109   9.749  3.8451  1.4321  0.2971
   36POPC   H7Y 4876   2.193   4.248   9.836 -0.3632  0.7664  0.7236
   36POPC   C38 4877   1.992   4.267   9.754  0.0070 -0.4039 -1.3715
   36POPC   H8X 4878   1.923   4.312   9.829  1.5663  2.2495 -1.4710
   36POPC   H8Y 4879   1.929   4.207   9.685 -0.5595 -0.9796 -0.3727
   36POPC   C39 4880   2.044   4.393   9.680  0.0757  0.3055  0.0079
   36POPC   H9X 4881   2.092   4.452   9.761 -2.0884  1.1272  0.7403
   36POPC   H9Y 4882   1.957   4.458   9.654 -0.5228 -0.0448  1.0927
   36POPC  C310 4883   2.128   4.347   9.561  1.2380  0.7476  0.3829
   36POPC  H10X 4884   2.204   4.273   9.592  0.4366 -1.2522 -2.2560
   36POPC  H10Y 4885   2.188   4.432   9.522  1.9933  0.3729  0.7336
   36POPC  C311 4886   2.038   4.276   9.448 -0.2337  0.1980  0.3580
   36POPC  H11X 4887   1.972   4.352   9.399 -2.1183 -1.7803 -0.2735
   36POPC  H11Y 4888   1.971   4.195   9.484 -1.4574  1.0032 -0.0737
   36POPC  C312 4889   2.133   4.216   9.341 -0.2415  0.4559 -0.2782
   36POPC  H12X 4890   2.196   4.146   9.400 -2.5260 -0.9554  0.5488
   36POPC  H12Y 4891   2.194   4.293   9.290  2.6804  0.1127  2.5199
   36POPC  C313 4892   2.051   4.145   9.233  0.3494  1.0560 -0.4892
   36POPC  H13X 4893   1.973   4.091   9.290  1.7614 -0.3038  0.1750
   36POPC  H13Y 4894   2.112   4.088   9.160  0.6396 -0.1922  0.7000
   36POPC  C314 4895   1.975   4.247   9.146 -0.6720  0.4051 -0.0930
   36POPC  H14X 4896   2.044   4.314   9.091 -1.0094  0.3083 -0.6290
   36POPC  H14Y 4897   1.918   4.321   9.206  2.7526  1.3865  2.1089
   36POPC  C315 4898   1.892   4.177   9.035 -0.7588 -0.1644  0.6089
   36POPC  H15X 4899   1.947   4.104   8.972 -3.1480 -1.3304 -0.2123
   36POPC  H15Y 4900   1.865   4.265   8.972  2.8248  0.2528 -0.4593
   36POPC  C316 4901   1.765   4.119   9.088  0.3249 -0.3152 -0.4062
   36POPC  H16X 4902   1.696   4.090   9.006  0.6566  1.4682 -1.3349
   36POPC  H16Y 4903   1.702   4.187   9.148  0.5242 -1.9858  1.7584
   36POPC  H16Z 4904   1.774   4.027   9.150 -1.8967 -1.5042 -1.7529
   37POPC     N 4905   2.511   6.383   6.736  0.6125 -0.0045 -0.1830
   37POPC   C12 4906   2.488   6.502   6.825 -0.0292 -0.6560 -0.0583
   37POPC  H12A 4907   2.525   6.585   6.768  1.1570 -1.0753  0.0814
   37POPC  H12B 4908   2.542   6.483   6.916 -0.0087  1.1911  0.3215
   37POPC   C13 4909   2.654   6.378   6.710 -0.1284 -0.0379 -0.4435
   37POPC  H13A 4910   2.718   6.371   6.797 -0.4724  2.6734  0.0644
   37POPC  H13B 4911   2.687   6.305   6.638 -0.3491  0.7331 -1.3263
   37POPC  H13C 4912   2.683   6.470   6.662  0.8527 -0.5149 -0.7862
   37POPC   C14 4913   2.458   6.253   6.799  0.3473  0.7757 -0.3820
   37POPC  H14A 4914   2.519   6.226   6.884  1.2058 -1.5283 -1.6793
   37POPC  H14B 4915   2.357   6.263   6.835  0.1072 -2.5781  0.0701
   37POPC  H14C 4916   2.465   6.176   6.723 -2.6852 -0.1163  0.1712
   37POPC   C15 4917   2.434   6.393   6.605  0.0346 -0.4775  0.7759
   37POPC  H15A 4918   2.327   6.388   6.616 -0.1285 -0.3004 -0.5398
   37POPC  H15B 4919   2.451   6.312   6.535  0.0069 -0.2390  0.4914
   37POPC  H15C 4920   2.462   6.486   6.558  3.0080  0.4514  4.1741
   37POPC   C11 4921   2.337   6.508   6.875 -0.3041 -0.4344 -0.0385
   37POPC  H11A 4922   2.339   6.590   6.950  0.3019  2.7374 -3.3452
   37POPC  H11B 4923   2.301   6.419   6.931  0.1219 -0.6870 -0.1617
   37POPC     P 4924   2.213   6.687   6.731  0.0616 -0.2430 -0.0419
   37POPC   O13 4925   2.114   6.684   6.619  0.2068  0.1633  0.0068
   37POPC   O14 4926   2.340   6.758   6.714 -0.3098 -0.0240  0.2013
   37POPC   O12 4927   2.245   6.537   6.773 -0.7463 -0.4353  0.0575
   37POPC   O11 4928   2.137   6.733   6.858 -0.0051 -0.3185 -0.2989
   37POPC    C1 4929   2.145   6.864   6.909  0.4954  0.7389  0.4240
   37POPC    HA 4930   2.104   6.935   6.833 -2.0517  0.7476  1.7472
   37POPC    HB 4931   2.245   6.903   6.939  0.2191  0.5747  1.5856
   37POPC    C2 4932   2.049   6.878   7.027  0.3701  0.0671  1.1513
   37POPC    HS 4933   2.063   6.979   7.069  0.3253  1.0983 -1.2301
   37POPC   O21 4934   2.085   6.773   7.113  0.0932 -0.1387  0.2974
   37POPC   C21 4935   2.104   6.801   7.241  0.3857  0.5535 -0.0632
   37POPC   O22 4936   2.078   6.905   7.298  0.1395 -0.0672  0.4365
   37POPC   C22 4937   2.150   6.662   7.310 -0.3627  0.4501 -0.1178
   37POPC   H2R 4938   2.255   6.643   7.279 -0.8594  1.1217 -2.3234
   37POPC   H2S 4939   2.096   6.581   7.255  0.5426 -0.9522  1.0426
   37POPC    C3 4940   1.902   6.861   6.984 -0.5388 -0.6931  0.1448
   37POPC    HX 4941   1.885   6.765   6.932  0.3288  0.2828 -2.0105
   37POPC    HY 4942   1.893   6.947   6.914 -1.5426  2.2774  3.6954
   37POPC   O31 4943   1.810   6.881   7.094 -0.3040 -0.3559  0.0841
   37POPC   C31 4944   1.764   6.768   7.152 -0.2536  0.0069 -0.7188
   37POPC   O32 4945   1.786   6.650   7.116 -0.1893  0.3844  0.5737
   37POPC   C32 4946   1.671   6.809   7.266 -0.1607 -0.4974 -0.4587
   37POPC   H2X 4947   1.571   6.825   7.219 -0.3183  0.9435  0.3352
   37POPC   H2Y 4948   1.715   6.899   7.314 -0.3611 -1.4209  1.4882
   37POPC   C23 4949   2.133   6.651   7.459 -0.7335  0.2015 -0.1601
   37POPC   H3R 4950   2.086   6.554   7.486 -1.5917  0.8457  0.6765
   37POPC   H3S 4951   2.065   6.735   7.486  0.8925  1.4816  0.0319
   37POPC   C24 4952   2.264   6.684   7.544  0.1745  0.2872  0.2912
   37POPC   H4R 4953   2.288   6.787   7.511 -3.0692  0.7140 -1.0002
   37POPC   H4S 4954   2.338   6.614   7.501 -0.5313  0.0026 -0.4840
   37POPC   C25 4955   2.246   6.662   7.692 -0.6304 -0.4552 -0.1842
   37POPC   H5R 4956   2.214   6.557   7.709  0.0882 -0.3779  1.8471
   37POPC   H5S 4957   2.171   6.732   7.734  0.9087  1.9819 -1.3797
   37POPC   C26 4958   2.371   6.679   7.767  0.3640 -0.1970  0.4229
   37POPC   H6R 4959   2.396   6.787   7.757 -1.4357  0.0524 -1.9692
   37POPC   H6S 4960   2.459   6.622   7.731  0.8221  0.8686 -0.1553
   37POPC   C27 4961   2.340   6.666   7.915  0.1259  0.3377 -0.2802
   37POPC   H7R 4962   2.279   6.574   7.928  0.3473 -0.0533 -1.8734
   37POPC   H7S 4963   2.283   6.749   7.962 -1.7722 -1.2524  0.3245
   37POPC   C28 4964   2.463   6.633   8.003  0.2251 -0.7842 -0.0759
   37POPC   H8R 4965   2.540   6.587   7.937  0.9562  0.1847  0.0751
   37POPC   H8S 4966   2.444   6.566   8.089  0.8025 -0.1393  0.5672
   37POPC   C29 4967   2.534   6.754   8.052  0.3022 -0.3729 -0.7959
   37POPC   H91 4968   2.484   6.848   8.022 -2.6013 -0.5693  2.9695
   37POPC  C210 4969   2.621   6.784   8.145 -0.0467  0.2107  0.2809
   37POPC  H101 4970   2.637   6.890   8.174 -0.0490  0.3114 -0.0901
   37POPC  C211 4971   2.707   6.678   8.219  0.3588 -0.9631  0.1308
   37POPC  H11R 4972   2.814   6.688   8.190  0.0140  0.2987 -0.7634
   37POPC  H11S 4973   2.677   6.577   8.183 -2.0893  0.2519 -1.4013
   37POPC  C212 4974   2.689   6.686   8.375 -0.7407  0.1546  0.6536
   37POPC  H12R 4975   2.722   6.786   8.408  0.4838 -0.0679  0.1119
   37POPC  H12S 4976   2.754   6.627   8.443 -0.5107  0.3142  0.5719
   37POPC  C213 4977   2.549   6.666   8.420 -0.6610  0.1441  0.0365
   37POPC  H13R 4978   2.528   6.557   8.411 -1.1867  0.2378  0.1361
   37POPC  H13S 4979   2.468   6.720   8.367 -0.8945  2.4824  2.6484
   37POPC  C214 4980   2.532   6.679   8.573 -0.0371  0.1062  0.3000
   37POPC  H14R 4981   2.428   6.699   8.606 -0.6196 -1.2370 -0.6788
   37POPC  H14S 4982   2.597   6.762   8.609 -0.9285  0.4492  1.1151
   37POPC  C215 4983   2.580   6.553   8.647 -0.2667 -0.4936 -0.0395
   37POPC  H15R 4984   2.681   6.523   8.612 -0.0832  0.1409 -0.0549
   37POPC  H15S 4985   2.529   6.457   8.624 -0.5397 -0.2712 -0.3680
   37POPC  C216 4986   2.613   6.578   8.792 -0.1712  0.5398 -0.1169
   37POPC  H16R 4987   2.677   6.669   8.792  0.1274  0.3290  0.0902
   37POPC  H16S 4988   2.668   6.497   8.843  0.6555  1.6386  0.7573
   37POPC  C217 4989   2.490   6.601   8.886  0.5601 -0.5681 -0.1212
   37POPC  H17R 4990   2.409   6.664   8.843 -2.8738 -3.2728  2.1525
   37POPC  H17S 4991   2.523   6.643   8.983 -0.9397  0.3923 -0.0084
   37POPC  C218 4992   2.418   6.471   8.909  0.3569  0.1209  0.2052
   37POPC  H18R 4993   2.337   6.465   8.984 -0.9225 -0.0776 -1.1843
   37POPC  H18S 4994   2.493   6.397   8.944  0.2304 -0.2397 -0.2835
   37POPC  H18T 4995   2.389   6.444   8.806  1.7073  0.5350 -0.3000
   37POPC   C33 4996   1.670   6.700   7.373  0.3903  0.6741 -0.1016
   37POPC   H3X 4997   1.772   6.704   7.415  0.9145 -1.4253 -1.1271
   37POPC   H3Y 4998   1.649   6.595   7.346 -1.5276  1.1518 -0.6051
   37POPC   C34 4999   1.573   6.732   7.492  0.4876 -0.1063  0.0844
   37POPC   H4X 5000   1.466   6.709   7.472 -0.4608  2.3216  2.1263
   37POPC   H4Y 5001   1.582   6.838   7.526 -0.1832  0.3780 -1.2060
   37POPC   C35 5002   1.605   6.641   7.610  0.3342 -0.2563 -0.0051
   37POPC   H5X 5003   1.713   6.646   7.637  0.7214 -0.6472 -1.4430
   37POPC   H5Y 5004   1.596   6.535   7.580 -0.9735  0.1463 -1.0489
   37POPC   C36 5005   1.507   6.668   7.726  0.3838  0.3652  0.2711
   37POPC   H6X 5006   1.404   6.652   7.688 -0.7046  2.3776  2.2993
   37POPC   H6Y 5007   1.521   6.774   7.756  1.3222  0.8646 -1.8142
   37POPC   C37 5008   1.520   6.564   7.841  0.4460  0.5352 -0.2325
   37POPC   H7X 5009   1.626   6.533   7.845  0.2335 -0.2212 -0.2910
   37POPC   H7Y 5010   1.454   6.475   7.822 -0.3593  0.7395  1.5186
   37POPC   C38 5011   1.473   6.621   7.981 -0.4535 -0.3963  0.0864
   37POPC   H8X 5012   1.534   6.711   8.006  0.2488 -1.1907  1.2969
   37POPC   H8Y 5013   1.484   6.548   8.064 -1.1489  0.3599  0.8667
   37POPC   C39 5014   1.330   6.665   7.994  0.0089 -0.3607  0.8861
   37POPC   H9X 5015   1.264   6.586   7.954  1.0380 -0.2679 -1.0442
   37POPC   H9Y 5016   1.310   6.766   7.952  3.5950 -0.0866 -0.3649
   37POPC  C310 5017   1.292   6.676   8.144  0.4485  0.4086  1.2032
   37POPC  H10X 5018   1.357   6.756   8.185  2.6092  0.5875 -2.3066
   37POPC  H10Y 5019   1.315   6.579   8.194 -1.9192 -0.6805  0.2826
   37POPC  C311 5020   1.144   6.702   8.163  0.1826  0.1515  0.1231
   37POPC  H11X 5021   1.091   6.621   8.108  0.1193 -0.6224  1.3015
   37POPC  H11Y 5022   1.129   6.801   8.115  0.2961 -0.3955 -1.0483
   37POPC  C312 5023   1.085   6.702   8.306 -0.5212  0.0332 -0.3928
   37POPC  H12X 5024   1.127   6.616   8.362  1.3241  1.3570  0.3276
   37POPC  H12Y 5025   0.975   6.691   8.311 -0.3240 -1.8876  0.2028
   37POPC  C313 5026   1.124   6.832   8.372  0.1409  0.5567  0.1382
   37POPC  H13X 5027   1.069   6.915   8.322  2.0145 -0.0251 -3.0555
   37POPC  H13Y 5028   1.230   6.842   8.340 -0.3985  0.2033 -1.8490
   37POPC  C314 5029   1.117   6.828   8.524  0.1398 -0.5452 -0.4207
   37POPC  H14X 5030   1.202   6.769   8.565  0.3723 -0.0112 -0.1355
   37POPC  H14Y 5031   1.024   6.783   8.565 -1.2855  1.0385 -1.8188
   37POPC  C315 5032   1.127   6.971   8.572  0.5954 -0.1258 -0.6503
   37POPC  H15X 5033   1.212   7.014   8.514 -0.1998  2.3544 -0.0714
   37POPC  H15Y 5034   1.156   6.975   8.679 -3.0382 -0.1043  0.4070
   37POPC  C316 5035   0.996   7.057   8.556  0.1449  0.0898  0.2267
   37POPC  H16X 5036   1.008   7.163   8.587  0.7558 -0.3983  1.7086
   37POPC  H16Y 5037   0.909   7.015   8.613  0.1460 -0.5198 -0.2153
   37POPC  H16Z 5038   0.967   7.048   8.450 -0.9107  1.4177  0.3996
   38POPC     N 5039   2.448   2.185   6.066  0.1127  0.1717 -0.3314
   38POPC   C12 5040   2.490   2.101   6.182  0.2914 -0.3653  0.0043
   38POPC  H12A 5041   2.551   2.018   6.149  1.0390  0.1729 -0.0015
   38POPC  H12B 5042   2.398   2.062   6.222  1.6723 -1.3925  2.3028
   38POPC   C13 5043   2.568   2.242   5.998 -0.1664  0.0868 -0.3891
   38POPC  H13A 5044   2.628   2.310   6.057  1.2782 -0.2964 -1.4003
   38POPC  H13B 5045   2.638   2.163   5.976 -0.3841 -0.1891 -0.1074
   38POPC  H13C 5046   2.547   2.290   5.904 -0.8618  0.5554 -0.0044
   38POPC   C14 5047   2.384   2.103   5.962 -0.2040  0.6654 -0.0598
   38POPC  H14A 5048   2.335   2.175   5.899 -0.9202 -0.2150 -0.5153
   38POPC  H14B 5049   2.456   2.039   5.912 -1.8124 -1.7519  0.6044
   38POPC  H14C 5050   2.313   2.033   6.005  1.5329 -3.0650 -2.9589
   38POPC   C15 5051   2.353   2.290   6.108  0.0688 -0.0029 -0.7861
   38POPC  H15A 5052   2.367   2.374   6.042  2.0301  0.8415  0.6717
   38POPC  H15B 5053   2.371   2.312   6.212 -1.1889 -1.3230 -0.2648
   38POPC  H15C 5054   2.254   2.247   6.109  0.4484 -0.8975 -1.4022
   38POPC   C11 5055   2.577   2.169   6.293 -0.9620 -0.1454  0.0122
   38POPC  H11A 5056   2.674   2.209   6.255 -1.3951  0.1348 -0.8258
   38POPC  H11B 5057   2.593   2.079   6.357 -1.8122 -0.0269  0.3957
   38POPC     P 5058   2.393   2.235   6.461  0.2792  0.2632 -0.3625
   38POPC   O13 5059   2.396   2.096   6.501  0.1155  0.3881 -0.2999
   38POPC   O14 5060   2.269   2.305   6.426  0.1015  0.4347 -0.0018
   38POPC   O12 5061   2.502   2.270   6.352  0.0692 -0.1805 -0.3411
   38POPC   O11 5062   2.455   2.307   6.583  0.0638 -0.5313 -0.9992
   38POPC    C1 5063   2.578   2.270   6.631  0.3186  0.2576 -0.2180
   38POPC    HA 5064   2.649   2.254   6.546 -0.3585 -1.6713 -0.4460
   38POPC    HB 5065   2.569   2.182   6.698  4.1039 -0.2092 -0.2202
   38POPC    C2 5066   2.641   2.377   6.719  0.2552  0.6613  0.1163
   38POPC    HS 5067   2.742   2.339   6.746 -0.2205 -0.8565 -0.1676
   38POPC   O21 5068   2.564   2.389   6.838  0.1439 -0.4610  0.6145
   38POPC   C21 5069   2.588   2.298   6.922 -0.3028  0.2462  0.0311
   38POPC   O22 5070   2.663   2.202   6.908  0.0465  0.2178 -0.2711
   38POPC   C22 5071   2.494   2.319   7.046  0.3232 -0.0894  0.5037
   38POPC   H2R 5072   2.414   2.241   7.050  1.9013 -1.8423 -1.5029
   38POPC   H2S 5073   2.441   2.417   7.036 -1.8214 -1.4022 -1.5073
   38POPC    C3 5074   2.646   2.514   6.653 -0.2076  0.0957  0.2840
   38POPC    HX 5075   2.551   2.570   6.665  0.0291  0.4939  0.3087
   38POPC    HY 5076   2.654   2.499   6.543  0.4523  0.0740  0.3302
   38POPC   O31 5077   2.754   2.598   6.705 -0.2003  0.1920  0.1840
   38POPC   C31 5078   2.746   2.729   6.671  0.3203 -0.6131  0.3328
   38POPC   O32 5079   2.668   2.774   6.585  0.5270 -0.4425 -0.6969
   38POPC   C32 5080   2.843   2.814   6.767  0.5108  0.1508  0.0815
   38POPC   H2X 5081   2.925   2.852   6.702 -0.4688  1.7211 -0.2484
   38POPC   H2Y 5082   2.876   2.736   6.839 -1.6607 -0.8960  0.0115
   38POPC   C23 5083   2.575   2.324   7.182 -0.9141  0.2128 -0.6916
   38POPC   H3R 5084   2.641   2.414   7.177 -0.1420 -0.1254  2.6007
   38POPC   H3S 5085   2.640   2.235   7.194  1.4310  1.9760  0.1659
   38POPC   C24 5086   2.482   2.332   7.296 -0.3444  0.1311  0.5482
   38POPC   H4R 5087   2.415   2.244   7.282 -0.7109  0.9717 -3.3415
   38POPC   H4S 5088   2.424   2.426   7.299  1.0664  0.9833  1.8599
   38POPC   C25 5089   2.559   2.325   7.434  1.1695 -0.0373  0.5798
   38POPC   H5R 5090   2.585   2.425   7.474  0.9368  0.7380 -1.1575
   38POPC   H5S 5091   2.644   2.257   7.411  1.4878 -0.2904  2.4380
   38POPC   C26 5092   2.489   2.244   7.540 -0.3972 -0.4188 -0.0614
   38POPC   H6R 5093   2.449   2.149   7.498  2.0682 -1.2901 -0.5287
   38POPC   H6S 5094   2.401   2.306   7.566  0.0093 -0.8569  2.4894
   38POPC   C27 5095   2.585   2.218   7.664  0.8073  0.4935  1.1022
   38POPC   H7R 5096   2.619   2.310   7.716  1.4780  0.3173  0.9857
   38POPC   H7S 5097   2.682   2.185   7.621  0.6361  0.9596  0.3596
   38POPC   C28 5098   2.531   2.107   7.754 -0.6040 -0.6624  0.0249
   38POPC   H8R 5099   2.595   2.088   7.843 -0.3286  2.5104  0.5617
   38POPC   H8S 5100   2.534   2.012   7.697  0.0650 -0.2627 -0.6222
   38POPC   C29 5101   2.384   2.143   7.793 -0.4325 -0.1697  0.4401
   38POPC   H91 5102   2.313   2.175   7.715 -1.1624  2.5214  2.1401
   38POPC  C210 5103   2.326   2.141   7.917 -0.7340  0.0818 -0.1284
   38POPC  H101 5104   2.218   2.160   7.926 -0.7032 -0.2878  1.1846
   38POPC  C211 5105   2.393   2.108   8.047 -0.0437 -0.3075  0.7578
   38POPC  H11R 5106   2.373   2.186   8.124 -1.3216 -0.7051  0.8435
   38POPC  H11S 5107   2.501   2.088   8.029 -0.9291 -1.7219 -3.4410
   38POPC  C212 5108   2.339   1.976   8.123 -0.4972  0.0272  0.0326
   38POPC  H12R 5109   2.415   1.952   8.200  1.5138  1.9470 -1.2998
   38POPC  H12S 5110   2.336   1.886   8.057  4.0001  0.6663 -1.1653
   38POPC  C213 5111   2.212   2.013   8.205 -0.0906  0.1357  0.2956
   38POPC  H13R 5112   2.129   2.014   8.131 -0.4658  0.7651  0.7092
   38POPC  H13S 5113   2.220   2.115   8.251  0.8966  0.4387 -0.5292
   38POPC  C214 5114   2.183   1.902   8.306  0.2068 -0.7005 -0.4978
   38POPC  H14R 5115   2.132   1.943   8.396 -2.1508 -1.4211 -1.4750
   38POPC  H14S 5116   2.268   1.845   8.349 -0.8494  1.3570  4.6576
   38POPC  C215 5117   2.083   1.790   8.256  0.2084 -0.2820  0.3357
   38POPC  H15R 5118   2.111   1.746   8.158 -0.0334 -2.4325  1.1913
   38POPC  H15S 5119   1.978   1.825   8.250  0.2708 -0.0100  0.8256
   38POPC  C216 5120   2.085   1.672   8.360 -0.0875 -0.8103 -0.2830
   38POPC  H16R 5121   1.987   1.620   8.354 -0.5877 -0.1105  1.4759
   38POPC  H16S 5122   2.085   1.717   8.462 -2.5907  1.1017 -1.0899
   38POPC  C217 5123   2.193   1.566   8.338 -0.2097  1.0139  0.6955
   38POPC  H17R 5124   2.202   1.555   8.228  1.7348 -0.8182  1.0053
   38POPC  H17S 5125   2.149   1.473   8.377  0.7012 -0.1034 -0.9037
   38POPC  C218 5126   2.334   1.596   8.396  0.3015 -0.0640  0.2153
   38POPC  H18R 5127   2.370   1.700   8.382 -1.3841  0.5276  0.1808
   38POPC  H18S 5128   2.404   1.520   8.355  1.4858  0.8189  0.5734
   38POPC  H18T 5129   2.329   1.574   8.505  2.0885  2.1285  0.7601
   38POPC   C33 5130   2.770   2.919   6.852 -0.2588 -0.5707 -0.2998
   38POPC   H3X 5131   2.679   2.873   6.897 -0.7660  0.1350 -0.5984
   38POPC   H3Y 5132   2.727   2.998   6.787  1.1229  0.9104  0.5245
   38POPC   C34 5133   2.855   2.990   6.963 -0.1475  0.1409 -0.1575
   38POPC   H4X 5134   2.798   3.076   7.004 -0.6266  0.2815 -1.1165
   38POPC   H4Y 5135   2.948   3.031   6.919 -1.6915  1.0138 -2.7527
   38POPC   C35 5136   2.891   2.896   7.084 -0.4051 -0.4056  0.0482
   38POPC   H5X 5137   2.964   2.959   7.140  1.2959 -1.2889 -1.1526
   38POPC   H5Y 5138   2.942   2.806   7.044  1.1889  0.1177  0.8876
   38POPC   C36 5139   2.775   2.846   7.176 -0.6348 -0.3893 -0.4815
   38POPC   H6X 5140   2.711   2.779   7.115 -3.0431  1.7506 -0.3800
   38POPC   H6Y 5141   2.717   2.934   7.209  0.1904 -0.3639  0.9466
   38POPC   C37 5142   2.816   2.779   7.307  0.6251  0.1904 -0.0236
   38POPC   H7X 5143   2.873   2.857   7.362  0.4734 -0.4516  1.0571
   38POPC   H7Y 5144   2.873   2.686   7.288 -1.6880 -1.4039  0.6609
   38POPC   C38 5145   2.694   2.736   7.387 -0.3224  0.4080 -0.0459
   38POPC   H8X 5146   2.650   2.644   7.343  0.2290  0.8138 -1.4631
   38POPC   H8Y 5147   2.615   2.811   7.410  0.2532  1.4708 -1.4868
   38POPC   C39 5148   2.745   2.696   7.526  0.1264  0.1701  0.0837
   38POPC   H9X 5149   2.850   2.662   7.522 -0.4567 -1.9852  2.0259
   38POPC   H9Y 5150   2.683   2.613   7.568 -0.3267  0.7382  0.5547
   38POPC  C310 5151   2.735   2.807   7.634  0.4149  0.1918  0.1536
   38POPC  H10X 5152   2.628   2.834   7.651  0.2302  1.3784 -2.6304
   38POPC  H10Y 5153   2.781   2.900   7.595  3.2550 -1.3490 -0.3440
   38POPC  C311 5154   2.797   2.768   7.767  0.3547  0.4724  0.0220
   38POPC  H11X 5155   2.902   2.739   7.745  0.5069  0.4838  0.7277
   38POPC  H11Y 5156   2.752   2.673   7.804  1.0628  0.4641  0.8786
   38POPC  C312 5157   2.791   2.875   7.881  0.3819 -0.1760 -0.1535
   38POPC  H12X 5158   2.853   2.964   7.854 -0.3475 -0.0175 -1.3746
   38POPC  H12Y 5159   2.853   2.824   7.958 -0.4586 -2.2987 -0.8586
   38POPC  C313 5160   2.651   2.915   7.931 -0.4864  0.4693  0.2663
   38POPC  H13X 5161   2.596   2.826   7.967 -0.1296  0.3400  0.4854
   38POPC  H13Y 5162   2.589   2.948   7.844  0.5192 -0.0346 -0.6602
   38POPC  C314 5163   2.644   3.008   8.046 -1.1329  0.1038 -0.2245
   38POPC  H14X 5164   2.543   3.054   8.052 -0.9587  0.2350  2.5425
   38POPC  H14Y 5165   2.719   3.084   8.014 -1.1256  0.1091 -0.1960
   38POPC  C315 5166   2.684   2.938   8.179  0.2052 -0.1129 -0.3666
   38POPC  H15X 5167   2.783   2.887   8.177 -0.2830 -1.0177 -2.1541
   38POPC  H15Y 5168   2.606   2.859   8.184  1.5460 -1.4525 -0.2038
   38POPC  C316 5169   2.680   3.033   8.303 -0.4269  0.0672  0.0227
   38POPC  H16X 5170   2.696   2.975   8.397  0.9856 -1.2121 -0.9788
   38POPC  H16Y 5171   2.586   3.091   8.310 -0.2554  0.4081 -0.4673
   38POPC  H16Z 5172   2.760   3.107   8.282 -0.4912  0.1293  0.0007
   39POPC     N 5173   6.359   0.350   6.150 -0.6894  0.8187 -1.2375
   39POPC   C12 5174   6.460   0.326   6.258  0.5384  0.2305 -0.1220
   39POPC  H12A 5175   6.453   0.414   6.320 -1.4065  0.5067 -0.7165
   39POPC  H12B 5176   6.562   0.328   6.220  0.8924  0.0481  0.8139
   39POPC   C13 5177   6.394   0.253   6.040 -0.0630  0.6336 -0.5490
   39POPC  H13A 5178   6.480   0.277   5.981 -0.3530  1.2395 -0.7266
   39POPC  H13B 5179   6.416   0.157   6.085  2.0092  1.5358  0.4346
   39POPC  H13C 5180   6.310   0.244   5.973 -1.2692  3.9962  0.4316
   39POPC   C14 5181   6.218   0.320   6.186 -0.2939 -0.6245 -0.3836
   39POPC  H14A 5182   6.182   0.393   6.257  0.6057 -1.9092  1.4156
   39POPC  H14B 5183   6.156   0.321   6.098 -0.8201  1.4899 -0.0101
   39POPC  H14C 5184   6.205   0.220   6.223  1.1214 -1.1576 -1.2446
   39POPC   C15 5185   6.378   0.479   6.088 -0.4013 -0.0003  0.3818
   39POPC  H15A 5186   6.481   0.512   6.092 -0.6567  1.8193 -4.1382
   39POPC  H15B 5187   6.326   0.554   6.146 -1.0882 -2.7111  3.3650
   39POPC  H15C 5188   6.351   0.487   5.983 -0.4909 -1.8585  0.2528
   39POPC   C11 5189   6.454   0.198   6.346  0.1267 -1.1213 -0.6720
   39POPC  H11A 5190   6.367   0.202   6.415  1.0241 -0.9150  0.4682
   39POPC  H11B 5191   6.535   0.201   6.423 -1.1052 -0.9211  0.6430
   39POPC     P 5192   6.624   0.043   6.232 -0.2529  0.0475  0.0375
   39POPC   O13 5193   6.705   0.165   6.217  0.0316 -0.5847  0.7832
   39POPC   O14 5194   6.630  -0.048   6.115 -0.1753  0.3330  0.5869
   39POPC   O12 5195   6.467   0.075   6.269 -0.8459 -0.1027  0.4255
   39POPC   O11 5196   6.668  -0.016   6.373 -0.3260  0.6477  0.0295
   39POPC    C1 5197   6.589  -0.108   6.450 -0.3148  0.1544  0.5926
   39POPC    HA 5198   6.564  -0.202   6.397 -1.4836  0.5982  0.3377
   39POPC    HB 5199   6.495  -0.057   6.478 -0.5944 -0.2614  0.4136
   39POPC    C2 5200   6.661  -0.148   6.589  0.6953 -0.9057  0.4560
   39POPC    HS 5201   6.583  -0.195   6.653  0.0665 -0.8418 -0.2552
   39POPC   O21 5202   6.730  -0.042   6.655 -0.0291 -0.5644  0.8460
   39POPC   C21 5203   6.656   0.060   6.691  0.6862  1.1867 -1.2189
   39POPC   O22 5204   6.536   0.060   6.699  0.1683 -0.6153  0.4568
   39POPC   C22 5205   6.738   0.175   6.743  0.5551 -0.0961 -0.1482
   39POPC   H2R 5206   6.737   0.260   6.671  1.2767 -1.7884 -2.2323
   39POPC   H2S 5207   6.843   0.141   6.753  0.4357 -0.9102 -1.5598
   39POPC    C3 5208   6.754  -0.272   6.558  0.1211  0.2355  0.5363
   39POPC    HX 5209   6.836  -0.248   6.488 -0.1183  1.0298  0.5208
   39POPC    HY 5210   6.688  -0.343   6.503 -1.2534  1.4464  0.5825
   39POPC   O31 5211   6.803  -0.331   6.681  0.2129  0.7865  0.0563
   39POPC   C31 5212   6.886  -0.429   6.654 -0.1385  1.0283 -0.3614
   39POPC   O32 5213   6.946  -0.440   6.548  0.2005  0.0131  0.0668
   39POPC   C32 5214   6.906  -0.529   6.768  0.0339  0.1218  0.2578
   39POPC   H2X 5215   6.876  -0.633   6.743 -1.3099  0.3613  0.8265
   39POPC   H2Y 5216   7.013  -0.527   6.797 -0.1506  0.8569  0.9048
   39POPC   C23 5217   6.695   0.226   6.883  0.3346 -0.1120  0.0112
   39POPC   H3R 5218   6.584   0.225   6.889  0.4832 -1.9410  3.8325
   39POPC   H3S 5219   6.726   0.333   6.885 -0.9957  0.2658  1.4630
   39POPC   C24 5220   6.753   0.154   7.003 -0.4669 -0.5723  0.5232
   39POPC   H4R 5221   6.695   0.186   7.092 -1.4374  0.6826 -0.5423
   39POPC   H4S 5222   6.858   0.187   7.017 -0.1219 -1.7493  0.7561
   39POPC   C25 5223   6.750   0.003   6.993  0.9028 -0.0099 -0.4119
   39POPC   H5R 5224   6.811  -0.048   7.070  0.9676  1.6158  0.6243
   39POPC   H5S 5225   6.791  -0.039   6.898  1.8266 -1.4163  0.5898
   39POPC   C26 5226   6.603  -0.053   7.011 -0.0715  0.4128  0.0292
   39POPC   H6R 5227   6.527  -0.009   6.943  0.0107  1.2381  0.4624
   39POPC   H6S 5228   6.571  -0.022   7.112  0.7380  0.2338  0.3455
   39POPC   C27 5229   6.613  -0.202   6.990 -0.4686  0.5617  0.3857
   39POPC   H7R 5230   6.663  -0.247   7.079 -0.3242  3.3487  1.8030
   39POPC   H7S 5231   6.663  -0.232   6.896  2.7407 -1.0765  2.4842
   39POPC   C28 5232   6.476  -0.271   6.987 -0.0349 -0.4868  0.5884
   39POPC   H8R 5233   6.425  -0.252   6.889 -0.4085 -0.8819  0.7010
   39POPC   H8S 5234   6.416  -0.236   7.074 -1.3669 -2.0604  0.3341
   39POPC   C29 5235   6.486  -0.422   6.983  0.2584 -0.0950 -0.2157
   39POPC   H91 5236   6.515  -0.469   6.888 -1.2291 -1.6822  0.0919
   39POPC  C210 5237   6.467  -0.508   7.090  0.4253 -0.7477  0.1859
   39POPC  H101 5238   6.465  -0.618   7.082 -0.9697 -0.5692 -2.2875
   39POPC  C211 5239   6.433  -0.462   7.231 -0.2595 -0.6189  0.6756
   39POPC  H11R 5240   6.326  -0.429   7.235 -0.6276 -1.4762 -1.4663
   39POPC  H11S 5241   6.489  -0.371   7.262  0.4499 -1.1592  0.9891
   39POPC  C212 5242   6.432  -0.577   7.332  0.0694 -0.1929 -0.4037
   39POPC  H12R 5243   6.534  -0.607   7.361  0.3996  0.0817 -1.2635
   39POPC  H12S 5244   6.383  -0.668   7.292 -0.8768 -0.5652  1.5332
   39POPC  C213 5245   6.371  -0.534   7.471 -0.2145  0.0236 -0.3747
   39POPC  H13R 5246   6.262  -0.513   7.465 -0.4691  0.2228  3.5425
   39POPC  H13S 5247   6.410  -0.437   7.509  0.2573 -0.2766 -0.1023
   39POPC  C214 5248   6.394  -0.631   7.580  0.0085  0.2030  0.7910
   39POPC  H14R 5249   6.503  -0.635   7.603  0.0082  2.0045  1.1814
   39POPC  H14S 5250   6.348  -0.728   7.551  2.3315 -1.3322  2.0704
   39POPC  C215 5251   6.319  -0.592   7.708  0.2513  0.4811 -0.4849
   39POPC  H15R 5252   6.212  -0.623   7.708  0.4154 -0.1504  1.4612
   39POPC  H15S 5253   6.324  -0.481   7.703 -1.2765  0.5582 -0.4766
   39POPC  C216 5254   6.383  -0.653   7.837 -0.3232 -0.0303  0.0183
   39POPC  H16R 5255   6.489  -0.623   7.853  0.1325 -0.4288 -2.1694
   39POPC  H16S 5256   6.383  -0.762   7.817 -2.8219 -0.1474  0.5113
   39POPC  C217 5257   6.289  -0.610   7.957  0.4407 -0.8021 -0.5388
   39POPC  H17R 5258   6.209  -0.687   7.961 -0.9765  0.6353 -0.5970
   39POPC  H17S 5259   6.249  -0.509   7.932  1.5568 -0.3827 -0.6825
   39POPC  C218 5260   6.367  -0.622   8.093 -0.0909  0.7391  0.0161
   39POPC  H18R 5261   6.438  -0.706   8.075 -1.8544 -0.4588 -1.5949
   39POPC  H18S 5262   6.290  -0.671   8.155 -2.7834  3.3074 -1.1990
   39POPC  H18T 5263   6.416  -0.530   8.131 -1.7921  0.6537  2.4464
   39POPC   C33 5264   6.836  -0.474   6.903 -0.4532  0.0400 -0.0305
   39POPC   H3X 5265   6.728  -0.490   6.886 -0.3165 -0.1256 -0.7677
   39POPC   H3Y 5266   6.859  -0.366   6.916  0.8269  0.1306 -2.6847
   39POPC   C34 5267   6.894  -0.541   7.026 -0.2076  0.3033 -0.1739
   39POPC   H4X 5268   7.004  -0.530   7.014 -0.2056  0.5453  0.0636
   39POPC   H4Y 5269   6.881  -0.651   7.037 -0.4107  0.3490  0.0345
   39POPC   C35 5270   6.854  -0.479   7.162  0.0650  0.7553  0.4261
   39POPC   H5X 5271   6.743  -0.471   7.151  0.1235 -0.8634 -1.7550
   39POPC   H5Y 5272   6.899  -0.378   7.162 -2.6860  2.1083  4.2741
   39POPC   C36 5273   6.897  -0.557   7.287  0.4996  0.6164 -0.3479
   39POPC   H6X 5274   7.006  -0.580   7.283  0.5514  0.9616 -1.0183
   39POPC   H6Y 5275   6.848  -0.653   7.261  1.0795  0.3575 -0.4933
   39POPC   C37 5276   6.848  -0.495   7.414 -0.1325 -0.3764 -0.1553
   39POPC   H7X 5277   6.740  -0.475   7.402 -0.4386 -2.2762 -0.6903
   39POPC   H7Y 5278   6.904  -0.402   7.439 -1.3265  0.2104  0.3704
   39POPC   C38 5279   6.863  -0.597   7.531  0.0504  0.4783 -0.1525
   39POPC   H8X 5280   6.974  -0.608   7.537  0.2529  2.9283  1.7210
   39POPC   H8Y 5281   6.824  -0.699   7.514 -0.9733  0.7209  0.7182
   39POPC   C39 5282   6.840  -0.540   7.674 -0.6575  0.6001  0.0666
   39POPC   H9X 5283   6.731  -0.549   7.694 -0.7133  1.3427  0.1192
   39POPC   H9Y 5284   6.855  -0.430   7.668 -0.8385  0.6318  0.1951
   39POPC  C310 5285   6.923  -0.618   7.777  0.6485  0.0085 -0.2260
   39POPC  H10X 5286   7.032  -0.618   7.757  0.4489  1.0194 -1.3399
   39POPC  H10Y 5287   6.890  -0.724   7.777  0.7723 -0.0366 -1.9474
   39POPC  C311 5288   6.903  -0.564   7.921 -0.6758 -0.1806 -0.0695
   39POPC  H11X 5289   6.795  -0.586   7.937 -0.5603  0.4801  1.7058
   39POPC  H11Y 5290   6.917  -0.454   7.918 -0.8725 -0.1497  0.0766
   39POPC  C312 5291   6.998  -0.621   8.024  0.3983  0.4865  0.4195
   39POPC  H12X 5292   7.021  -0.726   8.000 -0.9679  0.1246  0.6679
   39POPC  H12Y 5293   6.955  -0.620   8.127 -0.0206  1.1692  0.2491
   39POPC  C313 5294   7.133  -0.549   8.037 -0.4906  0.0742 -0.5583
   39POPC  H13X 5295   7.192  -0.547   7.943  0.2873  2.7054 -0.0646
   39POPC  H13Y 5296   7.188  -0.618   8.104 -0.5742  1.7999  1.3570
   39POPC  C314 5297   7.142  -0.410   8.092  0.7176 -0.3260  0.1311
   39POPC  H14X 5298   7.061  -0.347   8.048  1.8648  1.5943  0.6990
   39POPC  H14Y 5299   7.245  -0.383   8.062  0.5294  0.3631  0.0859
   39POPC  C315 5300   7.138  -0.395   8.247  0.4014 -0.5707 -0.4966
   39POPC  H15X 5301   7.221  -0.440   8.304 -0.0045  0.0602  0.6063
   39POPC  H15Y 5302   7.047  -0.451   8.279  0.2181 -0.5545 -0.9829
   39POPC  C316 5303   7.124  -0.244   8.288 -1.2591 -0.7141 -0.0568
   39POPC  H16X 5304   7.127  -0.241   8.399 -0.8239 -1.8963 -0.0323
   39POPC  H16Y 5305   7.028  -0.207   8.248  0.0811  1.9581 -0.9458
   39POPC  H16Z 5306   7.209  -0.182   8.251 -0.9326 -0.8912  0.3820
   40POPC     N 5307   6.174   3.717   6.238  0.3436  0.1770  0.3084
   40POPC   C12 5308   6.190   3.863   6.269 -1.1074 -0.3195  0.0585
   40POPC  H12A 5309   6.139   3.923   6.195 -1.0951  0.1574  0.4334
   40POPC  H12B 5310   6.291   3.892   6.241 -0.4125 -0.1128  2.6322
   40POPC   C13 5311   6.175   3.705   6.092 -0.2148  0.0214 -0.6706
   40POPC  H13A 5312   6.080   3.736   6.050 -0.3704 -0.0296 -0.3641
   40POPC  H13B 5313   6.259   3.755   6.047  0.4112 -0.1045  0.3371
   40POPC  H13C 5314   6.176   3.601   6.063  2.2929  0.5391 -2.5597
   40POPC   C14 5315   6.276   3.623   6.295  0.1538 -0.5609  0.8944
   40POPC  H14A 5316   6.246   3.524   6.265 -0.4260  0.4673 -2.0501
   40POPC  H14B 5317   6.378   3.645   6.265 -0.5365  0.1183 -1.0123
   40POPC  H14C 5318   6.282   3.616   6.403  2.0217 -2.2003  0.7069
   40POPC   C15 5319   6.039   3.680   6.284  0.0202 -0.2430  0.4014
   40POPC  H15A 5320   5.962   3.739   6.236  0.8751 -0.8447 -1.7480
   40POPC  H15B 5321   6.028   3.708   6.388 -1.4973  1.0816 -0.0957
   40POPC  H15C 5322   6.022   3.575   6.269 -1.0180  0.0387 -0.5252
   40POPC   C11 5323   6.149   3.913   6.418  0.1201 -0.3578 -0.2349
   40POPC  H11A 5324   6.203   4.008   6.439 -1.4099  0.4582  0.0197
   40POPC  H11B 5325   6.168   3.839   6.498 -2.9318 -0.5211  0.4012
   40POPC     P 5326   5.916   3.925   6.548 -0.6959  0.1702 -0.2404
   40POPC   O13 5327   5.880   3.781   6.565 -0.3904 -0.1485 -0.4113
   40POPC   O14 5328   5.804   4.020   6.529  0.8423  0.2642  0.8181
   40POPC   O12 5329   6.009   3.940   6.417 -0.3151 -0.3398 -0.2064
   40POPC   O11 5330   6.017   3.973   6.666 -0.0373 -0.1854  0.0737
   40POPC    C1 5331   6.082   3.870   6.742 -0.5355 -0.1088 -0.5316
   40POPC    HA 5332   6.189   3.901   6.744 -0.5597 -0.1167  1.7956
   40POPC    HB 5333   6.066   3.767   6.703  0.2715 -1.0596  1.5588
   40POPC    C2 5334   6.018   3.865   6.890  0.2129 -0.0727 -0.0761
   40POPC    HS 5335   5.921   3.810   6.894  0.0648  0.2923  1.3485
   40POPC   O21 5336   6.005   4.005   6.941  0.5719 -0.9199 -0.3883
   40POPC   C21 5337   5.883   4.046   6.958 -0.3776  0.8202  0.1701
   40POPC   O22 5338   5.779   3.988   6.934  0.4591 -0.0496  0.1477
   40POPC   C22 5339   5.896   4.193   7.012  0.3473 -0.0623 -0.5544
   40POPC   H2R 5340   5.963   4.246   6.942  0.0494  0.5914 -0.3510
   40POPC   H2S 5341   5.957   4.184   7.104  0.7882 -0.4147 -0.8780
   40POPC    C3 5342   6.111   3.791   6.980 -1.6081 -0.2655 -0.4762
   40POPC    HX 5343   6.205   3.849   6.991 -1.7074 -0.6020  2.7279
   40POPC    HY 5344   6.153   3.694   6.946  2.0949  1.2224 -0.4380
   40POPC   O31 5345   6.056   3.776   7.113  0.3508  0.6990  0.3633
   40POPC   C31 5346   6.118   3.697   7.196  1.3240 -0.1430  0.0610
   40POPC   O32 5347   6.211   3.624   7.162  0.2140 -0.5487 -0.1303
   40POPC   C32 5348   6.067   3.716   7.337  0.3901 -0.4424  0.1808
   40POPC   H2X 5349   5.956   3.715   7.329  0.4874 -2.8334 -1.3220
   40POPC   H2Y 5350   6.109   3.813   7.374  3.5930 -0.8098 -2.2198
   40POPC   C23 5351   5.764   4.273   7.025 -0.1798  0.0258  0.0605
   40POPC   H3R 5352   5.687   4.214   7.079  0.9111  0.7357  2.4586
   40POPC   H3S 5353   5.730   4.299   6.923  0.2088  0.5688  0.0635
   40POPC   C24 5354   5.788   4.401   7.102 -1.4190 -0.1211  0.1172
   40POPC   H4R 5355   5.856   4.466   7.042 -1.8413 -0.1266 -0.3636
   40POPC   H4S 5356   5.841   4.369   7.195  1.5377  0.3701 -1.3454
   40POPC   C25 5357   5.658   4.490   7.123 -0.7128 -0.2717  0.2447
   40POPC   H5R 5358   5.616   4.509   7.022  0.1665 -0.8212 -0.2316
   40POPC   H5S 5359   5.692   4.589   7.159 -1.8979  0.6743 -1.1622
   40POPC   C26 5360   5.541   4.435   7.216 -0.4011 -0.1979  0.3860
   40POPC   H6R 5361   5.482   4.349   7.177  2.1448 -1.3424 -1.1106
   40POPC   H6S 5362   5.468   4.516   7.234  2.6274  2.8747 -0.6282
   40POPC   C27 5363   5.588   4.390   7.355  0.6444 -0.0289 -0.6698
   40POPC   H7R 5364   5.678   4.331   7.328  0.2978 -0.2390 -1.3840
   40POPC   H7S 5365   5.507   4.329   7.400  0.5170  0.7756  0.2173
   40POPC   C28 5366   5.635   4.497   7.450 -0.7667  0.0767 -0.6260
   40POPC   H8R 5367   5.552   4.564   7.483 -0.2713  0.0476  0.7098
   40POPC   H8S 5368   5.724   4.546   7.405  1.0098 -3.4371 -1.1046
   40POPC   C29 5369   5.676   4.441   7.585 -0.3148 -0.4121  0.5660
   40POPC   H91 5370   5.625   4.350   7.620  0.2495 -0.2082  1.9554
   40POPC  C210 5371   5.777   4.490   7.663 -0.3045 -0.6224  0.1183
   40POPC  H101 5372   5.798   4.443   7.761 -0.3902 -2.7017 -0.8398
   40POPC  C211 5373   5.865   4.609   7.634 -0.1631  0.8847  0.7265
   40POPC  H11R 5374   5.802   4.694   7.601  0.5584  0.2732 -2.2990
   40POPC  H11S 5375   5.940   4.591   7.555 -0.5137 -0.0576  0.5973
   40POPC  C212 5376   5.959   4.644   7.750 -0.2951 -0.4870 -0.5945
   40POPC  H12R 5377   6.044   4.708   7.717  0.7656 -2.1188 -1.0742
   40POPC  H12S 5378   6.011   4.559   7.799  1.1551  0.9387  0.3944
   40POPC  C213 5379   5.885   4.728   7.859  0.5951  0.3162 -0.0690
   40POPC  H13R 5380   5.858   4.666   7.947 -1.5457  0.0179 -0.9038
   40POPC  H13S 5381   5.790   4.780   7.836 -0.7895 -1.7074  0.8898
   40POPC  C214 5382   5.993   4.830   7.919 -0.0664 -0.8882  1.5856
   40POPC  H14R 5383   6.001   4.920   7.855  2.9028 -0.6013  2.3049
   40POPC  H14S 5384   6.091   4.778   7.913 -0.5967 -1.8383  1.1332
   40POPC  C215 5385   5.958   4.870   8.064  0.3087 -0.2027  0.4675
   40POPC  H15R 5386   5.925   4.778   8.115  0.5408  0.2050  1.3646
   40POPC  H15S 5387   5.873   4.941   8.068 -1.0667 -1.7576 -0.9477
   40POPC  C216 5388   6.065   4.937   8.154 -0.3605 -0.6573 -0.1187
   40POPC  H16R 5389   6.107   5.027   8.104 -1.5853 -0.2534 -0.4419
   40POPC  H16S 5390   6.146   4.862   8.161  0.1807 -0.0862 -0.1730
   40POPC  C217 5391   5.990   4.980   8.282  0.4297 -0.1121  1.0698
   40POPC  H17R 5392   5.960   4.883   8.328 -2.9228 -0.2641 -1.2478
   40POPC  H17S 5393   5.901   5.043   8.262 -0.3488 -0.1903  4.0336
   40POPC  C218 5394   6.095   5.048   8.378 -0.2715 -0.2219  0.4368
   40POPC  H18R 5395   6.060   5.098   8.471  1.9514  1.1159  0.6011
   40POPC  H18S 5396   6.158   5.123   8.326 -0.7734  0.1864  0.4208
   40POPC  H18T 5397   6.166   4.966   8.403 -0.7330 -0.7364  0.0800
   40POPC   C33 5398   6.104   3.605   7.435 -0.3417  0.1313  0.3651
   40POPC   H3X 5399   6.215   3.608   7.439 -0.2334 -1.4629 -0.9763
   40POPC   H3Y 5400   6.061   3.513   7.391 -0.7226  0.8065 -0.7080
   40POPC   C34 5401   6.042   3.635   7.570 -0.1204 -0.4499  0.9053
   40POPC   H4X 5402   6.030   3.540   7.628 -1.7598 -1.1369 -0.5130
   40POPC   H4Y 5403   5.937   3.664   7.547  0.0886 -0.6381 -0.3040
   40POPC   C35 5404   6.138   3.726   7.645 -0.0483  0.1943 -0.3459
   40POPC   H5X 5405   6.159   3.813   7.579 -0.7336  0.9233  0.3772
   40POPC   H5Y 5406   6.240   3.688   7.668 -0.5470 -0.0686  1.5391
   40POPC   C36 5407   6.078   3.782   7.779  0.7080 -0.1127 -0.9859
   40POPC   H6X 5408   5.973   3.816   7.767 -0.0575 -1.4369  1.5231
   40POPC   H6Y 5409   6.132   3.872   7.817 -0.6806  1.5258 -2.8412
   40POPC   C37 5410   6.090   3.672   7.895  0.4548  0.4910  0.3404
   40POPC   H7X 5411   6.198   3.651   7.910  0.4511  0.0545 -0.2359
   40POPC   H7Y 5412   6.054   3.572   7.862  0.6720  0.6962 -0.5304
   40POPC   C38 5413   6.018   3.704   8.027  0.0219 -0.2940 -0.5076
   40POPC   H8X 5414   5.907   3.703   8.018 -0.1196 -1.6814  1.0710
   40POPC   H8Y 5415   6.051   3.804   8.062  0.9976 -0.5267 -0.7415
   40POPC   C39 5416   6.058   3.605   8.141 -0.0968 -0.0679  0.1480
   40POPC   H9X 5417   6.168   3.600   8.158  0.3912  0.9668 -2.6192
   40POPC   H9Y 5418   6.012   3.511   8.104 -2.5492  1.8492 -1.8556
   40POPC  C310 5419   5.996   3.632   8.279  0.7143 -0.2247  0.3034
   40POPC  H10X 5420   5.885   3.642   8.278  0.4729 -2.4716  1.3099
   40POPC  H10Y 5421   6.031   3.734   8.306 -1.0612  0.3965  0.3419
   40POPC  C311 5422   6.032   3.539   8.399 -0.1021  0.2000  0.1598
   40POPC  H11X 5423   6.142   3.546   8.415 -0.4715  0.9359  2.5838
   40POPC  H11Y 5424   6.002   3.433   8.384 -1.7486  0.6254  0.3106
   40POPC  C312 5425   5.955   3.583   8.530 -0.2806 -0.1694 -0.4201
   40POPC  H12X 5426   5.978   3.689   8.558 -0.3216 -0.5411  1.0716
   40POPC  H12Y 5427   5.988   3.513   8.609 -0.6069 -0.8894 -0.9126
   40POPC  C313 5428   5.801   3.574   8.509 -0.4729  0.1548 -0.2446
   40POPC  H13X 5429   5.778   3.472   8.472  0.6673 -0.3131  0.3192
   40POPC  H13Y 5430   5.762   3.655   8.444 -2.8626  0.9629  2.0832
   40POPC  C314 5431   5.728   3.589   8.641  0.0563 -0.0301  0.7824
   40POPC  H14X 5432   5.738   3.694   8.677 -2.3950  0.2290  0.8388
   40POPC  H14Y 5433   5.784   3.531   8.717 -1.3638 -1.3121  0.8803
   40POPC  C315 5434   5.581   3.544   8.643  0.0451 -0.7488 -0.0124
   40POPC  H15X 5435   5.541   3.558   8.746 -0.4025 -0.4295 -0.2252
   40POPC  H15Y 5436   5.573   3.436   8.619  1.0611 -1.0672  1.0409
   40POPC  C316 5437   5.504   3.618   8.537  0.1384 -0.5773  0.6933
   40POPC  H16X 5438   5.532   3.579   8.437 -2.0005  0.7199 -0.4592
   40POPC  H16Y 5439   5.527   3.727   8.544 -1.0464 -0.2843  0.1936
   40POPC  H16Z 5440   5.394   3.608   8.528 -0.0500  1.2240  0.7305
   41CHL1    C3 5441   4.993   1.267  10.206  0.1230 -0.8695 -0.0517
   41CHL1    H3 5442   5.100   1.297  10.202  0.0455 -0.8680 -2.9893
   41CHL1    O3 5443   4.965   1.233  10.338 -0.1335  0.0693 -0.4046
   41CHL1   H3' 5444   4.872   1.252  10.348 -0.2453 -1.1678  0.9210
   41CHL1    C4 5445   4.911   1.386  10.161 -0.6880 -0.6280 -0.0634
   41CHL1   H4A 5446   4.800   1.378  10.171 -0.7043  1.7343  2.1292
   41CHL1   H4B 5447   4.943   1.468  10.229  3.4153 -2.0837 -0.0923
   41CHL1    C5 5448   4.938   1.420  10.014 -0.2005  0.1422  0.2533
   41CHL1    C6 5449   4.983   1.545   9.978 -0.2056  0.5214  0.3809
   41CHL1    H6 5450   4.996   1.628  10.048  0.6227  0.8504 -0.1446
   41CHL1    C7 5451   4.984   1.571   9.829  0.5075  0.4255  0.0500
   41CHL1   H7A 5452   4.941   1.673   9.820 -3.2541 -1.1781 -1.1941
   41CHL1   H7B 5453   5.091   1.571   9.800  0.0890  1.6779 -1.6049
   41CHL1    C8 5454   4.898   1.485   9.731  0.3422  0.3240  0.5717
   41CHL1    H8 5455   4.792   1.512   9.746  1.0490  2.6314  1.5188
   41CHL1   C14 5456   4.941   1.518   9.592 -0.4228  0.7200  0.2804
   41CHL1   H14 5457   5.046   1.482   9.594 -1.0061 -1.0043  3.9946
   41CHL1   C15 5458   4.935   1.662   9.550  0.1365  0.2529 -0.2764
   41CHL1  H15A 5459   4.836   1.703   9.580  1.0293  0.5570  2.4102
   41CHL1  H15B 5460   5.010   1.735   9.588  0.2328  0.9352 -1.7334
   41CHL1   C16 5461   4.938   1.653   9.394 -0.0164  0.3047 -0.3041
   41CHL1  H16A 5462   4.858   1.704   9.337 -1.0170  0.7751  1.4798
   41CHL1  H16B 5463   5.040   1.669   9.353  0.2833 -1.7550 -0.4538
   41CHL1   C17 5464   4.922   1.496   9.358  0.9018 -0.0615 -0.8230
   41CHL1   H17 5465   5.030   1.473   9.345  1.3368  0.5544  1.5627
   41CHL1   C13 5466   4.872   1.429   9.487 -0.1423 -0.4199 -0.9273
   41CHL1   C18 5467   4.721   1.448   9.487 -0.1002  0.0948 -0.7681
   41CHL1  H18A 5468   4.668   1.418   9.580  2.8695 -0.3581  0.8452
   41CHL1  H18B 5469   4.698   1.555   9.470 -1.0089 -0.1199 -0.9220
   41CHL1  H18C 5470   4.667   1.404   9.400  1.1748  1.3177 -2.1968
   41CHL1   C12 5471   4.907   1.283   9.514 -0.2692  0.2333 -0.7367
   41CHL1  H12A 5472   4.847   1.221   9.444  0.6810 -1.3781 -0.1746
   41CHL1  H12B 5473   5.016   1.265   9.498 -0.1662  1.5619 -1.5518
   41CHL1   C11 5474   4.873   1.238   9.661  0.1032 -0.4055 -0.4970
   41CHL1  H11A 5475   4.763   1.247   9.666  0.2145  0.4326  0.5762
   41CHL1  H11B 5476   4.912   1.135   9.671  0.6270 -0.2225 -0.5944
   41CHL1    C9 5477   4.938   1.344   9.762 -0.1896 -0.1125  0.2327
   41CHL1    H9 5478   5.048   1.340   9.745 -0.1720  1.1621 -0.0238
   41CHL1   C10 5479   4.908   1.303   9.911 -0.0143 -0.6588  0.1816
   41CHL1   C19 5480   4.748   1.285   9.924  0.2483  0.0250 -0.5624
   41CHL1  H19A 5481   4.714   1.267  10.029 -2.6940  0.8195 -1.3530
   41CHL1  H19B 5482   4.705   1.374   9.876  0.6771  0.1700 -0.6814
   41CHL1  H19C 5483   4.717   1.206   9.853 -0.3433 -2.1458  1.9856
   41CHL1    C1 5484   4.986   1.183   9.961 -0.9574 -0.0600  0.3036
   41CHL1   H1A 5485   4.964   1.099   9.892  1.2960 -1.2211  0.9674
   41CHL1   H1B 5486   5.094   1.205   9.954 -1.5421  2.3301 -1.9101
   41CHL1    C2 5487   4.967   1.143  10.110 -0.1415  0.0029 -0.1917
   41CHL1   H2A 5488   5.049   1.071  10.133 -1.1540 -0.9341  0.4907
   41CHL1   H2B 5489   4.866   1.103  10.134  0.3942 -1.5467 -0.4483
   41CHL1   C20 5490   4.851   1.466   9.224 -0.5113  0.4419  0.0887
   41CHL1   H20 5491   4.750   1.513   9.225  0.0011  1.5373  0.5477
   41CHL1   C21 5492   4.831   1.311   9.196 -0.0925 -0.9586 -0.5414
   41CHL1  H21A 5493   4.790   1.288   9.096 -2.3419  1.4219 -0.2288
   41CHL1  H21B 5494   4.758   1.268   9.267 -0.2825 -0.3878 -0.3825
   41CHL1  H21C 5495   4.934   1.273   9.182  0.1047 -0.0651 -1.5842
   41CHL1   C22 5496   4.913   1.535   9.104  0.6145 -0.0837  0.0309
   41CHL1  H22A 5497   4.959   1.632   9.133  0.4030 -0.3075  1.1091
   41CHL1  H22B 5498   4.993   1.467   9.065  0.3775 -0.8368  0.8349
   41CHL1   C23 5499   4.827   1.555   8.977 -0.6368  0.0592  0.2342
   41CHL1  H23A 5500   4.758   1.469   8.964 -0.1004 -1.0637  4.3841
   41CHL1  H23B 5501   4.759   1.641   8.995 -0.4536  0.2783 -0.1069
   41CHL1   C24 5502   4.908   1.581   8.852 -0.1311  0.3591  0.2889
   41CHL1  H24A 5503   4.854   1.654   8.787  0.3834 -0.5393 -1.1547
   41CHL1  H24B 5504   4.997   1.633   8.893 -0.5128  1.4420 -0.2401
   41CHL1   C25 5505   4.940   1.459   8.763  0.4258 -0.0648 -0.0036
   41CHL1   H25 5506   4.997   1.380   8.816  1.5810  1.2387  0.7247
   41CHL1   C26 5507   4.809   1.397   8.708 -0.0047 -0.4925 -0.2816
   41CHL1  H26A 5508   4.832   1.332   8.620  0.7414 -0.7799  0.1138
   41CHL1  H26B 5509   4.762   1.331   8.784 -0.7097 -0.0958 -0.3726
   41CHL1  H26C 5510   4.745   1.478   8.667  3.6613  1.9016 -1.4823
   41CHL1   C27 5511   5.024   1.509   8.638 -0.4546  0.1054  0.4131
   41CHL1  H27A 5512   5.126   1.547   8.660 -0.7451  1.0934  0.0857
   41CHL1  H27B 5513   5.040   1.420   8.573 -0.9032  0.3125  0.0187
   41CHL1  H27C 5514   4.975   1.594   8.585  1.0978 -0.4499 -2.0052
   42CHL1    C3 5515   4.663   0.802   9.912  0.6275 -0.5920  0.5010
   42CHL1    H3 5516   4.612   0.900   9.919 -1.6519 -1.8588  2.6416
   42CHL1    O3 5517   4.719   0.759  10.038  0.0545 -0.3846 -0.3508
   42CHL1   H3' 5518   4.653   0.780  10.105 -0.7250 -1.8305 -0.6379
   42CHL1    C4 5519   4.566   0.693   9.863 -0.0232 -0.0310 -0.0700
   42CHL1   H4A 5520   4.620   0.595   9.867  1.1046  0.5765 -0.2095
   42CHL1   H4B 5521   4.470   0.693   9.919  0.8519  1.8689  1.4593
   42CHL1    C5 5522   4.516   0.716   9.719  0.2054  0.2480 -0.4701
   42CHL1    C6 5523   4.385   0.725   9.690  0.0639 -0.9844 -0.5882
   42CHL1    H6 5524   4.303   0.728   9.762 -1.4098  0.3618 -2.2587
   42CHL1    C7 5525   4.335   0.773   9.557 -0.2280  0.0997 -0.2497
   42CHL1   H7A 5526   4.245   0.722   9.515  0.7270  0.7565 -3.2460
   42CHL1   H7B 5527   4.317   0.882   9.567 -4.5389 -0.5998  0.8049
   42CHL1    C8 5528   4.440   0.761   9.440 -0.0112  0.2610 -0.2907
   42CHL1    H8 5529   4.453   0.652   9.422 -2.4672  0.0521 -1.0012
   42CHL1   C14 5530   4.402   0.839   9.316  0.2928 -0.5521  0.7311
   42CHL1   H14 5531   4.411   0.945   9.345  1.0859 -0.2171 -0.6849
   42CHL1   C15 5532   4.263   0.816   9.255 -0.7083  0.4705  0.6259
   42CHL1  H15A 5533   4.257   0.705   9.258  1.4617  0.3377  0.9882
   42CHL1  H15B 5534   4.188   0.867   9.319 -0.9342  0.6852  0.1919
   42CHL1   C16 5535   4.268   0.880   9.114  0.7347 -0.3787  0.1260
   42CHL1  H16A 5536   4.219   0.811   9.042  0.6361  0.5020 -0.6642
   42CHL1  H16B 5537   4.227   0.983   9.125 -0.6849 -0.8023 -1.0356
   42CHL1   C17 5538   4.420   0.905   9.080  0.2400  0.3374  0.1613
   42CHL1   H17 5539   4.432   1.010   9.113 -1.7832  1.4424 -2.4837
   42CHL1   C13 5540   4.495   0.831   9.192 -0.6803  0.4056 -0.0595
   42CHL1   C18 5541   4.510   0.684   9.139 -0.4207 -0.0636 -0.2548
   42CHL1  H18A 5542   4.602   0.679   9.078  0.6348 -0.3297  1.3386
   42CHL1  H18B 5543   4.512   0.610   9.222  0.1021 -0.9450 -1.0554
   42CHL1  H18C 5544   4.416   0.659   9.085 -1.0778  1.3269  0.2174
   42CHL1   C12 5545   4.633   0.876   9.234 -0.2123  0.6362  0.7076
   42CHL1  H12A 5546   4.708   0.862   9.153  0.4829  1.4755  1.1870
   42CHL1  H12B 5547   4.622   0.985   9.253 -0.3053  0.4605  1.7254
   42CHL1   C11 5548   4.683   0.811   9.366 -0.1740  0.8198 -0.6277
   42CHL1  H11A 5549   4.698   0.706   9.333  2.7973  1.4593 -1.3777
   42CHL1  H11B 5550   4.785   0.851   9.383  1.0063 -2.4107  0.2093
   42CHL1    C9 5551   4.576   0.813   9.485 -0.2130 -0.4297  0.1581
   42CHL1    H9 5552   4.561   0.919   9.515  0.2186 -0.0618 -0.9031
   42CHL1   C10 5553   4.632   0.753   9.619 -0.6423  0.0067 -0.2019
   42CHL1   C19 5554   4.701   0.620   9.592 -0.7038 -0.4726 -0.2280
   42CHL1  H19A 5555   4.701   0.552   9.680 -0.0504  0.7466  0.7345
   42CHL1  H19B 5556   4.645   0.567   9.512  0.6460 -2.7003  0.2695
   42CHL1  H19C 5557   4.806   0.631   9.557 -0.9463  0.0821 -0.7821
   42CHL1    C1 5558   4.737   0.855   9.683  0.2849  0.9910  0.6118
   42CHL1   H1A 5559   4.820   0.855   9.609  1.1782  1.3354  1.6117
   42CHL1   H1B 5560   4.692   0.957   9.679 -0.8354  0.4535 -1.1536
   42CHL1    C2 5561   4.788   0.828   9.821 -0.0570  0.5166 -0.2178
   42CHL1   H2A 5562   4.837   0.920   9.860 -0.0154  0.0178  0.9321
   42CHL1   H2B 5563   4.859   0.744   9.813  1.0540  1.1898  2.0196
   42CHL1   C20 5564   4.456   0.908   8.928  0.6005  0.9080  0.1893
   42CHL1   H20 5565   4.468   0.802   8.900  2.1609  0.6463  1.7543
   42CHL1   C21 5566   4.585   0.986   8.909  0.5111 -0.9000  0.6676
   42CHL1  H21A 5567   4.658   0.973   8.991  0.4104 -1.1298  0.7211
   42CHL1  H21B 5568   4.574   1.096   8.919 -2.4325 -1.3152  2.5844
   42CHL1  H21C 5569   4.637   0.951   8.817  1.2864  3.8480 -0.8444
   42CHL1   C22 5570   4.345   0.960   8.837  0.2255  0.6355  0.8484
   42CHL1  H22A 5571   4.272   0.877   8.828  0.0098  0.9797 -0.8540
   42CHL1  H22B 5572   4.290   1.040   8.891 -2.4785 -1.7906  1.7688
   42CHL1   C23 5573   4.387   1.014   8.701  0.5026 -0.5448  0.0465
   42CHL1  H23A 5574   4.434   1.114   8.711 -0.3561 -0.0919 -0.3571
   42CHL1  H23B 5575   4.449   0.935   8.654 -0.1735 -0.5408 -0.8778
   42CHL1   C24 5576   4.270   1.039   8.611 -0.4568 -0.2646  0.4010
   42CHL1  H24A 5577   4.215   0.943   8.601 -1.6416  0.0943  3.0467
   42CHL1  H24B 5578   4.196   1.114   8.646  0.8265 -0.0406  2.7114
   42CHL1   C25 5579   4.302   1.085   8.471  0.7989 -0.5316  0.5360
   42CHL1   H25 5580   4.403   1.062   8.431  0.9326  0.5866  0.2136
   42CHL1   C26 5581   4.196   1.035   8.369  0.2944  0.0596 -0.0263
   42CHL1  H26A 5582   4.223   1.076   8.269  2.3218  2.8668  1.6046
   42CHL1  H26B 5583   4.198   0.924   8.370  0.4556  0.0743  1.3295
   42CHL1  H26C 5584   4.093   1.066   8.397  1.4064  2.4731  1.5241
   42CHL1   C27 5585   4.301   1.245   8.473 -0.0499 -0.0772  0.3509
   42CHL1  H27A 5586   4.371   1.275   8.555  0.6615  0.1323 -0.3320
   42CHL1  H27B 5587   4.339   1.283   8.376  0.6440 -0.4329  0.4746
   42CHL1  H27C 5588   4.206   1.294   8.500 -0.3753 -1.0583  1.0542
   43CHL1    C3 5589   5.206   0.683   9.875  0.2594  0.1741 -0.6040
   43CHL1    H3 5590   5.100   0.650   9.879  1.0213 -2.2395  1.2420
   43CHL1    O3 5591   5.269   0.659  10.005 -0.7179 -0.0848  0.2962
   43CHL1   H3' 5592   5.284   0.564  10.011 -1.5687 -0.1989  0.6782
   43CHL1    C4 5593   5.275   0.601   9.761 -0.5521  0.4453 -0.2762
   43CHL1   H4A 5594   5.384   0.616   9.774 -0.6388  0.6043  0.2816
   43CHL1   H4B 5595   5.237   0.500   9.785  1.0284 -0.3307 -1.0116
   43CHL1    C5 5596   5.214   0.634   9.628  0.5437  0.7558  0.2051
   43CHL1    C6 5597   5.150   0.542   9.547 -0.3443 -0.9680  0.3104
   43CHL1    H6 5598   5.159   0.438   9.585 -0.5844 -0.9167  0.5045
   43CHL1    C7 5599   5.092   0.560   9.410 -0.0363 -0.3338 -0.6588
   43CHL1   H7A 5600   5.123   0.479   9.341 -1.8387 -1.1694 -0.5186
   43CHL1   H7B 5601   4.982   0.570   9.424 -0.1445  3.8012 -3.7534
   43CHL1    C8 5602   5.153   0.693   9.359 -0.1308 -0.3290  0.2583
   43CHL1    H8 5603   5.262   0.680   9.345  0.1346  1.2232  0.7179
   43CHL1   C14 5604   5.075   0.723   9.230 -0.5281 -0.1548 -0.1416
   43CHL1   H14 5605   4.969   0.738   9.260 -1.0354 -0.3669 -1.7768
   43CHL1   C15 5606   5.086   0.629   9.116  0.2292  0.1646 -0.2814
   43CHL1  H15A 5607   5.189   0.590   9.103  1.3767  2.6777  0.9968
   43CHL1  H15B 5608   5.017   0.546   9.141  1.1774 -0.8524 -0.9835
   43CHL1   C16 5609   5.049   0.709   8.997  0.8480 -0.1488 -0.3225
   43CHL1  H16A 5610   5.125   0.694   8.918 -0.2309 -2.4680 -0.9542
   43CHL1  H16B 5611   4.947   0.679   8.964  1.2899 -2.2511  0.1767
   43CHL1   C17 5612   5.038   0.859   9.040  0.4552  0.5790  0.5436
   43CHL1   H17 5613   4.933   0.874   9.074  1.6189  2.9209  3.3193
   43CHL1   C13 5614   5.118   0.858   9.174  0.7365 -0.3918 -0.0382
   43CHL1   C18 5615   5.267   0.861   9.130  0.2415  0.0081 -0.0610
   43CHL1  H18A 5616   5.336   0.826   9.209 -1.2421 -0.3450  1.0992
   43CHL1  H18B 5617   5.296   0.805   9.039  3.7083  1.0608  0.3139
   43CHL1  H18C 5618   5.291   0.968   9.112 -2.5335  0.6882  0.0540
   43CHL1   C12 5619   5.091   0.972   9.273 -0.1124 -0.1602 -0.3492
   43CHL1  H12A 5620   5.107   1.077   9.239 -2.6319  0.5700  0.6405
   43CHL1  H12B 5621   4.986   0.973   9.308 -0.1891  2.6403 -0.5070
   43CHL1   C11 5622   5.171   0.949   9.406  0.4707  0.5699  0.7560
   43CHL1  H11A 5623   5.276   0.943   9.371  1.4135  0.5692  3.4833
   43CHL1  H11B 5624   5.161   1.041   9.468 -0.6497  0.0413  1.3742
   43CHL1    C9 5625   5.135   0.809   9.461 -0.4271  0.6314  0.1492
   43CHL1    H9 5626   5.025   0.811   9.478 -0.7133  0.2038 -1.5213
   43CHL1   C10 5627   5.213   0.781   9.588 -0.0028  0.2711 -0.4542
   43CHL1   C19 5628   5.359   0.818   9.575  0.7181  0.0068 -0.5438
   43CHL1  H19A 5629   5.410   0.809   9.673  0.2338 -1.2989 -0.3986
   43CHL1  H19B 5630   5.422   0.767   9.499  1.0441 -0.6566  0.1638
   43CHL1  H19C 5631   5.371   0.926   9.553 -2.9982  0.9038  1.4766
   43CHL1    C1 5632   5.138   0.857   9.703  0.7335 -0.7905 -0.2679
   43CHL1   H1A 5633   5.154   0.965   9.683  0.2107 -0.4709  0.9775
   43CHL1   H1B 5634   5.029   0.833   9.697 -0.1798  3.4793 -2.8726
   43CHL1    C2 5635   5.196   0.839   9.843 -0.6411 -0.8714  0.2979
   43CHL1   H2A 5636   5.138   0.903   9.912  1.4509 -0.0749  1.3457
   43CHL1   H2B 5637   5.299   0.879   9.838 -0.7173 -0.9074 -2.2480
   43CHL1   C20 5638   5.070   0.961   8.923 -0.3794 -0.5824 -0.7718
   43CHL1   H20 5639   5.171   0.927   8.892  0.1032 -1.1344  1.2651
   43CHL1   C21 5640   5.078   1.105   8.970 -0.3533  0.2728 -0.1424
   43CHL1  H21A 5641   4.992   1.146   9.027 -0.0468  2.8095 -1.4496
   43CHL1  H21B 5642   5.095   1.182   8.892 -2.6468  2.2523  1.2604
   43CHL1  H21C 5643   5.161   1.114   9.043 -2.0570  1.0336  1.7566
   43CHL1   C22 5644   4.973   0.945   8.805  0.9236 -0.4353  0.1075
   43CHL1  H22A 5645   4.983   0.839   8.771 -1.3869 -0.7703  0.4244
   43CHL1  H22B 5646   4.868   0.962   8.836  2.2593  2.7203  3.2587
   43CHL1   C23 5647   5.014   1.032   8.692  0.2088 -0.7981  0.0416
   43CHL1  H23A 5648   4.978   1.135   8.716  0.2009 -0.9702  0.7575
   43CHL1  H23B 5649   5.125   1.030   8.688  0.1886 -0.7393 -0.6043
   43CHL1   C24 5650   4.960   0.977   8.559 -0.2393 -0.2177  0.6532
   43CHL1  H24A 5651   4.998   0.875   8.537  0.7351  0.2534  0.1391
   43CHL1  H24B 5652   4.849   0.980   8.571 -0.0612 -0.2000  2.4194
   43CHL1   C25 5653   4.996   1.072   8.443  0.6604  0.1334 -0.8617
   43CHL1   H25 5654   4.949   1.171   8.462 -0.3820 -0.4633 -0.2516
   43CHL1   C26 5655   5.151   1.083   8.421  0.4231  0.0950  0.1995
   43CHL1  H26A 5656   5.167   1.161   8.344  0.9691  0.7305  0.9529
   43CHL1  H26B 5657   5.209   1.120   8.508 -0.0156  0.5430  0.3020
   43CHL1  H26C 5658   5.199   0.993   8.376 -0.8847  0.3703 -1.8486
   43CHL1   C27 5659   4.927   1.023   8.317  0.0724 -0.1178  0.6162
   43CHL1  H27A 5660   4.960   0.917   8.308 -0.1045 -0.2773  1.7703
   43CHL1  H27B 5661   4.816   1.027   8.322 -0.0763  1.4677 -2.4445
   43CHL1  H27C 5662   4.951   1.087   8.229  0.6421 -1.6095 -0.3386
   44CHL1    C3 5663   5.569   1.269  10.149  0.5167  0.5509 -0.3057
   44CHL1    H3 5664   5.659   1.224  10.101 -1.6520 -2.3490 -1.7879
   44CHL1    O3 5665   5.572   1.277  10.291 -0.1754 -0.5350  0.0240
   44CHL1   H3' 5666   5.480   1.282  10.318  0.3727 -1.9734  2.2900
   44CHL1    C4 5667   5.554   1.409  10.086 -0.2747  0.4002 -0.6815
   44CHL1   H4A 5668   5.460   1.459  10.118 -0.4678  0.3467 -1.1595
   44CHL1   H4B 5669   5.640   1.468  10.125  0.6227  1.4226 -4.0034
   44CHL1    C5 5670   5.570   1.408   9.938 -0.8218 -0.0537  0.8779
   44CHL1    C6 5671   5.674   1.470   9.873 -0.5843  0.0220  0.6209
   44CHL1    H6 5672   5.751   1.513   9.939  1.2002  0.1308 -1.4735
   44CHL1    C7 5673   5.692   1.477   9.724 -0.0795 -0.8889 -0.2362
   44CHL1   H7A 5674   5.706   1.581   9.687 -1.3101 -0.3340  0.8101
   44CHL1   H7B 5675   5.783   1.418   9.700  0.7887  0.2394  0.2382
   44CHL1    C8 5676   5.555   1.437   9.658 -0.1629  0.3723  0.1308
   44CHL1    H8 5677   5.492   1.527   9.672  0.7391  0.9886  0.2852
   44CHL1   C14 5678   5.568   1.421   9.503 -0.3375 -0.2685  0.6238
   44CHL1   H14 5679   5.644   1.341   9.504  1.2213  1.1915  1.0128
   44CHL1   C15 5680   5.646   1.540   9.429  0.3700  0.1662  0.6271
   44CHL1  H15A 5681   5.603   1.636   9.464 -2.5913 -0.4908 -1.0740
   44CHL1  H15B 5682   5.756   1.526   9.440  0.1760 -2.9406 -0.7407
   44CHL1   C16 5683   5.609   1.520   9.278 -0.3883 -0.6982 -0.1978
   44CHL1  H16A 5684   5.554   1.614   9.254  1.9608  1.1276  1.3820
   44CHL1  H16B 5685   5.697   1.508   9.211 -0.6886  0.5925 -0.8283
   44CHL1   C17 5686   5.518   1.390   9.270  0.5599  0.0241 -0.1676
   44CHL1   H17 5687   5.580   1.299   9.256 -0.1102  0.1645 -4.7132
   44CHL1   C13 5688   5.455   1.387   9.413  0.3848 -0.1282  0.0631
   44CHL1   C18 5689   5.339   1.495   9.427  0.1605 -0.6262 -0.3027
   44CHL1  H18A 5690   5.269   1.481   9.342  0.0830  1.2889 -0.5636
   44CHL1  H18B 5691   5.296   1.497   9.529  2.1763 -2.4821  0.6170
   44CHL1  H18C 5692   5.383   1.597   9.421 -2.3583  0.4447 -1.0608
   44CHL1   C12 5693   5.404   1.250   9.461 -0.7654  0.8181 -0.0251
   44CHL1  H12A 5694   5.309   1.221   9.412 -0.2213 -1.7634  0.3488
   44CHL1  H12B 5695   5.488   1.180   9.440 -0.0541  2.0582 -1.3917
   44CHL1   C11 5696   5.376   1.248   9.618 -0.5605 -0.3183  0.6417
   44CHL1  H11A 5697   5.278   1.299   9.634 -0.7144  0.0034 -1.1864
   44CHL1  H11B 5698   5.360   1.144   9.654  1.2929 -0.0686  2.2360
   44CHL1    C9 5699   5.492   1.308   9.710 -0.8928  0.3212  0.2249
   44CHL1    H9 5700   5.565   1.224   9.712 -1.9345 -0.6655 -1.7968
   44CHL1   C10 5701   5.465   1.321   9.861  0.0645 -0.4497  0.8201
   44CHL1   C19 5702   5.328   1.383   9.882  0.7319  0.3644  0.1716
   44CHL1  H19A 5703   5.313   1.476   9.822 -0.6220  0.0965  0.0866
   44CHL1  H19B 5704   5.246   1.318   9.846  1.1106 -0.8386  1.4319
   44CHL1  H19C 5705   5.301   1.413   9.985  1.8503  0.6588  0.3912
   44CHL1    C1 5706   5.467   1.179   9.936 -0.1807  0.3122  0.4991
   44CHL1   H1A 5707   5.381   1.121   9.897 -0.1881  0.1280  0.7864
   44CHL1   H1B 5708   5.549   1.106   9.917  0.4951  1.0474  0.5694
   44CHL1    C2 5709   5.448   1.187  10.093 -0.6387  0.3387 -0.0426
   44CHL1   H2A 5710   5.456   1.081  10.125 -0.7923  0.6342  0.9935
   44CHL1   H2B 5711   5.347   1.226  10.119 -0.8290  0.1065 -0.4159
   44CHL1   C20 5712   5.432   1.404   9.142  0.0191 -0.2866  0.3527
   44CHL1   H20 5713   5.372   1.498   9.145  1.9114  0.9714 -0.0343
   44CHL1   C21 5714   5.326   1.294   9.113 -0.1347  0.0824  0.4835
   44CHL1  H21A 5715   5.264   1.303   9.205 -1.6951  2.1125 -0.7249
   44CHL1  H21B 5716   5.373   1.193   9.104 -0.2361  0.1236 -0.5246
   44CHL1  H21C 5717   5.269   1.311   9.019  0.1564 -1.8793 -0.0675
   44CHL1   C22 5718   5.522   1.414   9.016  0.5230  0.5244  0.2378
   44CHL1  H22A 5719   5.456   1.444   8.931  0.6730  2.3067  0.7360
   44CHL1  H22B 5720   5.591   1.499   9.034 -0.7343  2.2519 -2.5746
   44CHL1   C23 5721   5.617   1.297   8.979 -0.1894  0.0057 -0.3449
   44CHL1  H23A 5722   5.675   1.266   9.068 -2.3027 -0.7846  0.7948
   44CHL1  H23B 5723   5.557   1.206   8.955 -2.7676  0.9918  2.1071
   44CHL1   C24 5724   5.720   1.333   8.875  0.1190  0.4979  0.0723
   44CHL1  H24A 5725   5.779   1.424   8.901  0.8324 -0.0439  0.3587
   44CHL1  H24B 5726   5.785   1.243   8.869  0.1618  0.4092  1.7035
   44CHL1   C25 5727   5.648   1.359   8.738 -0.0150  0.3520  0.2921
   44CHL1   H25 5728   5.565   1.431   8.752 -0.3803  0.3128 -1.5677
   44CHL1   C26 5729   5.752   1.397   8.634 -0.2101  0.0543 -0.5485
   44CHL1  H26A 5730   5.713   1.429   8.535 -0.5061  2.6067  0.3715
   44CHL1  H26B 5731   5.815   1.482   8.666 -1.5588  1.5569 -1.7848
   44CHL1  H26C 5732   5.834   1.322   8.627 -0.1337 -0.0731  1.5659
   44CHL1   C27 5733   5.582   1.231   8.688  0.3619  0.0254 -0.0409
   44CHL1  H27A 5734   5.654   1.146   8.693  0.6377  0.3825  2.5134
   44CHL1  H27B 5735   5.492   1.202   8.746  0.8947 -2.0163 -0.1949
   44CHL1  H27C 5736   5.560   1.239   8.579 -0.3153  0.4454  0.1276
   45CHL1    C3 5737   2.546   0.062  10.163 -0.4000  0.0911 -0.3921
   45CHL1    H3 5738   2.479   0.151  10.162 -2.1323 -1.1857  0.0160
   45CHL1    O3 5739   2.617   0.063  10.283  0.3660 -0.4553  0.3122
   45CHL1   H3' 5740   2.640   0.156  10.289 -0.3633 -0.2837  0.4772
   45CHL1    C4 5741   2.457  -0.055  10.159 -0.3293 -0.5997  0.4975
   45CHL1   H4A 5742   2.513  -0.150  10.176  1.9326  0.8055  1.0500
   45CHL1   H4B 5743   2.395  -0.057  10.252  0.9533 -2.2014  1.3539
   45CHL1    C5 5744   2.377  -0.056  10.034 -0.3163 -0.2143  0.0583
   45CHL1    C6 5745   2.242  -0.046  10.035 -0.0892 -0.5063  0.4100
   45CHL1    H6 5746   2.192  -0.043  10.133  0.3605 -1.2927  0.6591
   45CHL1    C7 5747   2.156  -0.040   9.913 -0.3453 -0.4635  0.1374
   45CHL1   H7A 5748   2.069  -0.109   9.923 -2.0827  1.3606 -1.9322
   45CHL1   H7B 5749   2.103   0.057   9.900  0.3350 -0.1480 -0.2793
   45CHL1    C8 5750   2.224  -0.059   9.774  0.0307  0.2467 -0.4510
   45CHL1    H8 5751   2.168   0.005   9.703  1.4125  1.3265 -0.5914
   45CHL1   C14 5752   2.205  -0.197   9.713  0.1696  0.4365  0.8522
   45CHL1   H14 5753   2.247  -0.271   9.784 -0.2366 -0.2215  0.4039
   45CHL1   C15 5754   2.058  -0.233   9.686 -0.2016  0.0221 -0.9553
   45CHL1  H15A 5755   2.029  -0.329   9.733 -3.5124  0.8411 -1.1738
   45CHL1  H15B 5756   1.989  -0.154   9.724 -2.4435 -1.8103 -1.1434
   45CHL1   C16 5757   2.042  -0.244   9.530 -0.3531  0.3243  0.1447
   45CHL1  H16A 5758   2.022  -0.349   9.499 -3.2123  0.6216  0.8461
   45CHL1  H16B 5759   1.962  -0.177   9.491  0.3966  2.1574  1.6416
   45CHL1   C17 5760   2.174  -0.186   9.476 -0.1717  0.2397 -0.2378
   45CHL1   H17 5761   2.159  -0.079   9.502 -0.5520  0.3285 -0.8202
   45CHL1   C13 5762   2.285  -0.230   9.583 -0.1302 -0.3092 -0.0564
   45CHL1   C18 5763   2.306  -0.385   9.570 -0.2608 -0.4276  0.5763
   45CHL1  H18A 5764   2.386  -0.425   9.635 -1.1030  0.1765  2.0074
   45CHL1  H18B 5765   2.210  -0.438   9.590 -0.8750 -0.3068 -1.8377
   45CHL1  H18C 5766   2.341  -0.396   9.465 -0.4884  1.3702  0.3014
   45CHL1   C12 5767   2.424  -0.163   9.577  0.6708  0.2498 -0.2129
   45CHL1  H12A 5768   2.491  -0.232   9.633  0.9555 -0.1526 -1.0477
   45CHL1  H12B 5769   2.465  -0.170   9.474  0.7707 -1.8185 -0.0489
   45CHL1   C11 5770   2.425  -0.019   9.632  0.1752  0.3329  0.1855
   45CHL1  H11A 5771   2.532   0.008   9.614  0.3747 -0.7643 -0.3396
   45CHL1  H11B 5772   2.371   0.048   9.562  1.7161  0.7180 -0.6742
   45CHL1    C9 5773   2.370  -0.007   9.772  0.3232  0.1156 -1.1916
   45CHL1    H9 5774   2.365   0.102   9.790  1.3608  0.4330 -2.7332
   45CHL1   C10 5775   2.454  -0.049   9.897  0.1059 -0.2437  0.0098
   45CHL1   C19 5776   2.543  -0.176   9.879  0.1372  0.4635 -0.3986
   45CHL1  H19A 5777   2.621  -0.157   9.802  0.3321 -0.6733 -0.4906
   45CHL1  H19B 5778   2.588  -0.204   9.977 -1.2999  0.7945  0.3681
   45CHL1  H19C 5779   2.475  -0.260   9.853 -0.4910  0.7814  0.1991
   45CHL1    C1 5780   2.565   0.060   9.917  0.5242 -0.3917 -0.6288
   45CHL1   H1A 5781   2.640   0.049   9.836 -0.5968  0.2177 -1.7642
   45CHL1   H1B 5782   2.520   0.161   9.917  0.4636 -0.4160  0.1510
   45CHL1    C2 5783   2.647   0.055  10.051 -0.4874  0.2322  0.9718
   45CHL1   H2A 5784   2.718   0.141  10.049 -1.6319  1.1919  0.5911
   45CHL1   H2B 5785   2.712  -0.035  10.054 -0.7862 -0.0040  0.3724
   45CHL1   C20 5786   2.199  -0.189   9.329 -0.5797 -0.3840  0.9588
   45CHL1   H20 5787   2.251  -0.283   9.299 -0.8441 -0.3193  0.2736
   45CHL1   C21 5788   2.277  -0.069   9.278  0.3581  1.2979 -0.3995
   45CHL1  H21A 5789   2.223   0.027   9.292 -1.5879  0.2376 -0.4481
   45CHL1  H21B 5790   2.296  -0.083   9.170  0.0150 -1.3927 -0.1541
   45CHL1  H21C 5791   2.381  -0.067   9.318  0.1443  1.5943  0.1380
   45CHL1   C22 5792   2.069  -0.179   9.248  0.3859 -0.2730  0.5275
   45CHL1  H22A 5793   2.002  -0.259   9.286 -0.1699 -0.4188 -0.7464
   45CHL1  H22B 5794   2.025  -0.080   9.273 -0.4467 -0.6959  0.7639
   45CHL1   C23 5795   2.078  -0.216   9.096 -0.3296 -0.1750  0.5003
   45CHL1  H23A 5796   1.985  -0.177   9.050  0.7707  0.6833 -1.0370
   45CHL1  H23B 5797   2.171  -0.175   9.052  0.9719 -3.4939 -0.0141
   45CHL1   C24 5798   2.077  -0.368   9.057  0.4761 -0.8983  0.4855
   45CHL1  H24A 5799   2.163  -0.419   9.106  1.5135  1.1853  0.8882
   45CHL1  H24B 5800   1.983  -0.412   9.096  0.1691  1.6540  2.7965
   45CHL1   C25 5801   2.069  -0.386   8.901  0.1419  0.3343 -0.1181
   45CHL1   H25 5802   2.152  -0.322   8.863  0.7637  0.1779  0.9451
   45CHL1   C26 5803   2.080  -0.532   8.854  0.5257  0.6919  0.1775
   45CHL1  H26A 5804   2.008  -0.608   8.893  1.1371 -0.8855 -1.6996
   45CHL1  H26B 5805   2.079  -0.527   8.743 -1.4324  0.8526  0.1794
   45CHL1  H26C 5806   2.180  -0.570   8.882  0.9178  0.9600 -0.8580
   45CHL1   C27 5807   1.941  -0.331   8.837  0.8736  0.0084  0.5359
   45CHL1  H27A 5808   1.934  -0.349   8.728  2.8532 -0.9209  0.5299
   45CHL1  H27B 5809   1.847  -0.357   8.891  0.5457  1.7043  0.8001
   45CHL1  H27C 5810   1.945  -0.220   8.843 -1.9879  0.2209 -0.6430
   46CHL1    C3 5811   4.871   4.493  10.010  0.0546  0.1511  0.1320
   46CHL1    H3 5812   4.962   4.429  10.007  0.1411  0.3062 -0.5958
   46CHL1    O3 5813   4.862   4.556  10.137 -0.2013 -0.5789  0.3336
   46CHL1   H3' 5814   4.780   4.606  10.140  0.5204  0.8398 -2.3658
   46CHL1    C4 5815   4.879   4.610   9.909  0.0495 -0.4351  0.2433
   46CHL1   H4A 5816   4.786   4.670   9.925  0.4657 -0.2953  2.3345
   46CHL1   H4B 5817   4.969   4.671   9.935 -0.4466  0.0062  0.9529
   46CHL1    C5 5818   4.880   4.560   9.768 -0.0067 -0.7876  0.7567
   46CHL1    C6 5819   4.977   4.594   9.685  0.0423  0.2242 -0.5105
   46CHL1    H6 5820   5.051   4.667   9.720 -1.0775  0.4546  1.4470
   46CHL1    C7 5821   4.996   4.550   9.544  0.5722 -0.0126  0.2253
   46CHL1   H7A 5822   5.039   4.626   9.476 -1.1522 -1.3407 -2.4388
   46CHL1   H7B 5823   5.079   4.476   9.546  0.9842  0.4440  0.0172
   46CHL1    C8 5824   4.870   4.478   9.487  0.1326 -0.5819 -0.0512
   46CHL1    H8 5825   4.795   4.553   9.455 -1.9420 -1.9426  1.4266
   46CHL1   C14 5826   4.908   4.397   9.363  0.4898 -0.7084  0.9797
   46CHL1   H14 5827   4.967   4.310   9.398  1.0379 -0.1358  1.4836
   46CHL1   C15 5828   5.001   4.459   9.258  0.2425  0.2789  0.1256
   46CHL1  H15A 5829   4.964   4.561   9.233 -2.1681 -1.2683 -3.0775
   46CHL1  H15B 5830   5.110   4.466   9.277 -0.0576  0.0105  1.9768
   46CHL1   C16 5831   4.977   4.367   9.135 -0.5914  0.6156  0.3019
   46CHL1  H16A 5832   4.953   4.426   9.044  2.6131 -0.7996 -1.5478
   46CHL1  H16B 5833   5.068   4.310   9.108  1.2133  2.7673  1.6447
   46CHL1   C17 5834   4.875   4.258   9.176  0.2054  0.8243 -0.0837
   46CHL1   H17 5835   4.917   4.167   9.225 -1.4715  0.2732  0.4052
   46CHL1   C13 5836   4.793   4.326   9.294 -0.2053 -0.0997  0.3963
   46CHL1   C18 5837   4.696   4.438   9.238  0.4944 -0.5532  0.2227
   46CHL1  H18A 5838   4.614   4.385   9.185  0.2485  1.8889 -1.9423
   46CHL1  H18B 5839   4.652   4.502   9.317 -2.6508  0.7929 -2.4757
   46CHL1  H18C 5840   4.755   4.508   9.174 -0.7311  0.3913  0.0952
   46CHL1   C12 5841   4.724   4.231   9.396 -0.1713  0.2568 -0.1892
   46CHL1  H12A 5842   4.644   4.167   9.354 -0.1889  0.7220 -0.8615
   46CHL1  H12B 5843   4.800   4.160   9.435  0.8776 -1.1235 -4.5084
   46CHL1   C11 5844   4.678   4.308   9.520 -0.0241 -0.3532  0.2879
   46CHL1  H11A 5845   4.591   4.369   9.487 -1.6621 -0.7962  3.5659
   46CHL1  H11B 5846   4.640   4.235   9.595  0.1476  2.5382  3.3585
   46CHL1    C9 5847   4.803   4.388   9.586  1.2045  0.5240 -0.0734
   46CHL1    H9 5848   4.880   4.314   9.615  1.0781  0.6502  0.6045
   46CHL1   C10 5849   4.767   4.455   9.725 -0.1336 -0.2606 -0.4641
   46CHL1   C19 5850   4.634   4.521   9.709  0.6242 -0.6080 -0.5298
   46CHL1  H19A 5851   4.550   4.452   9.685 -1.0553  1.4494 -0.7353
   46CHL1  H19B 5852   4.602   4.560   9.808 -2.8448 -2.1670 -0.9678
   46CHL1  H19C 5853   4.637   4.598   9.629  1.4941 -0.5148 -0.4145
   46CHL1    C1 5854   4.757   4.346   9.834  0.0470  0.7375 -0.3051
   46CHL1   H1A 5855   4.667   4.281   9.830 -0.4263  1.2400  1.8235
   46CHL1   H1B 5856   4.845   4.279   9.823 -2.5415 -2.6765 -0.9331
   46CHL1    C2 5857   4.757   4.395   9.977 -0.6426  0.0190  0.0606
   46CHL1   H2A 5858   4.761   4.311  10.049  0.9563  0.0313 -0.0073
   46CHL1   H2B 5859   4.657   4.439  10.000 -0.6035  1.0091 -1.5480
   46CHL1   C20 5860   4.801   4.207   9.052 -0.9170  0.2767 -0.3775
   46CHL1   H20 5861   4.757   4.291   8.993  1.1681  0.4918 -1.6736
   46CHL1   C21 5862   4.687   4.116   9.092  0.0937 -0.0531  0.1760
   46CHL1  H21A 5863   4.636   4.069   9.006 -2.1526  1.5328  0.5877
   46CHL1  H21B 5864   4.608   4.185   9.129  0.9783  1.2145 -0.2635
   46CHL1  H21C 5865   4.711   4.045   9.174 -3.9292  0.6281  2.0554
   46CHL1   C22 5866   4.887   4.125   8.952 -0.2500 -0.0153 -0.1610
   46CHL1  H22A 5867   4.971   4.178   8.903 -0.3955  1.8405  1.5617
   46CHL1  H22B 5868   4.934   4.034   8.995  1.1604  0.2556 -1.0810
   46CHL1   C23 5869   4.817   4.098   8.819  0.1138 -0.1654  0.4106
   46CHL1  H23A 5870   4.748   4.015   8.847 -0.4025  0.3769  0.7784
   46CHL1  H23B 5871   4.769   4.192   8.785 -1.4457 -0.2401  2.3015
   46CHL1   C24 5872   4.914   4.043   8.718 -0.4622  0.7749 -0.3737
   46CHL1  H24A 5873   5.003   4.108   8.708  1.7500 -2.0973  0.1801
   46CHL1  H24B 5874   4.959   3.947   8.752 -0.2291  0.9281 -0.2515
   46CHL1   C25 5875   4.840   4.031   8.575 -0.4123 -0.1835 -0.3248
   46CHL1   H25 5876   4.816   4.136   8.547 -2.8352  0.1460  2.7492
   46CHL1   C26 5877   4.944   3.980   8.472  0.1666 -0.2346 -0.0847
   46CHL1  H26A 5878   4.984   3.880   8.499 -1.8292 -1.1977 -0.6512
   46CHL1  H26B 5879   4.904   3.995   8.370 -0.3274  2.8692  0.5065
   46CHL1  H26C 5880   5.034   4.046   8.476 -0.6635  0.8138  2.1222
   46CHL1   C27 5881   4.711   3.944   8.574 -0.7680 -0.4602  0.8551
   46CHL1  H27A 5882   4.661   3.942   8.474  0.1333  0.5180  0.3714
   46CHL1  H27B 5883   4.734   3.836   8.586 -0.4584 -0.6719 -1.3277
   46CHL1  H27C 5884   4.640   3.974   8.653 -2.8122 -0.5106 -0.9255
   47CHL1    C3 5885   5.905   0.867  10.166  0.4361 -0.0743  1.2846
   47CHL1    H3 5886   5.911   0.756  10.154  1.1879  0.1014 -0.0630
   47CHL1    O3 5887   5.925   0.898  10.304 -0.3243 -0.4041 -0.4628
   47CHL1   H3' 5888   6.012   0.861  10.317  0.0310  0.5824 -0.0119
   47CHL1    C4 5889   6.005   0.944  10.081  0.0914 -0.4214 -0.0210
   47CHL1   H4A 5890   6.006   1.054  10.097  0.4469 -0.0817 -2.2074
   47CHL1   H4B 5891   6.107   0.921  10.119  0.0975  1.3630  1.0992
   47CHL1    C5 5892   5.987   0.918   9.930 -0.2746  0.1488  0.3531
   47CHL1    C6 5893   6.092   0.864   9.855 -0.3490  0.3138  0.3144
   47CHL1    H6 5894   6.191   0.848   9.901 -0.7122  1.6379  1.6060
   47CHL1    C7 5895   6.093   0.847   9.715 -0.9353 -0.7389 -0.4656
   47CHL1   H7A 5896   6.183   0.887   9.665 -2.7352  2.4298 -1.3545
   47CHL1   H7B 5897   6.081   0.740   9.690 -1.4738 -0.7195 -0.3154
   47CHL1    C8 5898   5.968   0.921   9.655  0.9321 -0.2486 -0.2998
   47CHL1    H8 5899   5.991   1.030   9.657  0.5753 -0.1781  1.8753
   47CHL1   C14 5900   5.944   0.877   9.514  0.6241 -0.4417 -0.3573
   47CHL1   H14 5901   5.926   0.767   9.524 -1.0655 -0.2520 -1.1770
   47CHL1   C15 5902   6.056   0.879   9.411 -0.5022  0.4789  0.5320
   47CHL1  H15A 5903   6.121   0.969   9.405  1.4858 -0.8129  2.0419
   47CHL1  H15B 5904   6.121   0.790   9.423  1.6593  2.2338  2.2562
   47CHL1   C16 5905   5.985   0.871   9.277  0.5019  0.3787 -0.0571
   47CHL1  H16A 5906   6.019   0.949   9.206  1.0995  0.6906  0.5689
   47CHL1  H16B 5907   5.996   0.771   9.228  1.0329 -0.6993  2.2022
   47CHL1   C17 5908   5.833   0.889   9.299 -0.0826  0.4945  0.7652
   47CHL1   H17 5909   5.788   0.788   9.310 -0.6485  0.5258 -1.0311
   47CHL1   C13 5910   5.824   0.935   9.446  0.2771  0.3806 -0.3817
   47CHL1   C18 5911   5.831   1.086   9.445  0.1629 -0.2959 -0.4027
   47CHL1  H18A 5912   5.844   1.129   9.547  0.6652  0.1174 -0.6415
   47CHL1  H18B 5913   5.918   1.124   9.388 -0.9345  1.7087 -0.7766
   47CHL1  H18C 5914   5.740   1.133   9.403  1.2415  0.3491 -2.0591
   47CHL1   C12 5915   5.697   0.900   9.528 -0.3743 -0.3023  0.1861
   47CHL1  H12A 5916   5.606   0.939   9.478 -1.6451  1.4106  3.7110
   47CHL1  H12B 5917   5.692   0.791   9.509  0.4724  0.0489 -2.3166
   47CHL1   C11 5918   5.693   0.936   9.672 -0.0793 -0.1214  0.5005
   47CHL1  H11A 5919   5.669   1.044   9.669  3.4207  0.6867 -0.3216
   47CHL1  H11B 5920   5.608   0.893   9.729 -0.1461 -0.1226  0.3989
   47CHL1    C9 5921   5.833   0.902   9.741  0.3129 -0.0417 -0.4532
   47CHL1    H9 5922   5.821   0.792   9.750 -0.8247  0.1208  0.3014
   47CHL1   C10 5923   5.849   0.959   9.879 -0.1445 -0.4858  0.3583
   47CHL1   C19 5924   5.830   1.110   9.878 -0.3643 -0.2582  0.2114
   47CHL1  H19A 5925   5.855   1.159   9.975  1.0260  0.2416 -0.3842
   47CHL1  H19B 5926   5.891   1.161   9.801  0.1568  0.0260  0.8021
   47CHL1  H19C 5927   5.726   1.143   9.860 -0.1596  1.4117  1.8524
   47CHL1    C1 5928   5.747   0.890   9.972  0.2847 -0.2488  0.1717
   47CHL1   H1A 5929   5.644   0.920   9.943  0.4736  1.4514  1.1403
   47CHL1   H1B 5930   5.749   0.781   9.954  2.7673  0.0061 -1.4910
   47CHL1    C2 5931   5.771   0.918  10.122 -0.2426 -0.5812 -0.0749
   47CHL1   H2A 5932   5.694   0.857  10.174 -0.7578 -0.5040 -0.7417
   47CHL1   H2B 5933   5.762   1.020  10.166 -1.1831 -1.2068  1.2158
   47CHL1   C20 5934   5.754   0.958   9.180 -0.1299 -0.3754 -0.6082
   47CHL1   H20 5935   5.799   1.059   9.167  0.2396 -0.5339 -0.5549
   47CHL1   C21 5936   5.605   0.987   9.214  0.1704 -0.3379 -0.3950
   47CHL1  H21A 5937   5.599   1.056   9.300 -0.9083  0.0266 -0.7591
   47CHL1  H21B 5938   5.554   0.892   9.239 -0.8858  0.7713  1.7890
   47CHL1  H21C 5939   5.563   1.045   9.128 -1.5405  0.4221  0.9324
   47CHL1   C22 5940   5.765   0.872   9.049  0.5422 -0.1826  0.5713
   47CHL1  H22A 5941   5.871   0.841   9.039  0.6190 -0.0113  0.8362
   47CHL1  H22B 5942   5.711   0.777   9.067 -2.5124  1.6168  1.2459
   47CHL1   C23 5943   5.719   0.947   8.928 -0.3963  0.0950  0.5283
   47CHL1  H23A 5944   5.615   0.985   8.936 -0.0469  1.1673  0.1133
   47CHL1  H23B 5945   5.790   1.032   8.912  0.2457 -0.4732  0.3054
   47CHL1   C24 5946   5.724   0.854   8.807  0.6272  0.3729 -0.1342
   47CHL1  H24A 5947   5.738   0.920   8.719  0.9233 -0.0105 -0.3758
   47CHL1  H24B 5948   5.815   0.790   8.811  0.0339 -0.6761 -2.4244
   47CHL1   C25 5949   5.615   0.740   8.797 -0.5803 -0.5994  0.2230
   47CHL1   H25 5950   5.620   0.691   8.897 -1.4112  1.5142  1.3385
   47CHL1   C26 5951   5.478   0.800   8.766  0.7554  0.1597  0.2732
   47CHL1  H26A 5952   5.405   0.716   8.762 -0.5768  1.2057  1.7848
   47CHL1  H26B 5953   5.473   0.859   8.672 -3.4329 -0.2722  0.1494
   47CHL1  H26C 5954   5.446   0.874   8.843  1.1014 -0.1285  0.6985
   47CHL1   C27 5955   5.654   0.639   8.694  0.0938 -0.1707 -0.1426
   47CHL1  H27A 5956   5.578   0.558   8.695 -0.4089  0.2399 -3.1420
   47CHL1  H27B 5957   5.664   0.678   8.591  1.1228 -0.2593 -0.0858
   47CHL1  H27C 5958   5.753   0.598   8.724 -0.3137 -1.9600 -1.1813
   48CHL1    C3 5959   6.574   1.673  10.144 -0.7150  0.0546 -0.0380
   48CHL1    H3 5960   6.472   1.653  10.103 -0.3586 -0.1400 -0.8535
   48CHL1    O3 5961   6.566   1.646  10.284 -0.6013  0.0320 -0.2688
   48CHL1   H3' 5962   6.637   1.703  10.316 -1.3937  1.3781 -0.8459
   48CHL1    C4 5963   6.685   1.581  10.086 -1.0211 -0.7914  0.1142
   48CHL1   H4A 5964   6.779   1.624  10.125 -0.6681  1.8984 -3.4981
   48CHL1   H4B 5965   6.680   1.479  10.130 -0.8067 -0.3641  1.1531
   48CHL1    C5 5966   6.680   1.589   9.940 -0.6861 -0.2808  0.0001
   48CHL1    C6 5967   6.652   1.482   9.874  0.6628  0.3779 -0.2288
   48CHL1    H6 5968   6.622   1.386   9.918  2.5371  0.8461  2.1863
   48CHL1    C7 5969   6.652   1.478   9.726  0.4249 -0.0612  0.4709
   48CHL1   H7A 5970   6.709   1.388   9.693  2.0444  0.5723  1.4586
   48CHL1   H7B 5971   6.550   1.469   9.684  0.0608 -0.5412  1.4748
   48CHL1    C8 5972   6.715   1.608   9.659  0.4759 -0.7067  0.1339
   48CHL1    H8 5973   6.825   1.601   9.652  0.4566 -0.1883 -0.7953
   48CHL1   C14 5974   6.660   1.615   9.517 -0.3617  0.3929 -0.3737
   48CHL1   H14 5975   6.553   1.641   9.523 -0.3364  0.8548 -1.6635
   48CHL1   C15 5976   6.675   1.491   9.432  0.0056  0.7208 -0.1031
   48CHL1  H15A 5977   6.783   1.469   9.446  0.0727  1.9738  1.4922
   48CHL1  H15B 5978   6.609   1.409   9.468  2.9047 -0.7393  2.0864
   48CHL1   C16 5979   6.658   1.544   9.291 -0.0982  0.4507  0.2056
   48CHL1  H16A 5980   6.744   1.516   9.226 -1.1459 -0.3028 -0.8936
   48CHL1  H16B 5981   6.574   1.491   9.241  2.3055 -1.0996 -2.3974
   48CHL1   C17 5982   6.650   1.702   9.300 -0.5591 -0.0325 -0.3461
   48CHL1   H17 5983   6.540   1.720   9.305 -0.5144  0.1128  0.1498
   48CHL1   C13 5984   6.715   1.731   9.432 -0.1829 -0.4235 -0.6896
   48CHL1   C18 5985   6.873   1.726   9.418  0.9859 -0.1976 -0.1238
   48CHL1  H18A 5986   6.903   1.627   9.377  0.9663 -0.2725  0.0416
   48CHL1  H18B 5987   6.922   1.806   9.359  0.1638  0.7172  0.4147
   48CHL1  H18C 5988   6.914   1.746   9.519 -0.8840 -0.8144  0.7873
   48CHL1   C12 5989   6.659   1.857   9.507 -0.4071  0.2842 -0.4743
   48CHL1  H12A 5990   6.682   1.949   9.449 -1.0620 -0.3666 -1.7685
   48CHL1  H12B 5991   6.548   1.852   9.498 -0.6562  1.1738  1.7629
   48CHL1   C11 5992   6.702   1.865   9.652 -0.0822  0.0675 -0.6303
   48CHL1  H11A 5993   6.812   1.880   9.658  0.1411 -2.0184  1.3383
   48CHL1  H11B 5994   6.667   1.953   9.711  1.0454 -1.0816  1.8157
   48CHL1    C9 5995   6.664   1.733   9.729 -0.4180  0.0323 -0.5484
   48CHL1    H9 5996   6.553   1.744   9.726 -0.3077  1.0219 -1.3482
   48CHL1   C10 5997   6.702   1.729   9.883 -0.4618  0.2468  0.6043
   48CHL1   C19 5998   6.852   1.754   9.896  0.1364 -0.4780  0.1277
   48CHL1  H19A 5999   6.896   1.744   9.997  3.0649  2.5358 -0.7720
   48CHL1  H19B 6000   6.905   1.680   9.832 -1.4653  0.8809 -2.8701
   48CHL1  H19C 6001   6.874   1.852   9.848  0.5704  0.1569  1.6151
   48CHL1    C1 6002   6.621   1.839   9.971  1.4491  0.2205 -0.1311
   48CHL1   H1A 6003   6.673   1.931   9.938 -0.3355  1.2817 -0.0281
   48CHL1   H1B 6004   6.516   1.850   9.935  1.1410 -2.1171 -0.0315
   48CHL1    C2 6005   6.620   1.817  10.123 -0.0184  0.1225  0.7755
   48CHL1   H2A 6006   6.558   1.889  10.181 -0.7738  1.0125 -1.0815
   48CHL1   H2B 6007   6.727   1.833  10.146  0.1889  0.1725 -0.1973
   48CHL1   C20 6008   6.692   1.782   9.175 -0.1161 -0.6039 -0.3072
   48CHL1   H20 6009   6.802   1.770   9.164  0.1519  0.6666  0.8462
   48CHL1   C21 6010   6.663   1.934   9.192  0.8219  0.1905  0.5211
   48CHL1  H21A 6011   6.685   1.975   9.091  0.3459  1.0526  0.7699
   48CHL1  H21B 6012   6.719   1.983   9.274 -0.4716 -0.7685  1.9925
   48CHL1  H21C 6013   6.554   1.942   9.209  0.9731 -0.9847  2.2020
   48CHL1   C22 6014   6.637   1.737   9.040  0.0983 -0.6100 -0.0098
   48CHL1  H22A 6015   6.621   1.627   9.039 -0.3791 -0.5405 -0.1517
   48CHL1  H22B 6016   6.537   1.784   9.026 -1.2276 -2.2778  3.2929
   48CHL1   C23 6017   6.724   1.771   8.922  0.4169 -0.7009 -0.3838
   48CHL1  H23A 6018   6.740   1.881   8.921 -3.1680 -0.0720 -4.2112
   48CHL1  H23B 6019   6.824   1.724   8.931  0.4963 -0.5523 -0.4790
   48CHL1   C24 6020   6.659   1.719   8.795  0.4182 -0.0176 -0.1294
   48CHL1  H24A 6021   6.646   1.610   8.814  1.8172 -0.0899  0.5044
   48CHL1  H24B 6022   6.558   1.763   8.783 -0.1025 -0.7295  1.5612
   48CHL1   C25 6023   6.746   1.722   8.671  0.2128 -0.5992 -0.3052
   48CHL1   H25 6024   6.847   1.694   8.705  0.5019  0.0806 -0.5817
   48CHL1   C26 6025   6.701   1.618   8.553 -0.8468  0.1669 -0.3218
   48CHL1  H26A 6026   6.679   1.521   8.602 -1.9429  0.5811  0.0194
   48CHL1  H26B 6027   6.598   1.638   8.517 -0.6814  1.7499  0.0547
   48CHL1  H26C 6028   6.781   1.603   8.478 -0.5455  2.3789 -0.4723
   48CHL1   C27 6029   6.733   1.867   8.611  0.7427 -0.2647  0.2308
   48CHL1  H27A 6030   6.635   1.873   8.561  2.2001  1.2986 -2.5578
   48CHL1  H27B 6031   6.747   1.950   8.684  0.8784 -0.9452  0.9894
   48CHL1  H27C 6032   6.818   1.878   8.540 -0.4087  0.3702 -1.0538
   49CHL1    C3 6033   4.568   3.800  10.076 -0.5743  0.2061 -0.1709
   49CHL1    H3 6034   4.678   3.805  10.084 -0.7211 -0.9997  3.5098
   49CHL1    O3 6035   4.517   3.838  10.198  0.5117 -0.0206 -0.0525
   49CHL1   H3' 6036   4.501   3.933  10.195  0.5265  0.0326  1.0619
   49CHL1    C4 6037   4.516   3.895   9.967 -0.6799  0.1723 -0.8358
   49CHL1   H4A 6038   4.405   3.889   9.973 -0.5263 -0.8984  2.0084
   49CHL1   H4B 6039   4.537   4.000   9.997 -0.1530  0.4808 -2.2789
   49CHL1    C5 6040   4.548   3.852   9.828 -0.5208 -0.4924 -0.3508
   49CHL1    C6 6041   4.607   3.940   9.746 -1.2517 -0.0004 -0.4554
   49CHL1    H6 6042   4.621   4.042   9.786 -0.4094 -0.1840 -0.2793
   49CHL1    C7 6043   4.646   3.907   9.602  0.3958 -0.6960  0.1449
   49CHL1   H7A 6044   4.621   3.987   9.528 -0.1277  0.3881  1.4689
   49CHL1   H7B 6045   4.755   3.888   9.596  0.4082 -0.1694 -1.5441
   49CHL1    C8 6046   4.567   3.785   9.561  0.6102 -0.1913  1.0451
   49CHL1    H8 6047   4.464   3.823   9.544  0.4653 -0.9390  0.2156
   49CHL1   C14 6048   4.613   3.731   9.421  0.4377  0.3497  1.1564
   49CHL1   H14 6049   4.720   3.707   9.433  0.5147  0.6449  1.0462
   49CHL1   C15 6050   4.617   3.831   9.313 -0.2415 -0.3545 -0.5820
   49CHL1  H15A 6051   4.535   3.905   9.319  0.7088  0.5968  1.1892
   49CHL1  H15B 6052   4.714   3.885   9.303 -1.3392  1.9270  0.8352
   49CHL1   C16 6053   4.606   3.752   9.183  0.3180  0.7496  0.8243
   49CHL1  H16A 6054   4.514   3.764   9.124  0.5755  1.8775  0.6467
   49CHL1  H16B 6055   4.693   3.763   9.115 -0.7268  1.2585 -0.4295
   49CHL1   C17 6056   4.579   3.604   9.225  0.1937 -0.1473 -0.8616
   49CHL1   H17 6057   4.682   3.561   9.235  0.4549  1.0042  1.6629
   49CHL1   C13 6058   4.526   3.610   9.369 -0.5691 -0.3661 -0.1591
   49CHL1   C18 6059   4.377   3.647   9.375 -0.3594 -0.8969  0.0602
   49CHL1  H18A 6060   4.346   3.722   9.298  1.8298 -1.3537 -1.3040
   49CHL1  H18B 6061   4.326   3.559   9.332 -2.5458  0.5059 -0.2953
   49CHL1  H18C 6062   4.340   3.678   9.475 -0.7128 -0.4202 -0.2149
   49CHL1   C12 6063   4.566   3.501   9.466 -0.1513  0.5768  0.3253
   49CHL1  H12A 6064   4.525   3.401   9.437  1.6686 -0.9122  2.7021
   49CHL1  H12B 6065   4.676   3.483   9.471 -0.1330  0.9251  1.3391
   49CHL1   C11 6066   4.518   3.533   9.608  0.0184  0.6526  0.0929
   49CHL1  H11A 6067   4.407   3.523   9.607 -0.1193  2.0561 -3.0781
   49CHL1  H11B 6068   4.558   3.459   9.681  2.5778  2.5040  0.6438
   49CHL1    C9 6069   4.570   3.674   9.664  0.3454 -0.5040  0.3939
   49CHL1    H9 6070   4.678   3.657   9.684  0.4770  0.7364  0.7783
   49CHL1   C10 6071   4.512   3.701   9.797 -0.1204  0.1643  0.6571
   49CHL1   C19 6072   4.352   3.695   9.789  0.1353  0.5315 -0.4902
   49CHL1  H19A 6073   4.310   3.592   9.791 -0.5310  0.7794 -1.6198
   49CHL1  H19B 6074   4.310   3.753   9.875  0.2324 -0.4589  0.2403
   49CHL1  H19C 6075   4.326   3.750   9.697 -1.1988 -0.9217 -1.0049
   49CHL1    C1 6076   4.572   3.612   9.907  0.4690  0.0622  0.0189
   49CHL1   H1A 6077   4.553   3.506   9.882 -0.8354  0.5703 -1.2227
   49CHL1   H1B 6078   4.679   3.640   9.898  0.6617  0.8155  3.7287
   49CHL1    C2 6079   4.533   3.650  10.053  0.5206 -0.7816 -0.2948
   49CHL1   H2A 6080   4.581   3.577  10.121 -0.1853 -1.6216 -0.6799
   49CHL1   H2B 6081   4.425   3.632  10.073  0.9266 -1.4725  1.3310
   49CHL1   C20 6082   4.506   3.519   9.120  1.0738  0.6305 -0.4961
   49CHL1   H20 6083   4.401   3.555   9.121  0.7988 -0.1572  0.0070
   49CHL1   C21 6084   4.507   3.372   9.165  0.1802  0.0273  0.3754
   49CHL1  H21A 6085   4.426   3.351   9.238 -1.0688 -0.0540 -0.9936
   49CHL1  H21B 6086   4.607   3.335   9.197 -0.7048 -1.6360  1.2741
   49CHL1  H21C 6087   4.489   3.307   9.076 -0.8971  0.7679  0.0405
   49CHL1   C22 6088   4.565   3.531   8.984 -0.4197 -0.4262  0.5888
   49CHL1  H22A 6089   4.506   3.471   8.912 -1.3289  1.8963 -0.6553
   49CHL1  H22B 6090   4.559   3.638   8.954 -0.3764 -0.3495  0.8460
   49CHL1   C23 6091   4.712   3.497   8.956 -0.6197  0.0994  0.2739
   49CHL1  H23A 6092   4.778   3.531   9.039 -0.3305 -2.4803  1.1473
   49CHL1  H23B 6093   4.731   3.388   8.969  0.1483  0.2318  0.2653
   49CHL1   C24 6094   4.762   3.542   8.821  0.2946 -0.2510 -0.0987
   49CHL1  H24A 6095   4.710   3.471   8.753  1.2663 -0.6114 -0.4796
   49CHL1  H24B 6096   4.735   3.647   8.795  2.5707  0.0117 -1.5601
   49CHL1   C25 6097   4.914   3.533   8.788  0.6611  0.6696 -0.2542
   49CHL1   H25 6098   4.933   3.424   8.782 -1.4518  0.4266 -4.1306
   49CHL1   C26 6099   4.949   3.606   8.656  0.0348 -0.0830 -0.7313
   49CHL1  H26A 6100   5.058   3.583   8.650  0.1638  0.4216 -0.3586
   49CHL1  H26B 6101   4.887   3.563   8.574  1.2293 -1.1333 -1.1028
   49CHL1  H26C 6102   4.950   3.716   8.664  0.8188 -0.1938  0.7852
   49CHL1   C27 6103   5.002   3.580   8.907 -0.0628  0.0210  0.2687
   49CHL1  H27A 6104   4.965   3.677   8.946 -2.7178 -0.5587 -0.6739
   49CHL1  H27B 6105   5.000   3.512   8.995 -1.7722  0.8220  0.8757
   49CHL1  H27C 6106   5.109   3.586   8.881 -0.7455  0.0681 -2.7230
   50CHL1    C3 6107   1.195   6.372  10.201 -0.0903  0.1957  0.5659
   50CHL1    H3 6108   1.174   6.265  10.221 -0.9888 -0.2329 -2.4048
   50CHL1    O3 6109   1.235   6.435  10.316 -0.1826 -0.5029  0.2140
   50CHL1   H3' 6110   1.210   6.526  10.296 -0.4059 -0.4537  0.7224
   50CHL1    C4 6111   1.314   6.387  10.104 -0.0554  0.1651 -0.0057
   50CHL1   H4A 6112   1.348   6.492  10.101  2.1714 -0.5067  0.2350
   50CHL1   H4B 6113   1.398   6.329  10.150 -0.3318 -0.3378 -0.1262
   50CHL1    C5 6114   1.291   6.337   9.965 -0.5626  0.6081 -0.3136
   50CHL1    C6 6115   1.367   6.246   9.898  0.3888  0.5737  1.1085
   50CHL1    H6 6116   1.452   6.207   9.956 -1.0388 -2.1009  1.4890
   50CHL1    C7 6117   1.347   6.223   9.750  1.0957  0.0346  0.2616
   50CHL1   H7A 6118   1.438   6.198   9.691  0.8318 -3.0318  1.0438
   50CHL1   H7B 6119   1.294   6.127   9.734 -0.4385  1.0220 -0.6751
   50CHL1    C8 6120   1.250   6.316   9.674 -0.0437 -0.5165 -0.4825
   50CHL1    H8 6121   1.301   6.413   9.656 -1.4507  0.3174 -0.0646
   50CHL1   C14 6122   1.204   6.261   9.539  0.2790  0.5513 -0.0634
   50CHL1   H14 6123   1.133   6.180   9.567  0.3175  1.3235  2.4208
   50CHL1   C15 6124   1.306   6.196   9.447 -0.7281  0.4756  0.6309
   50CHL1  H15A 6125   1.401   6.254   9.439 -0.4665 -0.0017  0.2854
   50CHL1  H15B 6126   1.333   6.096   9.486  0.6723  0.7538  0.4135
   50CHL1   C16 6127   1.227   6.184   9.310 -0.3249  0.7507  0.2272
   50CHL1  H16A 6128   1.287   6.237   9.233  1.1460  0.3637  1.0770
   50CHL1  H16B 6129   1.215   6.076   9.286  0.5866  1.1402 -2.0604
   50CHL1   C17 6130   1.086   6.249   9.340  0.2621 -1.0642 -1.3608
   50CHL1   H17 6131   1.021   6.170   9.382  0.6473 -1.1293 -0.8853
   50CHL1   C13 6132   1.112   6.347   9.452  0.2877  0.0700  0.6759
   50CHL1   C18 6133   1.178   6.471   9.396 -0.3311 -0.1441 -0.1781
   50CHL1  H18A 6134   1.260   6.444   9.326 -0.8797 -0.2381 -0.7882
   50CHL1  H18B 6135   1.108   6.542   9.347 -1.1233 -0.6213  0.2552
   50CHL1  H18C 6136   1.226   6.535   9.472 -0.5460  0.5383 -0.6170
   50CHL1   C12 6137   0.990   6.375   9.545  0.2377 -0.3036 -0.3640
   50CHL1  H12A 6138   0.924   6.453   9.501  1.4408  1.3838  0.7583
   50CHL1  H12B 6139   0.927   6.284   9.552 -0.7384  0.5351  2.4398
   50CHL1   C11 6140   1.031   6.431   9.682 -0.6464  0.1719 -0.5484
   50CHL1  H11A 6141   1.074   6.533   9.664  1.1038 -0.2397  1.1706
   50CHL1  H11B 6142   0.934   6.436   9.736 -0.2189 -1.3047  0.3773
   50CHL1    C9 6143   1.125   6.347   9.763 -0.7479  0.4800  0.1580
   50CHL1    H9 6144   1.081   6.246   9.778  0.2905 -0.5515 -3.1879
   50CHL1   C10 6145   1.162   6.404   9.900  0.4265 -0.2720  0.2806
   50CHL1   C19 6146   1.185   6.554   9.881 -0.4619  0.1938  0.2016
   50CHL1  H19A 6147   1.087   6.598   9.851  0.1847  0.6204 -1.3571
   50CHL1  H19B 6148   1.221   6.607   9.971  0.8226 -0.3377  0.0134
   50CHL1  H19C 6149   1.265   6.558   9.804 -0.9846 -0.7650 -0.4197
   50CHL1    C1 6150   1.041   6.378   9.998  0.4076  0.0625  0.2903
   50CHL1   H1A 6151   0.948   6.416   9.950  1.7159  1.9598 -0.7897
   50CHL1   H1B 6152   1.029   6.268  10.010  1.8698 -0.1873 -0.4190
   50CHL1    C2 6153   1.064   6.435  10.139  0.1746  0.0713  0.4018
   50CHL1   H2A 6154   0.975   6.410  10.200  0.6368 -3.0605 -0.1088
   50CHL1   H2B 6155   1.066   6.544  10.123  1.5450 -0.2809 -2.0194
   50CHL1   C20 6156   1.025   6.297   9.209 -0.2369 -0.3030 -0.5993
   50CHL1   H20 6157   1.100   6.367   9.166  1.9241 -0.8388  2.1492
   50CHL1   C21 6158   0.888   6.350   9.243  0.0986 -0.9449 -0.3151
   50CHL1  H21A 6159   0.807   6.279   9.270 -1.4294  0.9533  0.2741
   50CHL1  H21B 6160   0.842   6.399   9.154  0.2040 -0.4149 -0.0815
   50CHL1  H21C 6161   0.886   6.430   9.320 -3.3507 -0.7183 -0.5438
   50CHL1   C22 6162   1.018   6.183   9.103  0.3045 -0.3301 -0.0860
   50CHL1  H22A 6163   1.121   6.146   9.081 -0.4775 -2.0436 -0.9779
   50CHL1  H22B 6164   0.961   6.098   9.145  1.3394 -1.1021 -0.1956
   50CHL1   C23 6165   0.946   6.220   8.966 -0.3235 -0.0481 -0.3337
   50CHL1  H23A 6166   0.920   6.127   8.911 -0.4292 -2.3967  3.5296
   50CHL1  H23B 6167   0.851   6.278   8.977  1.1551  2.1829  1.0093
   50CHL1   C24 6168   1.043   6.302   8.873 -0.2590 -0.3100 -0.1904
   50CHL1  H24A 6169   1.091   6.390   8.919  1.9489 -0.6269 -1.7930
   50CHL1  H24B 6170   1.129   6.232   8.859  1.0653  0.5463  3.1668
   50CHL1   C25 6171   0.974   6.321   8.734  1.1013  0.2810 -0.3833
   50CHL1   H25 6172   0.958   6.221   8.689 -0.3410  0.6734 -0.7674
   50CHL1   C26 6173   0.843   6.403   8.747 -0.3702  0.5988 -0.2658
   50CHL1  H26A 6174   0.800   6.427   8.647  0.3578 -0.3494 -0.8119
   50CHL1  H26B 6175   0.760   6.348   8.796  0.0612 -0.1332 -0.3633
   50CHL1  H26C 6176   0.865   6.495   8.806  0.5526  0.1433  0.1068
   50CHL1   C27 6177   1.060   6.408   8.640 -0.3791 -0.6481 -0.2998
   50CHL1  H27A 6178   1.166   6.373   8.646  0.0279  0.3715 -1.3788
   50CHL1  H27B 6179   1.021   6.393   8.537 -0.3917 -1.6448 -0.1568
   50CHL1  H27C 6180   1.057   6.514   8.673 -0.2643 -1.0840  1.1533
   51CHL1    C3 6181   2.556   1.400  10.303 -0.7038 -0.1031 -0.6882
   51CHL1    H3 6182   2.524   1.298  10.271  0.6112 -0.0883 -2.1287
   51CHL1    O3 6183   2.575   1.405  10.442 -0.0474  0.1162  0.1042
   51CHL1   H3' 6184   2.637   1.334  10.461  0.5202  0.4469 -0.5090
   51CHL1    C4 6185   2.693   1.425  10.239 -0.5873  0.1405  0.9370
   51CHL1   H4A 6186   2.723   1.529  10.265  0.6051  0.0511 -0.0226
   51CHL1   H4B 6187   2.768   1.353  10.276  1.2778 -0.1806 -3.1324
   51CHL1    C5 6188   2.688   1.407  10.094  0.7491  0.3520  0.0242
   51CHL1    C6 6189   2.757   1.314  10.032 -0.1111 -0.2970 -0.0043
   51CHL1    H6 6190   2.833   1.265  10.094 -1.3924  1.0141  2.6836
   51CHL1    C7 6191   2.769   1.300   9.887  0.0027 -0.4657 -0.0244
   51CHL1   H7A 6192   2.878   1.290   9.872  0.0386 -0.6188  0.3321
   51CHL1   H7B 6193   2.723   1.208   9.846  0.8425 -0.7069 -0.4253
   51CHL1    C8 6194   2.700   1.412   9.805 -0.0903  0.1878 -0.7585
   51CHL1    H8 6195   2.774   1.494   9.806 -2.4789  2.3856 -0.4708
   51CHL1   C14 6196   2.664   1.364   9.664 -0.3474  0.1812  0.1655
   51CHL1   H14 6197   2.572   1.302   9.677 -1.6501  1.5370 -2.3013
   51CHL1   C15 6198   2.764   1.285   9.579  0.1219  0.0320  0.4880
   51CHL1  H15A 6199   2.862   1.336   9.585 -0.0717  0.4369  0.2329
   51CHL1  H15B 6200   2.776   1.177   9.602 -1.0720  0.1212  1.6508
   51CHL1   C16 6201   2.711   1.303   9.436  0.3458 -0.2119  0.0852
   51CHL1  H16A 6202   2.805   1.331   9.383  0.0195  0.4993 -0.1197
   51CHL1  H16B 6203   2.677   1.205   9.395 -1.1446 -1.1887  3.4421
   51CHL1   C17 6204   2.600   1.411   9.438  0.6128 -0.6048  0.9733
   51CHL1   H17 6205   2.505   1.354   9.447  0.5054 -0.5448  0.2107
   51CHL1   C13 6206   2.617   1.478   9.575 -0.7325 -0.0800 -0.0335
   51CHL1   C18 6207   2.718   1.595   9.556 -1.0406 -0.0879  0.6042
   51CHL1  H18A 6208   2.739   1.644   9.654 -1.6604  3.5071 -1.0006
   51CHL1  H18B 6209   2.810   1.560   9.504 -0.1149  0.5736  1.7567
   51CHL1  H18C 6210   2.660   1.664   9.492 -0.2906 -0.9914 -1.0849
   51CHL1   C12 6211   2.479   1.533   9.640  0.3351 -0.9840 -0.3882
   51CHL1  H12A 6212   2.428   1.613   9.583 -1.2989 -2.3764 -0.9215
   51CHL1  H12B 6213   2.411   1.446   9.653 -1.2628 -0.0600 -2.3597
   51CHL1   C11 6214   2.503   1.569   9.786 -0.2726 -0.1286  0.3643
   51CHL1  H11A 6215   2.559   1.665   9.779 -1.8422  0.7129 -0.8827
   51CHL1  H11B 6216   2.408   1.585   9.841 -0.7790 -1.0531 -0.2246
   51CHL1    C9 6217   2.574   1.463   9.864  0.3642 -0.6619  0.1039
   51CHL1    H9 6218   2.509   1.374   9.877 -1.2651 -0.1541 -3.8982
   51CHL1   C10 6219   2.595   1.501  10.010  0.4015  0.2821  0.0422
   51CHL1   C19 6220   2.676   1.637  10.018  0.0668 -0.0962  0.4935
   51CHL1  H19A 6221   2.770   1.636   9.959  0.4108  2.2841  0.9685
   51CHL1  H19B 6222   2.614   1.721   9.980  1.7974  2.2179  2.6460
   51CHL1  H19C 6223   2.701   1.670  10.121  2.7037  0.5989 -0.3144
   51CHL1    C1 6224   2.461   1.508  10.093  0.0444 -0.2756 -0.1033
   51CHL1   H1A 6225   2.408   1.604  10.073  0.7727 -0.0525 -0.9937
   51CHL1   H1B 6226   2.393   1.423  10.071 -1.4428  0.0293  3.1115
   51CHL1    C2 6227   2.473   1.513  10.248 -0.0640 -0.1510  0.1788
   51CHL1   H2A 6228   2.368   1.514  10.285  0.8025 -0.8297  2.6964
   51CHL1   H2B 6229   2.524   1.606  10.283 -1.2214 -0.2855  2.2687
   51CHL1   C20 6230   2.603   1.496   9.308  0.7694  0.1232  0.6618
   51CHL1   H20 6231   2.693   1.560   9.298  0.9613 -0.5470 -2.3379
   51CHL1   C21 6232   2.475   1.586   9.303  0.2425  0.5580 -0.0603
   51CHL1  H21A 6233   2.391   1.516   9.291  1.2300 -0.8069  0.8893
   51CHL1  H21B 6234   2.493   1.655   9.217  3.5360 -0.7359 -0.4967
   51CHL1  H21C 6235   2.455   1.645   9.395 -1.0243 -0.4364  0.3045
   51CHL1   C22 6236   2.618   1.413   9.178 -0.4918 -0.6035  0.4665
   51CHL1  H22A 6237   2.666   1.313   9.191 -0.5451 -0.3790  2.6097
   51CHL1  H22B 6238   2.518   1.396   9.132  0.8042 -2.5261 -1.8122
   51CHL1   C23 6239   2.692   1.481   9.061  0.0238  0.5760 -0.4100
   51CHL1  H23A 6240   2.630   1.560   9.013  1.7456  1.9673 -0.4294
   51CHL1  H23B 6241   2.782   1.528   9.108 -0.0590  0.1156  0.2175
   51CHL1   C24 6242   2.729   1.367   8.959  0.9813  0.3320  0.7999
   51CHL1  H24A 6243   2.805   1.308   9.014 -0.5692 -0.7817  1.7855
   51CHL1  H24B 6244   2.645   1.299   8.932  0.3413  0.9767  1.1324
   51CHL1   C25 6245   2.793   1.407   8.831 -0.1279  0.3533 -0.1764
   51CHL1   H25 6246   2.887   1.463   8.850  0.7268 -1.3194  0.6404
   51CHL1   C26 6247   2.826   1.288   8.745 -0.4331 -0.4283 -0.0823
   51CHL1  H26A 6248   2.875   1.211   8.808  1.8782  0.2777 -0.9728
   51CHL1  H26B 6249   2.736   1.234   8.707 -1.8906  0.1423  2.4763
   51CHL1  H26C 6250   2.894   1.308   8.660 -2.1356 -0.9921 -1.6201
   51CHL1   C27 6251   2.712   1.508   8.751 -0.0597  0.4197  0.5390
   51CHL1  H27A 6252   2.693   1.602   8.808 -2.0314 -0.4707  1.4184
   51CHL1  H27B 6253   2.771   1.540   8.663  0.4173 -3.7666 -0.7615
   51CHL1  H27C 6254   2.618   1.460   8.717  1.0505 -0.6317 -1.1071
   52CHL1    C3 6255   5.753   0.352  10.101  0.0179 -0.5123 -0.4938
   52CHL1    H3 6256   5.657   0.296  10.097  0.7311 -1.8490  0.6146
   52CHL1    O3 6257   5.774   0.369  10.242  0.1402 -0.3176  0.3452
   52CHL1   H3' 6258   5.797   0.285  10.283  0.8696 -2.5517 -4.3107
   52CHL1    C4 6259   5.875   0.274  10.034 -0.6232 -0.7271 -0.3525
   52CHL1   H4A 6260   5.973   0.319  10.058 -0.9241  1.2566 -2.6534
   52CHL1   H4B 6261   5.885   0.168  10.064 -1.0583 -1.0158 -1.1928
   52CHL1    C5 6262   5.856   0.278   9.884  0.2499  0.0029 -0.3787
   52CHL1    C6 6263   5.852   0.164   9.813  0.2914 -0.2635  0.0326
   52CHL1    H6 6264   5.857   0.069   9.869  0.4804  1.0259  2.2456
   52CHL1    C7 6265   5.826   0.149   9.667  0.0998 -0.6557  0.2266
   52CHL1   H7A 6266   5.882   0.061   9.629  0.8365 -1.0660  2.2261
   52CHL1   H7B 6267   5.717   0.134   9.653  0.3162 -1.3800 -0.7848
   52CHL1    C8 6268   5.865   0.272   9.592 -0.1746 -0.6444 -0.0281
   52CHL1    H8 6269   5.975   0.284   9.595 -0.2958  0.7461 -0.7829
   52CHL1   C14 6270   5.816   0.262   9.451 -0.2353  0.2721 -0.1150
   52CHL1   H14 6271   5.705   0.257   9.455 -0.1885  1.1603  2.9605
   52CHL1   C15 6272   5.858   0.142   9.364  0.0812 -0.7515 -0.0457
   52CHL1  H15A 6273   5.967   0.123   9.369  0.2366  0.3633  0.9158
   52CHL1  H15B 6274   5.808   0.053   9.407 -0.2895 -1.0696 -1.0985
   52CHL1   C16 6275   5.808   0.176   9.221 -0.1632 -0.3445  0.1394
   52CHL1  H16A 6276   5.893   0.168   9.150 -1.1125  0.3374 -1.1022
   52CHL1  H16B 6277   5.731   0.109   9.176 -1.6638  1.0010  0.6353
   52CHL1   C17 6278   5.769   0.331   9.227  0.0776 -0.4897  0.2761
   52CHL1   H17 6279   5.664   0.332   9.264  0.0386  0.1974  0.1483
   52CHL1   C13 6280   5.843   0.382   9.362 -1.0860  0.3276 -0.3436
   52CHL1   C18 6281   5.996   0.404   9.347 -0.0961 -0.5608 -0.0771
   52CHL1  H18A 6282   6.021   0.476   9.266 -1.3256 -1.2414 -1.0819
   52CHL1  H18B 6283   6.040   0.430   9.445  0.1690 -0.3570 -0.2488
   52CHL1  H18C 6284   6.047   0.313   9.308 -1.8489 -1.8221  0.4704
   52CHL1   C12 6285   5.786   0.508   9.429  0.3129 -0.3115  0.6869
   52CHL1  H12A 6286   5.823   0.597   9.374 -1.1295 -0.2107 -0.1558
   52CHL1  H12B 6287   5.676   0.498   9.416  0.1648  1.6316  0.2298
   52CHL1   C11 6288   5.817   0.527   9.580 -0.2788  1.0593 -0.3847
   52CHL1  H11A 6289   5.922   0.564   9.575  1.3445 -3.1436  0.4186
   52CHL1  H11B 6290   5.752   0.608   9.618 -0.5607  1.2004 -1.1552
   52CHL1    C9 6291   5.798   0.397   9.663  0.6063 -0.8005  0.2239
   52CHL1    H9 6292   5.691   0.371   9.652 -0.3583  2.9732 -0.2215
   52CHL1   C10 6293   5.838   0.415   9.811 -0.6436 -0.2500 -0.6044
   52CHL1   C19 6294   5.975   0.494   9.813  0.1565  0.0116 -0.2760
   52CHL1  H19A 6295   6.028   0.492   9.910 -0.5261 -0.0204  0.1016
   52CHL1  H19B 6296   6.051   0.446   9.748  0.8087 -0.0191  0.5016
   52CHL1  H19C 6297   5.953   0.601   9.793  0.3087  0.7734  3.3649
   52CHL1    C1 6298   5.717   0.485   9.889  0.3218  0.0884 -0.6625
   52CHL1   H1A 6299   5.700   0.587   9.849 -0.9891 -0.5202 -1.6952
   52CHL1   H1B 6300   5.626   0.423   9.872  0.2286  0.1049 -0.2439
   52CHL1    C2 6301   5.734   0.493  10.045 -0.9410 -0.3322  0.1534
   52CHL1   H2A 6302   5.651   0.552  10.091 -2.6309 -2.1839 -0.4475
   52CHL1   H2B 6303   5.824   0.553  10.070 -0.8555 -0.4326  0.0863
   52CHL1   C20 6304   5.795   0.405   9.098  0.2626  0.5925  0.8697
   52CHL1   H20 6305   5.796   0.511   9.130 -0.0922  0.2669  1.9685
   52CHL1   C21 6306   5.666   0.388   9.008  0.0834 -0.0740  0.2102
   52CHL1  H21A 6307   5.673   0.287   8.963 -2.1627 -0.4703  0.6998
   52CHL1  H21B 6308   5.674   0.458   8.922  0.9916  0.5957  0.8295
   52CHL1  H21C 6309   5.563   0.402   9.049  0.8351 -2.1009  2.9117
   52CHL1   C22 6310   5.931   0.385   9.023 -0.2572  0.4742  0.1851
   52CHL1  H22A 6311   6.005   0.351   9.099 -2.4837 -0.1900  2.1101
   52CHL1  H22B 6312   5.925   0.306   8.945  2.7033  0.2612  0.0944
   52CHL1   C23 6313   5.990   0.512   8.952 -0.0487 -0.0329 -0.4085
   52CHL1  H23A 6314   5.926   0.556   8.873 -0.0494 -0.2506 -0.5292
   52CHL1  H23B 6315   6.019   0.600   9.012  2.5956 -1.4349  0.4285
   52CHL1   C24 6316   6.126   0.481   8.887  0.8958 -0.7142 -0.4270
   52CHL1  H24A 6317   6.207   0.479   8.963  1.4901 -1.0381 -1.0641
   52CHL1  H24B 6318   6.114   0.386   8.830  0.0366  0.2133 -1.8193
   52CHL1   C25 6319   6.164   0.584   8.782 -0.4629 -0.7683 -0.1541
   52CHL1   H25 6320   6.174   0.686   8.826 -1.3300  0.0428 -1.7668
   52CHL1   C26 6321   6.306   0.548   8.746  0.1730 -0.1255  0.7913
   52CHL1  H26A 6322   6.295   0.468   8.670  1.6721  1.8120 -1.5326
   52CHL1  H26B 6323   6.361   0.634   8.703 -0.2113 -0.3282 -0.0965
   52CHL1  H26C 6324   6.371   0.506   8.826 -1.8219 -0.6479  2.1744
   52CHL1   C27 6325   6.068   0.614   8.669  0.0123 -0.3865 -0.6304
   52CHL1  H27A 6326   6.034   0.519   8.622 -1.5954  0.7238 -1.7751
   52CHL1  H27B 6327   5.982   0.679   8.696  0.2343  0.5794 -2.1785
   52CHL1  H27C 6328   6.118   0.676   8.591  0.6007 -1.0175 -0.7555
   53CHL1    C3 6329   6.689   0.133   9.961 -0.5379 -0.3159  0.0371
   53CHL1    H3 6330   6.584   0.152   9.931 -0.4933  1.6933  1.0644
   53CHL1    O3 6331   6.704   0.125  10.099 -0.0294  0.2589 -0.0656
   53CHL1   H3' 6332   6.786   0.175  10.106  0.0678  0.4605 -2.2382
   53CHL1    C4 6333   6.751   0.010   9.886  0.1509 -0.7031  0.3158
   53CHL1   H4A 6334   6.857   0.009   9.918  0.1925  1.9884  0.4465
   53CHL1   H4B 6335   6.697  -0.078   9.928  2.9644 -1.7201  1.8843
   53CHL1    C5 6336   6.738   0.021   9.739  0.6117 -1.0259  0.6022
   53CHL1    C6 6337   6.688  -0.078   9.660  0.0547 -0.2532 -0.5386
   53CHL1    H6 6338   6.653  -0.172   9.705  0.2692  0.1229  0.4252
   53CHL1    C7 6339   6.688  -0.079   9.511  0.9133  0.5107  0.2267
   53CHL1   H7A 6340   6.723  -0.174   9.465 -0.2651  0.0602  0.2284
   53CHL1   H7B 6341   6.580  -0.065   9.485  0.3331 -2.9466  0.4822
   53CHL1    C8 6342   6.774   0.033   9.452 -0.3162  0.3303  0.0431
   53CHL1    H8 6343   6.880   0.001   9.456 -0.1285  0.5766 -2.0298
   53CHL1   C14 6344   6.737   0.052   9.304 -0.2738  0.0968 -0.1482
   53CHL1   H14 6345   6.631   0.083   9.316 -0.6557 -0.3620 -2.2881
   53CHL1   C15 6346   6.741  -0.072   9.212 -0.0002 -0.0869  0.0071
   53CHL1  H15A 6347   6.828  -0.136   9.239 -0.3554  0.0878  1.6730
   53CHL1  H15B 6348   6.655  -0.138   9.235  0.5712 -0.2088  1.9223
   53CHL1   C16 6349   6.746  -0.016   9.065  0.5201  0.4737  0.2595
   53CHL1  H16A 6350   6.833  -0.062   9.013  1.7000  3.0779 -0.1524
   53CHL1  H16B 6351   6.651  -0.048   9.016  1.3552  0.9976 -1.7655
   53CHL1   C17 6352   6.755   0.141   9.083  0.0110  0.7016 -0.1234
   53CHL1   H17 6353   6.650   0.170   9.065 -0.7226 -2.0186 -0.4482
   53CHL1   C13 6354   6.814   0.154   9.228  0.8320 -0.0987 -1.3685
   53CHL1   C18 6355   6.970   0.111   9.225  0.6083 -0.4322  0.4968
   53CHL1  H18A 6356   7.023   0.192   9.170 -0.1365 -0.2867 -0.0074
   53CHL1  H18B 6357   7.005   0.116   9.330  1.2943  2.2941  0.1626
   53CHL1  H18C 6358   6.983   0.013   9.174 -0.9803 -0.5266  0.2427
   53CHL1   C12 6359   6.790   0.288   9.307  0.1973 -0.4990 -0.3109
   53CHL1  H12A 6360   6.848   0.373   9.264  0.8865 -0.4931  0.6313
   53CHL1  H12B 6361   6.683   0.318   9.297  0.0562 -0.8885 -0.0075
   53CHL1   C11 6362   6.828   0.288   9.455 -0.0334  0.3355  0.2015
   53CHL1  H11A 6363   6.937   0.265   9.458 -0.0885  0.1651  1.1927
   53CHL1  H11B 6364   6.809   0.387   9.503  0.9634  0.1258  1.0502
   53CHL1    C9 6365   6.756   0.166   9.529 -0.2435 -0.4385  0.4897
   53CHL1    H9 6366   6.646   0.182   9.528 -0.3991 -0.7773  4.3212
   53CHL1   C10 6367   6.800   0.152   9.679 -0.0658 -0.2212  0.5820
   53CHL1   C19 6368   6.954   0.137   9.688  0.4469 -1.1907  0.1073
   53CHL1  H19A 6369   7.008   0.229   9.656  2.3077 -1.2031  2.9828
   53CHL1  H19B 6370   6.988   0.135   9.794  2.1673  1.5512 -0.3351
   53CHL1  H19C 6371   6.990   0.043   9.643 -0.6095 -2.2568  1.4344
   53CHL1    C1 6372   6.752   0.267   9.760  0.5288 -1.0881  0.1166
   53CHL1   H1A 6373   6.798   0.363   9.730  0.9207 -0.7564  1.7564
   53CHL1   H1B 6374   6.643   0.278   9.739  0.3784 -1.7956  0.5109
   53CHL1    C2 6375   6.761   0.261   9.914  0.4363 -0.3051  0.5002
   53CHL1   H2A 6376   6.721   0.354   9.960  1.4299 -0.5522  1.8911
   53CHL1   H2B 6377   6.865   0.252   9.951  0.0331 -0.4087  1.6321
   53CHL1   C20 6378   6.831   0.209   8.967  0.8317 -0.2158  0.4431
   53CHL1   H20 6379   6.938   0.181   8.960  0.8994  0.4336 -1.5556
   53CHL1   C21 6380   6.818   0.363   8.991 -0.4154 -0.3056  0.3093
   53CHL1  H21A 6381   6.880   0.421   8.919 -0.6214  1.2407  1.3481
   53CHL1  H21B 6382   6.867   0.398   9.084 -0.4542  0.4531  0.0520
   53CHL1  H21C 6383   6.710   0.390   8.992 -0.1529  0.8623 -0.5431
   53CHL1   C22 6384   6.775   0.176   8.826 -0.5237  0.1875 -0.5866
   53CHL1  H22A 6385   6.770   0.065   8.822  1.5965  0.0090  0.7455
   53CHL1  H22B 6386   6.669   0.210   8.820 -0.8320 -1.1610 -3.8685
   53CHL1   C23 6387   6.859   0.230   8.709 -0.0896  0.4093  0.3113
   53CHL1  H23A 6388   6.871   0.339   8.724 -0.2622  0.5663 -0.6525
   53CHL1  H23B 6389   6.961   0.189   8.727 -0.9367 -0.9249  2.2103
   53CHL1   C24 6390   6.820   0.195   8.558 -0.1087  0.1577 -0.1069
   53CHL1  H24A 6391   6.811   0.084   8.558 -1.3284  0.2372  0.9662
   53CHL1  H24B 6392   6.728   0.247   8.525 -0.5591 -0.1596  0.6240
   53CHL1   C25 6393   6.927   0.236   8.459 -0.4809 -0.7636 -0.0552
   53CHL1   H25 6394   6.945   0.345   8.446 -1.2843 -0.3800  1.9017
   53CHL1   C26 6395   7.060   0.164   8.492  0.5630 -0.1487  0.4513
   53CHL1  H26A 6396   7.033   0.058   8.512  0.3138 -0.1755 -0.0116
   53CHL1  H26B 6397   7.137   0.173   8.413  1.7243  0.4987  1.6327
   53CHL1  H26C 6398   7.102   0.211   8.584  0.6864 -2.1652  1.4627
   53CHL1   C27 6399   6.880   0.185   8.319 -0.5643 -0.4432 -0.2190
   53CHL1  H27A 6400   6.959   0.201   8.243  0.2331 -0.3953  0.6131
   53CHL1  H27B 6401   6.855   0.077   8.324 -1.2713 -0.2763 -0.1141
   53CHL1  H27C 6402   6.788   0.235   8.282 -0.8372 -1.4291 -0.8855
   54CHL1    C3 6403   0.262   1.432  10.237 -0.0915  0.4440  0.8583
   54CHL1    H3 6404   0.158   1.473  10.243 -0.6150 -0.7406  0.1027
   54CHL1    O3 6405   0.320   1.437  10.364  0.2710  0.0319  0.1350
   54CHL1   H3' 6406   0.414   1.453  10.351  0.4544 -0.8808  0.2889
   54CHL1    C4 6407   0.249   1.291  10.179 -0.0624 -0.2511  0.9607
   54CHL1   H4A 6408   0.346   1.239  10.188 -0.5662 -1.2542  0.6944
   54CHL1   H4B 6409   0.174   1.238  10.241  0.7985 -3.9589 -1.0160
   54CHL1    C5 6410   0.218   1.279  10.029 -0.3039 -0.1452 -0.8039
   54CHL1    C6 6411   0.108   1.218   9.981  0.3381 -0.3713  0.2337
   54CHL1    H6 6412   0.045   1.171  10.058 -0.8398  0.5237 -0.1655
   54CHL1    C7 6413   0.078   1.199   9.834  0.3511 -0.8667 -0.1054
   54CHL1   H7A 6414   0.043   1.096   9.812  0.0446 -1.1099  1.4398
   54CHL1   H7B 6415  -0.006   1.269   9.815 -0.7623 -1.5631  2.0244
   54CHL1    C8 6416   0.194   1.237   9.749 -0.6502  0.1510  0.3467
   54CHL1    H8 6417   0.266   1.152   9.751  0.2950  0.8486 -2.4446
   54CHL1   C14 6418   0.145   1.253   9.602  0.7184 -0.1280  0.3298
   54CHL1   H14 6419   0.081   1.344   9.599  0.0819 -0.6217 -3.5422
   54CHL1   C15 6420   0.069   1.131   9.546  1.3607  0.1525  0.0870
   54CHL1  H15A 6421   0.109   1.035   9.585  0.4341 -0.2368  0.0923
   54CHL1  H15B 6422  -0.040   1.125   9.570  1.3130  0.6100 -0.0056
   54CHL1   C16 6423   0.081   1.153   9.395  0.5374  0.3576  0.1614
   54CHL1  H16A 6424   0.124   1.059   9.354 -0.6081 -0.6194  1.1797
   54CHL1  H16B 6425  -0.017   1.159   9.343 -0.8817  1.6685  2.9348
   54CHL1   C17 6426   0.185   1.266   9.376 -0.4982  0.2241 -0.6084
   54CHL1   H17 6427   0.122   1.358   9.383  0.4728  0.7349  2.0480
   54CHL1   C13 6428   0.259   1.272   9.505 -0.5056  0.2213  0.3223
   54CHL1   C18 6429   0.361   1.154   9.511 -0.2310  0.4646 -0.1279
   54CHL1  H18A 6430   0.436   1.176   9.432 -0.5087 -0.2170 -0.5759
   54CHL1  H18B 6431   0.410   1.147   9.611  3.0834 -2.0600 -1.8096
   54CHL1  H18C 6432   0.305   1.060   9.495 -1.3674  1.5148 -2.6186
   54CHL1   C12 6433   0.323   1.405   9.545  0.6040 -0.7191  0.4912
   54CHL1  H12A 6434   0.411   1.424   9.479  2.1250 -3.7392  1.5493
   54CHL1  H12B 6435   0.246   1.483   9.525  1.1740  0.0044  1.0747
   54CHL1   C11 6436   0.371   1.413   9.689 -0.3795 -0.0934  0.7435
   54CHL1  H11A 6437   0.454   1.339   9.691 -1.8908 -1.8311 -0.0799
   54CHL1  H11B 6438   0.409   1.516   9.711  0.9032 -0.8261  2.0418
   54CHL1    C9 6439   0.263   1.366   9.792  0.4134  0.3722  0.3873
   54CHL1    H9 6440   0.184   1.443   9.782 -0.9674 -0.4596  4.1575
   54CHL1   C10 6441   0.317   1.362   9.938  0.4057 -0.3818 -0.3534
   54CHL1   C19 6442   0.463   1.300   9.935  0.2037 -0.3275  0.3221
   54CHL1  H19A 6443   0.459   1.205   9.878 -0.8322 -0.0144 -0.1454
   54CHL1  H19B 6444   0.541   1.367   9.893  0.8700 -0.4303  1.3783
   54CHL1  H19C 6445   0.504   1.282  10.036 -0.2921  1.2052  0.8115
   54CHL1    C1 6446   0.307   1.503   9.997 -0.2933 -0.3672  0.6319
   54CHL1   H1A 6447   0.366   1.582   9.947  1.0713 -2.7778 -1.6904
   54CHL1   H1B 6448   0.202   1.539   9.985 -0.0168  0.6743  1.3125
   54CHL1    C2 6449   0.347   1.519  10.141  0.0328 -0.1330  0.1264
   54CHL1   H2A 6450   0.355   1.625  10.175  1.7105 -0.4214  0.6960
   54CHL1   H2B 6451   0.449   1.476  10.149  0.1235 -0.4016 -2.0964
   54CHL1   C20 6452   0.256   1.281   9.238 -0.3645 -0.5573  0.4749
   54CHL1   H20 6453   0.354   1.229   9.232 -0.6642 -0.9625 -1.3454
   54CHL1   C21 6454   0.268   1.431   9.211  0.1323  0.1364 -0.5123
   54CHL1  H21A 6455   0.317   1.442   9.112  0.8781 -0.5753 -0.2297
   54CHL1  H21B 6456   0.327   1.487   9.287 -1.0710 -2.4405  2.4532
   54CHL1  H21C 6457   0.167   1.476   9.195  0.5107  1.9600  1.9201
   54CHL1   C22 6458   0.192   1.211   9.118  0.5807 -0.6860  0.4956
   54CHL1  H22A 6459   0.254   1.202   9.026 -1.4049  0.1089 -0.9499
   54CHL1  H22B 6460   0.170   1.105   9.141  1.7065 -0.8612  0.7888
   54CHL1   C23 6461   0.054   1.273   9.060 -0.5187 -0.0588  0.4284
   54CHL1  H23A 6462  -0.009   1.305   9.146 -1.9136 -0.1225 -0.5453
   54CHL1  H23B 6463   0.074   1.366   9.004  2.2170 -0.5229  0.5936
   54CHL1   C24 6464  -0.028   1.169   8.977  0.2770  0.0928 -0.0632
   54CHL1  H24A 6465   0.044   1.122   8.906  2.5551  3.8983 -0.3706
   54CHL1  H24B 6466  -0.051   1.099   9.060  3.1172  0.9721  1.5395
   54CHL1   C25 6467  -0.153   1.216   8.900  0.1042 -0.6124 -0.3690
   54CHL1   H25 6468  -0.221   1.260   8.975  1.7569  0.0054  0.7973
   54CHL1   C26 6469  -0.125   1.337   8.807 -0.0919  0.4683 -0.6954
   54CHL1  H26A 6470  -0.048   1.308   8.733 -0.7732 -0.2005 -1.1535
   54CHL1  H26B 6471  -0.220   1.366   8.757  0.6659  0.8722 -1.9244
   54CHL1  H26C 6472  -0.089   1.418   8.874 -0.3617 -0.7396  0.9601
   54CHL1   C27 6473  -0.216   1.109   8.818  0.2023  0.8273  0.3319
   54CHL1  H27A 6474  -0.257   1.017   8.864 -2.6743  0.7330 -2.2707
   54CHL1  H27B 6475  -0.299   1.165   8.770  0.1550  2.1458  1.9255
   54CHL1  H27C 6476  -0.144   1.078   8.739  0.2638 -1.2678  1.1823
   55CHL1    C3 6477   0.595   5.767  10.022 -0.0411  0.3098  0.2015
   55CHL1    H3 6478   0.626   5.871  10.043 -0.2412  0.5662 -0.7541
   55CHL1    O3 6479   0.616   5.703  10.150  0.0560 -0.2885 -0.5957
   55CHL1   H3' 6480   0.589   5.612  10.137 -0.3440 -0.4015  0.9862
   55CHL1    C4 6481   0.442   5.764   9.995  0.5641  0.0833  0.4898
   55CHL1   H4A 6482   0.399   5.671  10.038  0.8434 -0.5570 -0.6128
   55CHL1   H4B 6483   0.412   5.856  10.050  3.4484  1.6887 -0.4986
   55CHL1    C5 6484   0.399   5.772   9.848  0.8396 -0.0364 -0.1019
   55CHL1    C6 6485   0.300   5.857   9.815  0.3904 -0.9373  0.1036
   55CHL1    H6 6486   0.257   5.928   9.886 -2.0187 -2.5879  0.3700
   55CHL1    C7 6487   0.248   5.863   9.668  0.3041  0.0637 -0.5655
   55CHL1   H7A 6488   0.138   5.869   9.684  0.4157  0.7265  0.0118
   55CHL1   H7B 6489   0.281   5.963   9.632 -1.0494  0.4805 -0.6979
   55CHL1    C8 6490   0.303   5.751   9.580  0.0386  0.6282  0.4289
   55CHL1    H8 6491   0.240   5.661   9.592  2.0362 -0.8323  0.2387
   55CHL1   C14 6492   0.287   5.793   9.436 -0.7297  0.0797  0.7663
   55CHL1   H14 6493   0.353   5.878   9.407 -0.4905 -1.1786 -2.5631
   55CHL1   C15 6494   0.150   5.853   9.400 -0.2155 -0.5084 -0.4885
   55CHL1  H15A 6495   0.074   5.788   9.448 -2.0718  0.0587 -2.5641
   55CHL1  H15B 6496   0.153   5.959   9.434  0.8598 -0.3070 -1.2038
   55CHL1   C16 6497   0.155   5.841   9.245  0.2288 -0.0099 -0.3326
   55CHL1  H16A 6498   0.058   5.797   9.216 -0.1358  1.4332 -1.3414
   55CHL1  H16B 6499   0.163   5.942   9.199  0.9511 -0.1478 -0.5308
   55CHL1   C17 6500   0.282   5.758   9.206 -0.0386  0.0577 -0.0696
   55CHL1   H17 6501   0.362   5.827   9.173 -0.4813 -0.2843 -1.9723
   55CHL1   C13 6502   0.323   5.682   9.333  0.2944 -0.2564  0.0299
   55CHL1   C18 6503   0.237   5.558   9.361 -0.2908  0.1684 -0.1868
   55CHL1  H18A 6504   0.128   5.579   9.363 -0.0579  1.3973  0.0384
   55CHL1  H18B 6505   0.264   5.466   9.304  0.8516  0.2019  0.2859
   55CHL1  H18C 6506   0.238   5.525   9.467  0.7370  0.2116 -0.1759
   55CHL1   C12 6507   0.481   5.648   9.351 -0.3308  0.0605 -0.0879
   55CHL1  H12A 6508   0.516   5.566   9.286  0.0900 -0.1365  0.3850
   55CHL1  H12B 6509   0.538   5.740   9.322 -0.9646  0.2366 -0.7776
   55CHL1   C11 6510   0.505   5.613   9.506  0.1422 -0.9564 -0.2763
   55CHL1  H11A 6511   0.468   5.509   9.515  0.4144 -1.2226 -1.9743
   55CHL1  H11B 6512   0.616   5.607   9.503  0.2439  0.9418 -0.7838
   55CHL1    C9 6513   0.443   5.710   9.609 -0.6240 -0.3052 -0.5077
   55CHL1    H9 6514   0.496   5.805   9.584  0.6168 -0.1025  2.6113
   55CHL1   C10 6515   0.478   5.688   9.759  0.0309 -0.4334  0.3942
   55CHL1   C19 6516   0.442   5.544   9.784  0.4013  0.0670 -0.2159
   55CHL1  H19A 6517   0.458   5.518   9.891 -3.6151 -2.4847 -0.1408
   55CHL1  H19B 6518   0.338   5.524   9.752 -1.1727  2.8561  2.7989
   55CHL1  H19C 6519   0.502   5.471   9.724 -0.2120  0.8623 -1.8224
   55CHL1    C1 6520   0.631   5.717   9.778 -0.1296  0.0073  0.2756
   55CHL1   H1A 6521   0.678   5.649   9.704  0.8355  1.8280 -0.8245
   55CHL1   H1B 6522   0.657   5.820   9.746 -0.4571 -0.1539 -0.5164
   55CHL1    C2 6523   0.685   5.700   9.918 -0.1225 -0.2749 -0.4289
   55CHL1   H2A 6524   0.791   5.734   9.923  0.3043 -1.3988 -1.6014
   55CHL1   H2B 6525   0.685   5.591   9.937 -0.2183 -0.1431  0.3240
   55CHL1   C20 6526   0.258   5.679   9.081 -0.1656  0.0869 -0.1237
   55CHL1   H20 6527   0.180   5.601   9.098 -0.6007  0.7584  1.0587
   55CHL1   C21 6528   0.392   5.609   9.044 -0.1993 -0.2369  0.3052
   55CHL1  H21A 6529   0.488   5.663   9.060 -0.6042  1.4309 -2.5200
   55CHL1  H21B 6530   0.387   5.571   8.940 -1.0775  0.9186 -0.0747
   55CHL1  H21C 6531   0.401   5.507   9.088  1.1883  0.5162  1.7959
   55CHL1   C22 6532   0.204   5.758   8.963  0.2223  0.1219 -0.0039
   55CHL1  H22A 6533   0.116   5.811   9.005  1.7815  0.9412  2.3020
   55CHL1  H22B 6534   0.271   5.840   8.929  0.5752  0.9790  2.6801
   55CHL1   C23 6535   0.158   5.680   8.841  0.4163  1.2830 -0.4696
   55CHL1  H23A 6536   0.237   5.607   8.813 -0.7625 -1.0007  2.0177
   55CHL1  H23B 6537   0.068   5.619   8.862 -1.3819  2.5132 -4.1477
   55CHL1   C24 6538   0.142   5.777   8.718  0.4887  0.2935 -0.1045
   55CHL1  H24A 6539   0.058   5.843   8.749 -1.2585 -2.3337  0.8788
   55CHL1  H24B 6540   0.230   5.843   8.700  1.1982 -0.5755  0.1492
   55CHL1   C25 6541   0.084   5.713   8.587 -0.1236  0.2134  0.6255
   55CHL1   H25 6542  -0.003   5.652   8.619 -0.0262  0.7107  1.8960
   55CHL1   C26 6543   0.047   5.813   8.482 -0.4976 -0.0815  0.1036
   55CHL1  H26A 6544   0.040   5.776   8.377 -0.6822 -0.4642  0.2500
   55CHL1  H26B 6545  -0.046   5.865   8.512 -1.2144 -1.7196  0.8038
   55CHL1  H26C 6546   0.125   5.891   8.476 -1.5173  0.9190 -0.3997
   55CHL1   C27 6547   0.181   5.615   8.520 -1.1011  0.0191  0.1099
   55CHL1  H27A 6548   0.278   5.670   8.523 -1.2565  0.6575 -3.9406
   55CHL1  H27B 6549   0.194   5.521   8.577  0.2976  0.3571  0.3504
   55CHL1  H27C 6550   0.154   5.579   8.418 -1.3480 -0.8813  0.4899
   56CHL1    C3 6551   5.057   3.930   9.977 -0.0294  0.3253 -0.4948
   56CHL1    H3 6552   5.110   3.840  10.014  0.4614 -0.2935 -2.6279
   56CHL1    O3 6553   4.997   4.001  10.086 -0.2511 -0.3562 -0.1192
   56CHL1   H3' 6554   4.953   3.931  10.134 -0.9921 -0.1114 -0.4299
   56CHL1    C4 6555   5.159   4.026   9.911 -0.2593 -0.6529 -1.0732
   56CHL1   H4A 6556   5.118   4.126   9.885  0.6553 -0.2768 -1.0897
   56CHL1   H4B 6557   5.231   4.059   9.989 -1.4975 -0.7375  0.1321
   56CHL1    C5 6558   5.217   3.974   9.784  0.0214 -0.0015  0.3351
   56CHL1    C6 6559   5.352   3.958   9.770  0.6068 -0.0392  0.0885
   56CHL1    H6 6560   5.424   3.987   9.848  1.2462  2.0230 -1.2397
   56CHL1    C7 6561   5.414   3.903   9.648 -0.9185 -0.0215 -0.5786
   56CHL1   H7A 6562   5.501   3.970   9.629 -1.1672  0.4423 -0.1119
   56CHL1   H7B 6563   5.463   3.803   9.648 -1.1191 -0.1238 -1.6911
   56CHL1    C8 6564   5.319   3.914   9.531 -0.1555 -0.3140 -0.1012
   56CHL1    H8 6565   5.307   4.019   9.496 -0.2211  0.1458  1.2696
   56CHL1   C14 6566   5.388   3.844   9.416  0.4324  0.6346  0.0245
   56CHL1   H14 6567   5.404   3.740   9.452  1.6136  0.5019 -0.8442
   56CHL1   C15 6568   5.529   3.886   9.366 -0.7390 -0.0356 -0.1368
   56CHL1  H15A 6569   5.520   3.996   9.375  1.1022  0.1932 -0.7388
   56CHL1  H15B 6570   5.606   3.852   9.439  0.9793  2.5416 -0.6818
   56CHL1   C16 6571   5.532   3.833   9.225  0.1669  0.2446 -0.7808
   56CHL1  H16A 6572   5.548   3.921   9.159 -0.7249  1.0883  0.1178
   56CHL1  H16B 6573   5.615   3.763   9.200 -1.3844 -2.6693  1.9759
   56CHL1   C17 6574   5.396   3.768   9.193  0.3015  0.2564 -0.1286
   56CHL1   H17 6575   5.392   3.663   9.228 -2.6262  0.1963 -0.5589
   56CHL1   C13 6576   5.300   3.836   9.294  0.1349 -0.6190  1.1356
   56CHL1   C18 6577   5.268   3.979   9.238 -0.3535  0.2030  0.4521
   56CHL1  H18A 6578   5.208   4.031   9.316  0.2676  0.0197  1.0595
   56CHL1  H18B 6579   5.361   4.040   9.233  1.4559 -2.2683  2.5814
   56CHL1  H18C 6580   5.212   3.993   9.143  3.4024  0.9345 -1.7670
   56CHL1   C12 6581   5.174   3.753   9.325 -0.5471 -0.0128  0.2892
   56CHL1  H12A 6582   5.111   3.742   9.234  2.2950 -0.0921 -1.7223
   56CHL1  H12B 6583   5.213   3.655   9.359  0.6396 -0.7615 -3.0447
   56CHL1   C11 6584   5.095   3.820   9.447 -0.1467 -0.2373  0.2486
   56CHL1  H11A 6585   5.036   3.907   9.410 -0.7331 -0.7290  0.0021
   56CHL1  H11B 6586   5.016   3.750   9.483 -0.7547  0.0505 -0.4880
   56CHL1    C9 6587   5.184   3.852   9.568 -0.4829  0.1412  0.3992
   56CHL1    H9 6588   5.197   3.751   9.612 -0.2411  0.0428  0.1059
   56CHL1   C10 6589   5.107   3.928   9.680 -0.2112  0.0733 -0.3050
   56CHL1   C19 6590   5.024   4.049   9.619  0.3823  0.3281  0.1301
   56CHL1  H19A 6591   4.999   4.114   9.705 -0.3283  0.2880 -0.0473
   56CHL1  H19B 6592   5.080   4.112   9.547  0.7860  1.1831  1.1921
   56CHL1  H19C 6593   4.939   4.007   9.561 -0.6051 -0.4926  2.1026
   56CHL1    C1 6594   5.018   3.819   9.748  0.4099 -0.0312 -0.6861
   56CHL1   H1A 6595   4.937   3.799   9.674 -1.0901 -0.1906  0.9658
   56CHL1   H1B 6596   5.067   3.722   9.772  0.0584 -0.3639 -1.2896
   56CHL1    C2 6597   4.949   3.880   9.874  0.1071  0.1345  0.1178
   56CHL1   H2A 6598   4.889   3.810   9.934  0.3771  1.5407  2.0751
   56CHL1   H2B 6599   4.870   3.955   9.850 -0.2354 -0.0149  0.7838
   56CHL1   C20 6600   5.345   3.778   9.055  0.0347  0.6295  0.7565
   56CHL1   H20 6601   5.235   3.788   9.043 -0.0441 -1.6163 -0.6102
   56CHL1   C21 6602   5.375   3.636   9.000  0.3591 -0.2528  0.0413
   56CHL1  H21A 6603   5.483   3.613   9.009  0.8880  2.1840  0.1842
   56CHL1  H21B 6604   5.335   3.635   8.897 -0.9477  3.3266  0.4343
   56CHL1  H21C 6605   5.321   3.559   9.060  0.0217 -1.3410 -1.6335
   56CHL1   C22 6606   5.409   3.884   8.954  0.2104  0.0437 -0.1773
   56CHL1  H22A 6607   5.427   3.983   9.000  1.8479  1.1605 -3.1321
   56CHL1  H22B 6608   5.505   3.837   8.923  0.2782 -1.7341  2.5268
   56CHL1   C23 6609   5.319   3.904   8.832  0.4543 -0.2531 -0.5718
   56CHL1  H23A 6610   5.305   3.804   8.787  0.4688 -0.0912 -0.9385
   56CHL1  H23B 6611   5.222   3.952   8.857  1.9724  2.2614  0.6929
   56CHL1   C24 6612   5.396   3.989   8.719  0.6484 -0.3483 -0.8923
   56CHL1  H24A 6613   5.441   4.080   8.764  2.4393 -1.2654 -0.7886
   56CHL1  H24B 6614   5.482   3.925   8.690  0.8968  0.3381 -1.6794
   56CHL1   C25 6615   5.294   4.025   8.609  0.4556 -0.5401  0.1374
   56CHL1   H25 6616   5.203   4.064   8.660  0.8268 -0.4484  0.7357
   56CHL1   C26 6617   5.359   4.130   8.510 -0.0705 -0.2868  0.4618
   56CHL1  H26A 6618   5.292   4.140   8.422  0.0571 -0.2001  0.3756
   56CHL1  H26B 6619   5.369   4.233   8.551  0.1274  1.0929 -2.9201
   56CHL1  H26C 6620   5.458   4.092   8.480  0.0357  0.5002 -0.1885
   56CHL1   C27 6621   5.267   3.900   8.529 -0.2417 -0.7602  0.1882
   56CHL1  H27A 6622   5.362   3.849   8.505  0.6750  0.4191  1.2068
   56CHL1  H27B 6623   5.193   3.833   8.578  0.5328 -2.1182 -0.4825
   56CHL1  H27C 6624   5.224   3.928   8.430  4.2627  0.2929 -1.5785
   57CHL1    C3 6625   1.263   0.375  10.281 -0.5723 -0.0981 -0.5442
   57CHL1    H3 6626   1.204   0.448  10.221 -0.2921  0.6143  0.0383
   57CHL1    O3 6627   1.251   0.401  10.422 -0.3209  0.3409  0.9417
   57CHL1   H3' 6628   1.340   0.406  10.458  0.3700 -1.3104 -0.4353
   57CHL1    C4 6629   1.196   0.232  10.260 -0.3877  0.3729 -0.2435
   57CHL1   H4A 6630   1.249   0.163  10.329 -0.5625  1.9950  1.5646
   57CHL1   H4B 6631   1.094   0.235  10.303  0.7417 -0.4650  2.6001
   57CHL1    C5 6632   1.196   0.187  10.114 -0.5519 -0.8767  0.0298
   57CHL1    C6 6633   1.082   0.149  10.055  0.6129 -0.0191 -0.3587
   57CHL1    H6 6634   0.988   0.156  10.112  0.1824 -1.1462 -0.9202
   57CHL1    C7 6635   1.081   0.106   9.909  0.0448 -0.2712 -0.1011
   57CHL1   H7A 6636   1.021   0.015   9.886  1.7804 -0.4436 -4.6738
   57CHL1   H7B 6637   1.027   0.194   9.868 -2.4269 -1.2291  1.0378
   57CHL1    C8 6638   1.219   0.087   9.840 -0.0976 -0.0616  0.0821
   57CHL1    H8 6639   1.258  -0.015   9.861 -2.9214 -1.2223 -0.1219
   57CHL1   C14 6640   1.194   0.104   9.694 -0.0355  0.2979  0.3098
   57CHL1   H14 6641   1.169   0.211   9.675  0.8291  0.7231  1.5002
   57CHL1   C15 6642   1.082   0.028   9.625 -0.1007  0.1868  0.2282
   57CHL1  H15A 6643   1.088  -0.076   9.663  1.4859  0.0918 -0.2415
   57CHL1  H15B 6644   0.980   0.070   9.638 -0.0582  0.2118  0.4896
   57CHL1   C16 6645   1.115   0.032   9.478  0.2889 -0.8744 -0.1404
   57CHL1  H16A 6646   1.111  -0.067   9.428  2.6176 -0.1662 -1.8185
   57CHL1  H16B 6647   1.046   0.098   9.421 -0.4242 -0.3352  1.3027
   57CHL1   C17 6648   1.248   0.103   9.466 -0.2275 -0.5947  0.1776
   57CHL1   H17 6649   1.230   0.212   9.457 -2.1032 -1.0197 -2.1247
   57CHL1   C13 6650   1.318   0.084   9.607  0.4317 -0.1904  0.2833
   57CHL1   C18 6651   1.363  -0.064   9.620  0.9872 -0.3722  0.8747
   57CHL1  H18A 6652   1.419  -0.086   9.713  0.8276 -3.4549  0.3104
   57CHL1  H18B 6653   1.279  -0.136   9.612 -1.5107  2.6813 -1.8499
   57CHL1  H18C 6654   1.439  -0.075   9.539  0.3142 -2.6393  0.5268
   57CHL1   C12 6655   1.430   0.178   9.653  0.1715  0.2899 -0.9762
   57CHL1  H12A 6656   1.529   0.153   9.610  1.1692  0.7366  0.9953
   57CHL1  H12B 6657   1.397   0.283   9.641 -0.0842  0.4545  0.9322
   57CHL1   C11 6658   1.454   0.178   9.804  0.1394 -0.0141  0.1403
   57CHL1  H11A 6659   1.502   0.080   9.827  0.4777  0.1084 -0.0379
   57CHL1  H11B 6660   1.525   0.255   9.840 -1.3988  0.1244  3.0478
   57CHL1    C9 6661   1.320   0.191   9.889 -0.0202  0.3374 -0.5061
   57CHL1    H9 6662   1.279   0.290   9.860  1.6135  0.6672 -1.7741
   57CHL1   C10 6663   1.334   0.195  10.044 -0.2054  0.5275 -0.8098
   57CHL1   C19 6664   1.424   0.076  10.099  0.6310 -0.1487  0.5473
   57CHL1  H19A 6665   1.387  -0.020  10.058 -0.5924  0.5102  0.0758
   57CHL1  H19B 6666   1.531   0.092  10.073  0.9214  0.5059  2.0545
   57CHL1  H19C 6667   1.422   0.082  10.210  2.8943 -0.2878  0.6283
   57CHL1    C1 6668   1.403   0.336  10.084  0.6569  0.6160  0.2532
   57CHL1   H1A 6669   1.503   0.322  10.038  0.6309 -0.7600  0.6051
   57CHL1   H1B 6670   1.348   0.415  10.028  0.4929  0.1405 -0.2675
   57CHL1    C2 6671   1.407   0.374  10.233 -0.0156 -0.4105  0.1746
   57CHL1   H2A 6672   1.459   0.471  10.252 -0.5195 -0.1769  0.3602
   57CHL1   H2B 6673   1.457   0.297  10.296  0.5132 -0.8466 -0.7609
   57CHL1   C20 6674   1.319   0.053   9.338 -0.4742  0.6657 -0.7035
   57CHL1   H20 6675   1.335  -0.055   9.356 -1.8904  0.1597 -2.3822
   57CHL1   C21 6676   1.457   0.118   9.316  0.0632  0.4676  0.1546
   57CHL1  H21A 6677   1.461   0.229   9.307 -1.7138  0.7711  2.5753
   57CHL1  H21B 6678   1.497   0.062   9.229 -0.1200  1.1278 -0.3572
   57CHL1  H21C 6679   1.523   0.087   9.400  2.1713  0.2426 -1.5400
   57CHL1   C22 6680   1.234   0.079   9.206 -0.0330  0.7964 -0.6133
   57CHL1  H22A 6681   1.132   0.107   9.238 -0.0719  0.8436 -0.7796
   57CHL1  H22B 6682   1.280   0.160   9.145  1.4276 -1.2546 -2.3059
   57CHL1   C23 6683   1.232  -0.045   9.119 -0.3644  0.0618  0.1607
   57CHL1  H23A 6684   1.338  -0.067   9.094 -0.8587 -2.5566  0.1861
   57CHL1  H23B 6685   1.191  -0.133   9.174 -1.0943  0.5248  0.3682
   57CHL1   C24 6686   1.159  -0.033   8.985  0.3013  0.1511 -0.5429
   57CHL1  H24A 6687   1.197   0.060   8.939  1.5038  0.0175  0.1526
   57CHL1  H24B 6688   1.192  -0.115   8.917  0.9133  0.3241 -0.4577
   57CHL1   C25 6689   1.010  -0.040   8.996  0.5645 -0.2718  0.1059
   57CHL1   H25 6690   0.973   0.028   9.077 -0.3515  0.7493 -1.1379
   57CHL1   C26 6691   0.944   0.005   8.866 -0.2817  0.6718 -0.0562
   57CHL1  H26A 6692   0.834  -0.012   8.866 -0.2792  0.6547 -0.5678
   57CHL1  H26B 6693   0.962   0.115   8.855 -1.2838  0.7521 -1.0155
   57CHL1  H26C 6694   0.992  -0.051   8.783 -1.8042 -0.8922  0.1008
   57CHL1   C27 6695   0.964  -0.181   9.026  0.0508  0.2131  0.5307
   57CHL1  H27A 6696   0.853  -0.185   9.031 -0.0633  0.5375 -1.4046
   57CHL1  H27B 6697   1.000  -0.251   8.948  0.9627  1.3127 -0.0406
   57CHL1  H27C 6698   0.995  -0.230   9.121 -0.0678 -1.6300 -0.3640
   58CHL1    C3 6699   3.751   4.806  10.206  0.9866 -0.2008 -0.0430
   58CHL1    H3 6700   3.699   4.900  10.235  2.7548  0.4780  1.0272
   58CHL1    O3 6701   3.786   4.723  10.321  0.0023 -0.0705 -0.1594
   58CHL1   H3' 6702   3.840   4.778  10.378 -0.1391  1.3744 -1.3906
   58CHL1    C4 6703   3.656   4.725  10.121  0.3981 -0.1412  0.1534
   58CHL1   H4A 6704   3.679   4.617  10.129  0.8194 -0.1355 -0.9166
   58CHL1   H4B 6705   3.560   4.744  10.173  0.6653 -0.9185  0.9426
   58CHL1    C5 6706   3.648   4.761   9.970 -0.9032 -0.3784  0.2696
   58CHL1    C6 6707   3.532   4.783   9.913  0.4117  0.0129 -0.0361
   58CHL1    H6 6708   3.454   4.749   9.982  1.7299 -1.6350  0.6808
   58CHL1    C7 6709   3.502   4.818   9.768 -0.0810  0.0782  0.5826
   58CHL1   H7A 6710   3.413   4.773   9.720 -0.7515  1.7975  0.1495
   58CHL1   H7B 6711   3.482   4.928   9.761  3.1470  0.7515  1.1820
   58CHL1    C8 6712   3.633   4.792   9.684  0.6214  0.9354 -0.1948
   58CHL1    H8 6713   3.645   4.684   9.665  0.8058  0.7231  1.0572
   58CHL1   C14 6714   3.627   4.862   9.549 -0.4843 -0.2822 -0.0463
   58CHL1   H14 6715   3.613   4.970   9.569  1.1103  0.2546 -1.7132
   58CHL1   C15 6716   3.505   4.830   9.460 -0.9261  0.0457  0.7856
   58CHL1  H15A 6717   3.468   4.725   9.459  1.2000 -0.7241  0.9233
   58CHL1  H15B 6718   3.423   4.901   9.486 -0.6292  1.4605 -1.9413
   58CHL1   C16 6719   3.558   4.867   9.316 -0.3598  0.8235 -0.4378
   58CHL1  H16A 6720   3.562   4.779   9.248  2.7821 -1.5561  2.6973
   58CHL1  H16B 6721   3.483   4.940   9.278 -1.2260  0.3175  0.2751
   58CHL1   C17 6722   3.702   4.928   9.329 -0.4142 -0.8374  0.7254
   58CHL1   H17 6723   3.692   5.037   9.349  2.7314 -0.7668  2.3251
   58CHL1   C13 6724   3.752   4.860   9.457  0.5017 -0.1391 -0.7854
   58CHL1   C18 6725   3.784   4.717   9.420  0.5964 -0.0493  0.0959
   58CHL1  H18A 6726   3.690   4.674   9.380 -0.5410  0.6772  1.9079
   58CHL1  H18B 6727   3.860   4.705   9.340  0.3558 -0.7233 -0.0360
   58CHL1  H18C 6728   3.812   4.661   9.512  1.2310  1.5196  0.8792
   58CHL1   C12 6729   3.868   4.927   9.536 -0.2302 -0.7661  0.3897
   58CHL1  H12A 6730   3.969   4.930   9.490 -0.7730  0.7068 -0.7511
   58CHL1  H12B 6731   3.855   5.035   9.554 -3.6720 -0.6100 -2.4172
   58CHL1   C11 6732   3.885   4.860   9.671 -1.0274 -0.0810  0.0538
   58CHL1  H11A 6733   3.928   4.759   9.655  3.2870  1.3364  1.7955
   58CHL1  H11B 6734   3.946   4.921   9.741 -1.4940  0.3395  0.1000
   58CHL1    C9 6735   3.756   4.847   9.756 -0.4456  0.0756 -0.1884
   58CHL1    H9 6736   3.723   4.952   9.773 -0.2537 -0.0095  0.7492
   58CHL1   C10 6737   3.776   4.793   9.901 -0.2671  0.1196 -0.2840
   58CHL1   C19 6738   3.856   4.663   9.873 -0.5614 -0.7120 -0.4182
   58CHL1  H19A 6739   3.871   4.594   9.959 -0.1261 -0.0514  0.0464
   58CHL1  H19B 6740   3.809   4.602   9.794  0.5444 -1.6818 -0.3329
   58CHL1  H19C 6741   3.964   4.685   9.857 -0.4981 -1.4078 -0.9084
   58CHL1    C1 6742   3.859   4.889   9.986  0.5592 -0.2784  0.8534
   58CHL1   H1A 6743   3.965   4.886   9.952  0.7150 -2.5229  1.4564
   58CHL1   H1B 6744   3.804   4.985   9.983  0.9845 -0.0284  0.9946
   58CHL1    C2 6745   3.882   4.833  10.135  0.0819 -0.3760  0.5741
   58CHL1   H2A 6746   3.944   4.906  10.192 -0.6141 -0.9008  2.0213
   58CHL1   H2B 6747   3.951   4.746  10.127 -0.2793 -0.6157  0.0815
   58CHL1   C20 6748   3.777   4.913   9.190 -0.5112 -0.7890 -0.3842
   58CHL1   H20 6749   3.799   4.805   9.174 -1.0762 -0.9587 -0.0255
   58CHL1   C21 6750   3.913   4.976   9.209  0.2186  0.5667  0.2292
   58CHL1  H21A 6751   3.906   5.087   9.215 -0.0516  0.8000 -3.2202
   58CHL1  H21B 6752   3.970   4.945   9.118 -0.7131 -0.1613 -0.1158
   58CHL1  H21C 6753   3.967   4.936   9.297  3.1695  3.2731 -0.2623
   58CHL1   C22 6754   3.695   4.963   9.068  0.4380 -0.0776 -0.0141
   58CHL1  H22A 6755   3.599   4.909   9.052  0.1828  0.5920 -0.7733
   58CHL1  H22B 6756   3.670   5.068   9.094 -1.7333 -0.7719  0.8127
   58CHL1   C23 6757   3.775   4.943   8.942 -0.2823  0.1824  1.2809
   58CHL1  H23A 6758   3.877   4.986   8.950  0.2122 -0.4850 -1.0111
   58CHL1  H23B 6759   3.799   4.835   8.952  1.1706  0.1655 -1.8692
   58CHL1   C24 6760   3.702   4.984   8.809  0.0812  0.2114 -0.6354
   58CHL1  H24A 6761   3.599   4.943   8.812  0.0105  0.4210 -0.2621
   58CHL1  H24B 6762   3.685   5.093   8.818 -0.1375  0.1258 -0.0272
   58CHL1   C25 6763   3.768   4.950   8.678 -0.4108  0.0753  0.1139
   58CHL1   H25 6764   3.704   5.002   8.604 -0.7981 -0.7393 -0.1320
   58CHL1   C26 6765   3.908   5.016   8.673 -0.9218 -0.4656 -0.1962
   58CHL1  H26A 6766   3.919   5.098   8.747  1.6116 -1.6531  0.7759
   58CHL1  H26B 6767   3.990   4.944   8.693 -0.8258 -0.1945  0.3942
   58CHL1  H26C 6768   3.929   5.073   8.580 -2.1158  0.0886 -0.1392
   58CHL1   C27 6769   3.764   4.796   8.660 -0.4240  0.4199 -0.6177
   58CHL1  H27A 6770   3.810   4.761   8.565  1.9100 -0.0035  0.6336
   58CHL1  H27B 6771   3.810   4.739   8.743  2.3133  1.8471 -1.0647
   58CHL1  H27C 6772   3.657   4.767   8.652 -0.2664 -0.3118 -0.1015
   59CHL1    C3 6773   2.800   4.225  10.378  0.1489 -0.0441  0.4143
   59CHL1    H3 6774   2.905   4.259  10.369 -0.5161  1.7655 -0.6510
   59CHL1    O3 6775   2.758   4.184  10.505 -0.2353  0.3316  0.3644
   59CHL1   H3' 6776   2.697   4.111  10.497 -0.5042  0.4086  1.5878
   59CHL1    C4 6777   2.701   4.335  10.339  0.7975 -0.7102 -0.1935
   59CHL1   H4A 6778   2.593   4.330  10.365  0.9152 -1.3697  0.1945
   59CHL1   H4B 6779   2.733   4.423  10.398  1.6268 -2.4615  2.0522
   59CHL1    C5 6780   2.722   4.381  10.200  0.2295  0.3523  0.2361
   59CHL1    C6 6781   2.744   4.513  10.169 -0.1338  0.1893 -0.9957
   59CHL1    H6 6782   2.755   4.580  10.255 -2.1735 -0.3159 -0.2902
   59CHL1    C7 6783   2.749   4.559  10.021 -0.3467 -0.3373 -0.7610
   59CHL1   H7A 6784   2.680   4.645  10.009  0.2035  0.5841  2.2294
   59CHL1   H7B 6785   2.853   4.591   9.998 -0.4744  1.3924  0.8474
   59CHL1    C8 6786   2.709   4.453   9.915  0.1454  0.0632  0.3736
   59CHL1    H8 6787   2.598   4.451   9.911  0.1727 -1.2757 -0.1485
   59CHL1   C14 6788   2.762   4.496   9.784  0.3506  0.0560 -0.5741
   59CHL1   H14 6789   2.872   4.486   9.793  0.5065  0.1212 -2.2600
   59CHL1   C15 6790   2.734   4.634   9.725  0.0607 -0.5665 -0.1320
   59CHL1  H15A 6791   2.632   4.678   9.730  1.1050  2.0224 -0.6710
   59CHL1  H15B 6792   2.798   4.706   9.780  0.3387  0.0607 -1.2730
   59CHL1   C16 6793   2.768   4.620   9.574 -0.5414 -0.0021 -0.1347
   59CHL1  H16A 6794   2.681   4.659   9.517 -1.4559  0.0095  1.2397
   59CHL1  H16B 6795   2.860   4.674   9.543 -0.9238 -0.0144 -1.3317
   59CHL1   C17 6796   2.784   4.465   9.544 -0.3293 -0.4057  0.4242
   59CHL1   H17 6797   2.892   4.441   9.559 -0.5002 -1.3580  0.1480
   59CHL1   C13 6798   2.713   4.405   9.666 -0.2348 -0.1128  0.0140
   59CHL1   C18 6799   2.563   4.416   9.632  1.0481 -0.2374 -0.2766
   59CHL1  H18A 6800   2.539   4.522   9.606 -0.7033 -0.5466  0.0033
   59CHL1  H18B 6801   2.524   4.344   9.557 -0.9928  1.8463 -1.2827
   59CHL1  H18C 6802   2.506   4.400   9.726  0.8580  0.8267 -0.1921
   59CHL1   C12 6803   2.755   4.263   9.699 -0.0176 -0.3541 -0.6789
   59CHL1  H12A 6804   2.731   4.191   9.618  0.9848 -0.6922 -0.6842
   59CHL1  H12B 6805   2.866   4.271   9.703  0.0775 -1.2286 -1.3868
   59CHL1   C11 6806   2.703   4.213   9.835  0.4055  0.4795 -0.4073
   59CHL1  H11A 6807   2.593   4.221   9.837  0.1310 -2.0990  4.2472
   59CHL1  H11B 6808   2.738   4.109   9.852  1.3886  0.9067  0.2347
   59CHL1    C9 6809   2.753   4.310   9.949 -0.3582 -0.1644 -0.3390
   59CHL1    H9 6810   2.864   4.320   9.949  0.0674 -4.1423  0.0698
   59CHL1   C10 6811   2.707   4.265  10.100 -0.5968 -0.3079  0.1021
   59CHL1   C19 6812   2.560   4.230  10.096  0.8899  0.4580  0.1802
   59CHL1  H19A 6813   2.522   4.215  10.200 -2.6760 -0.9734 -1.2253
   59CHL1  H19B 6814   2.481   4.293  10.049  0.4700 -1.1264 -1.2995
   59CHL1  H19C 6815   2.556   4.137  10.035  3.1837 -0.1474  0.9215
   59CHL1    C1 6816   2.793   4.144  10.147  0.2566 -0.0279  0.0245
   59CHL1   H1A 6817   2.778   4.059  10.077 -0.7962 -1.0548  1.4758
   59CHL1   H1B 6818   2.900   4.174  10.153 -0.0536  1.3081 -0.8511
   59CHL1    C2 6819   2.777   4.100  10.293  0.2759  0.1241  1.1209
   59CHL1   H2A 6820   2.847   4.021  10.329  2.0699 -0.2649 -2.8876
   59CHL1   H2B 6821   2.673   4.063  10.296  0.0066  0.9488  2.0933
   59CHL1   C20 6822   2.751   4.425   9.402  0.5945  0.3209  0.5451
   59CHL1   H20 6823   2.643   4.439   9.378  1.0184  0.7133 -1.2500
   59CHL1   C21 6824   2.786   4.276   9.368 -0.2095 -0.0620 -0.2794
   59CHL1  H21A 6825   2.802   4.264   9.258 -0.2509  1.9818 -0.5391
   59CHL1  H21B 6826   2.711   4.206   9.411 -0.6507  0.0697 -0.8208
   59CHL1  H21C 6827   2.880   4.241   9.414 -0.2184  1.9802  1.3613
   59CHL1   C22 6828   2.825   4.517   9.311  0.6184  0.2820 -0.1632
   59CHL1  H22A 6829   2.795   4.621   9.334  2.2374  0.2456  2.2726
   59CHL1  H22B 6830   2.935   4.504   9.324  0.5694  1.3966  1.4257
   59CHL1   C23 6831   2.807   4.489   9.156 -0.3861  0.1243 -0.9728
   59CHL1  H23A 6832   2.867   4.401   9.126  1.5874  1.3365 -0.7243
   59CHL1  H23B 6833   2.698   4.474   9.139 -0.2278 -0.0987 -1.7917
   59CHL1   C24 6834   2.854   4.613   9.069 -0.0378 -0.2713 -0.5040
   59CHL1  H24A 6835   2.807   4.703   9.114 -1.4704 -0.8124 -0.8991
   59CHL1  H24B 6836   2.964   4.626   9.057  0.1029  1.2718  1.9211
   59CHL1   C25 6837   2.815   4.594   8.920  0.0228 -0.3902 -0.1085
   59CHL1   H25 6838   2.711   4.554   8.917  0.3385 -1.3210  0.8386
   59CHL1   C26 6839   2.811   4.740   8.855  0.0857 -0.5454 -0.3624
   59CHL1  H26A 6840   2.772   4.738   8.751 -0.7603 -1.1039 -0.0379
   59CHL1  H26B 6841   2.751   4.812   8.913 -3.4032 -3.1578 -0.5846
   59CHL1  H26C 6842   2.917   4.773   8.849 -0.0677 -0.0819 -0.5420
   59CHL1   C27 6843   2.899   4.498   8.841 -0.3540  0.4200 -0.5377
   59CHL1  H27A 6844   3.009   4.499   8.855 -0.3556 -3.7623  0.7305
   59CHL1  H27B 6845   2.890   4.391   8.871 -0.5939  0.6529  0.2489
   59CHL1  H27C 6846   2.867   4.505   8.735 -0.1792  0.2616 -0.5987
   60CHL1    C3 6847   2.061   3.060  10.178  0.2873 -0.7336  0.9071
   60CHL1    H3 6848   1.987   3.134  10.143  1.0450 -1.2190 -1.8160
   60CHL1    O3 6849   2.071   3.045  10.315 -0.4134 -0.2445 -0.2613
   60CHL1   H3' 6850   2.149   2.992  10.332  0.8562  1.4501 -0.6793
   60CHL1    C4 6851   2.037   2.921  10.113  0.8501  0.8953  0.5190
   60CHL1   H4A 6852   2.116   2.855  10.152  2.5790  1.8610 -1.2661
   60CHL1   H4B 6853   1.938   2.878  10.142  0.9194  0.8662  0.7163
   60CHL1    C5 6854   2.045   2.919   9.962 -0.3097 -0.3780 -0.6430
   60CHL1    C6 6855   1.938   2.882   9.889 -0.2229 -0.0485  0.2739
   60CHL1    H6 6856   1.859   2.826   9.942  0.9028 -1.5053  0.4596
   60CHL1    C7 6857   1.937   2.885   9.734 -0.7314  0.0543 -0.0334
   60CHL1   H7A 6858   1.916   2.781   9.699 -2.2846  0.0938  0.7038
   60CHL1   H7B 6859   1.857   2.949   9.691 -0.8503  0.1634  0.3462
   60CHL1    C8 6860   2.076   2.914   9.675  0.1492  0.3631 -0.1702
   60CHL1    H8 6861   2.152   2.833   9.683  1.1778  1.3421  0.1065
   60CHL1   C14 6862   2.064   2.949   9.525 -0.0615  0.2944  0.1549
   60CHL1   H14 6863   2.009   3.046   9.529  0.0011  0.2760  1.9018
   60CHL1   C15 6864   1.983   2.871   9.428 -0.1272 -0.4502  0.6834
   60CHL1  H15A 6865   2.003   2.763   9.445  2.0201 -0.5263 -1.9269
   60CHL1  H15B 6866   1.874   2.881   9.450 -0.7377 -3.1254 -0.9320
   60CHL1   C16 6867   2.043   2.895   9.291  0.0697  0.3027 -0.1028
   60CHL1  H16A 6868   2.089   2.803   9.248  1.2028  0.1853  1.3213
   60CHL1  H16B 6869   1.961   2.929   9.225  0.1578  0.4270 -0.1486
   60CHL1   C17 6870   2.144   3.009   9.311  0.0809  0.9813 -0.7950
   60CHL1   H17 6871   2.083   3.101   9.304  0.9657  1.5398 -1.2736
   60CHL1   C13 6872   2.199   2.984   9.453 -0.2654 -0.1779  0.0894
   60CHL1   C18 6873   2.303   2.871   9.448 -0.0416 -0.3765 -0.8101
   60CHL1  H18A 6874   2.274   2.784   9.386 -1.8691 -0.5267  0.2336
   60CHL1  H18B 6875   2.395   2.910   9.398  1.4436 -2.0616  0.5325
   60CHL1  H18C 6876   2.330   2.832   9.548  0.8390 -2.7132 -1.9274
   60CHL1   C12 6877   2.250   3.111   9.532  0.5281 -0.2574  0.4618
   60CHL1  H12A 6878   2.341   3.156   9.487  0.2208 -0.6840 -0.6024
   60CHL1  H12B 6879   2.173   3.191   9.540  1.0964  0.3365 -0.0385
   60CHL1   C11 6880   2.282   3.076   9.677  0.3041 -0.1481 -0.8370
   60CHL1  H11A 6881   2.367   3.004   9.667 -0.7975 -1.3482 -1.7574
   60CHL1  H11B 6882   2.321   3.171   9.718 -0.0944  1.0664 -3.1970
   60CHL1    C9 6883   2.152   3.030   9.747 -0.2034 -0.3280 -0.0344
   60CHL1    H9 6884   2.083   3.117   9.735  0.9716  0.7599  0.9508
   60CHL1   C10 6885   2.166   2.992   9.899  0.2787  0.1648 -0.3103
   60CHL1   C19 6886   2.278   2.891   9.919 -0.2780 -0.3988  0.6987
   60CHL1  H19A 6887   2.372   2.927   9.873 -0.6396 -1.0662 -0.5939
   60CHL1  H19B 6888   2.297   2.860  10.024  0.0033  1.9193  1.3504
   60CHL1  H19C 6889   2.251   2.797   9.865 -2.2344 -0.3825  1.5786
   60CHL1    C1 6890   2.203   3.121   9.977 -0.1865 -0.3144 -0.0653
   60CHL1   H1A 6891   2.310   3.145   9.960 -0.4322  1.7344  1.1141
   60CHL1   H1B 6892   2.147   3.205   9.929  0.0634 -0.5973 -0.8669
   60CHL1    C2 6893   2.191   3.110  10.127  0.2160 -0.6743 -0.0326
   60CHL1   H2A 6894   2.226   3.206  10.170  1.8083 -0.6722 -1.2650
   60CHL1   H2B 6895   2.265   3.028  10.140  1.0591 -0.3083 -2.2921
   60CHL1   C20 6896   2.245   3.026   9.198  0.2104 -0.2194  0.7456
   60CHL1   H20 6897   2.318   2.943   9.201  0.5860  0.0986  0.3551
   60CHL1   C21 6898   2.311   3.162   9.213  0.2836  0.0324 -0.1018
   60CHL1  H21A 6899   2.373   3.159   9.306  0.6287 -1.7487 -0.3780
   60CHL1  H21B 6900   2.268   3.265   9.208  1.9435  0.7599  0.0768
   60CHL1  H21C 6901   2.388   3.170   9.133  1.6178 -1.3422  1.0002
   60CHL1   C22 6902   2.179   3.017   9.060 -0.4876 -0.1050  0.0278
   60CHL1  H22A 6903   2.128   2.920   9.038 -0.6396  0.2348 -1.1505
   60CHL1  H22B 6904   2.089   3.082   9.058  1.3017  2.4100 -1.7342
   60CHL1   C23 6905   2.280   3.042   8.944  0.6112  0.7542 -0.1002
   60CHL1  H23A 6906   2.320   3.144   8.958  1.6314  0.3432  0.0350
   60CHL1  H23B 6907   2.356   2.961   8.941  0.5872  0.7691 -1.8987
   60CHL1   C24 6908   2.199   3.041   8.813  0.2295  0.0740 -0.3624
   60CHL1  H24A 6909   2.156   2.940   8.795  1.8483 -0.3885 -1.7850
   60CHL1  H24B 6910   2.118   3.117   8.812 -2.1260 -2.3526 -0.9421
   60CHL1   C25 6911   2.293   3.056   8.686  0.3145 -0.1684 -0.1398
   60CHL1   H25 6912   2.386   3.004   8.720 -1.4150 -3.3575 -0.1055
   60CHL1   C26 6913   2.243   2.974   8.568 -0.1714  0.2164 -1.2873
   60CHL1  H26A 6914   2.263   2.866   8.584 -3.5941 -0.1884  0.8666
   60CHL1  H26B 6915   2.135   3.000   8.559 -0.5509  0.6253  3.1414
   60CHL1  H26C 6916   2.296   2.996   8.473  1.2740  0.8818 -0.3374
   60CHL1   C27 6917   2.327   3.199   8.654 -0.3211  0.6012  0.0976
   60CHL1  H27A 6918   2.354   3.255   8.746  1.0794  1.0377 -0.5677
   60CHL1  H27B 6919   2.408   3.203   8.578  1.0275  2.2215  1.5755
   60CHL1  H27C 6920   2.241   3.243   8.598  0.8213 -1.2732 -3.2330
   61CHL1    C3 6921   6.296   2.730  10.136  0.3418  0.1151  0.2383
   61CHL1    H3 6922   6.317   2.621  10.129 -2.4449 -0.4476 -0.0833
   61CHL1    O3 6923   6.261   2.762  10.267  0.1323 -0.6769 -0.0417
   61CHL1   H3' 6924   6.182   2.816  10.257 -0.0305 -0.8324  0.3878
   61CHL1    C4 6925   6.434   2.790  10.096 -0.0713 -0.1076  0.2627
   61CHL1   H4A 6926   6.427   2.897  10.125  0.4961  0.3568 -1.2855
   61CHL1   H4B 6927   6.504   2.746  10.171 -0.8563 -0.1462  0.9815
   61CHL1    C5 6928   6.464   2.754   9.956  0.2505  0.2109 -0.1854
   61CHL1    C6 6929   6.583   2.702   9.916  0.3514 -0.0159  0.1518
   61CHL1    H6 6930   6.648   2.655   9.992 -2.7115 -0.9417  2.2803
   61CHL1    C7 6931   6.619   2.679   9.772 -0.2252  0.2131 -0.2280
   61CHL1   H7A 6932   6.725   2.707   9.757 -0.1358  0.0782  0.1544
   61CHL1   H7B 6933   6.606   2.572   9.746 -0.2811  1.1339 -4.2337
   61CHL1    C8 6934   6.537   2.763   9.674  0.5387  0.2751 -0.5658
   61CHL1    H8 6935   6.559   2.871   9.686 -0.0420  0.2521  0.6867
   61CHL1   C14 6936   6.573   2.734   9.531  0.2202 -0.1293  0.2355
   61CHL1   H14 6937   6.551   2.626   9.516  3.0415 -0.4747 -1.7224
   61CHL1   C15 6938   6.716   2.751   9.489  1.1191  0.2791 -0.4026
   61CHL1  H15A 6939   6.769   2.832   9.544 -0.5648  0.6544  0.6962
   61CHL1  H15B 6940   6.767   2.657   9.517  3.1762  1.9348  1.6094
   61CHL1   C16 6941   6.711   2.777   9.333 -0.4622  0.2154 -0.3317
   61CHL1  H16A 6942   6.726   2.885   9.312 -0.4568  0.4735  0.9380
   61CHL1  H16B 6943   6.788   2.727   9.270 -0.9987 -1.5140  0.3301
   61CHL1   C17 6944   6.564   2.755   9.296 -0.0692  0.3599 -0.2525
   61CHL1   H17 6945   6.549   2.645   9.288  0.1609  0.3231 -0.1900
   61CHL1   C13 6946   6.486   2.797   9.425 -0.6759  0.3143  0.0767
   61CHL1   C18 6947   6.489   2.960   9.445 -0.6017 -0.2660 -0.6048
   61CHL1  H18A 6948   6.464   2.996   9.547 -0.4915  1.1021 -1.0587
   61CHL1  H18B 6949   6.594   2.993   9.428 -1.0003  0.1639 -2.3184
   61CHL1  H18C 6950   6.430   3.014   9.368 -0.5730 -0.4628 -0.7670
   61CHL1   C12 6951   6.341   2.748   9.448  0.0144  0.7457 -0.2138
   61CHL1  H12A 6952   6.262   2.779   9.376 -0.4402 -2.8437 -1.3188
   61CHL1  H12B 6953   6.340   2.638   9.437 -1.5258  0.9021 -1.8531
   61CHL1   C11 6954   6.293   2.793   9.583 -0.3385  1.0494  0.7335
   61CHL1  H11A 6955   6.266   2.901   9.579 -0.0279  1.0722 -3.4646
   61CHL1  H11B 6956   6.208   2.727   9.607 -0.1942  0.6484  0.1490
   61CHL1    C9 6957   6.389   2.740   9.700  0.7338 -0.1695 -0.1463
   61CHL1    H9 6958   6.378   2.630   9.705 -1.5705  0.0606  0.5516
   61CHL1   C10 6959   6.352   2.786   9.842  0.8795 -0.1975 -0.6713
   61CHL1   C19 6960   6.345   2.947   9.845  0.1126 -0.1251  0.5512
   61CHL1  H19A 6961   6.347   2.981   9.950  0.3505  1.6531 -0.0084
   61CHL1  H19B 6962   6.444   2.988   9.813 -0.8668  2.6321  0.9535
   61CHL1  H19C 6963   6.256   2.985   9.790  1.2943  0.6494 -0.9032
   61CHL1    C1 6964   6.218   2.727   9.893 -0.0644 -0.0172  0.7664
   61CHL1   H1A 6965   6.129   2.748   9.830  0.9067 -2.9161 -1.6886
   61CHL1   H1B 6966   6.237   2.619   9.907  1.2298  0.0841 -0.0965
   61CHL1    C2 6967   6.179   2.771  10.046  0.6577 -0.1047  0.1599
   61CHL1   H2A 6968   6.088   2.725  10.089 -1.5753  2.6081 -1.4595
   61CHL1   H2B 6969   6.177   2.882  10.053 -1.5837 -0.0694 -0.8715
   61CHL1   C20 6970   6.521   2.817   9.158  0.4113  0.4504 -0.0447
   61CHL1   H20 6971   6.518   2.928   9.157  2.9410  0.5549  0.6560
   61CHL1   C21 6972   6.378   2.764   9.129 -0.4594 -0.3936 -0.4523
   61CHL1  H21A 6973   6.365   2.654   9.133 -1.6024 -0.2013  1.5569
   61CHL1  H21B 6974   6.339   2.800   9.031 -0.3576  1.0863  0.0463
   61CHL1  H21C 6975   6.310   2.817   9.199 -0.6595 -3.7078  1.9475
   61CHL1   C22 6976   6.609   2.782   9.032 -0.3681 -0.0943 -0.6653
   61CHL1  H22A 6977   6.571   2.837   8.943 -4.1550 -1.8416 -0.2105
   61CHL1  H22B 6978   6.708   2.831   9.049 -1.3632  1.8676 -0.4048
   61CHL1   C23 6979   6.634   2.630   9.020  0.7414 -0.5556 -0.1776
   61CHL1  H23A 6980   6.675   2.576   9.108 -0.1453  0.6957  1.0323
   61CHL1  H23B 6981   6.539   2.577   8.999  0.5478 -1.1486  2.0288
   61CHL1   C24 6982   6.740   2.607   8.905  0.0334 -0.2616  0.1974
   61CHL1  H24A 6983   6.706   2.644   8.806  0.3431  0.2434  0.2794
   61CHL1  H24B 6984   6.837   2.654   8.932 -1.2014  1.6045  1.4695
   61CHL1   C25 6985   6.767   2.451   8.897 -0.2932  0.2350  0.2139
   61CHL1   H25 6986   6.765   2.418   9.003 -0.5582 -2.6777 -0.6542
   61CHL1   C26 6987   6.656   2.382   8.814 -0.6217 -0.4843 -0.6656
   61CHL1  H26A 6988   6.559   2.408   8.862  1.4670  3.4851  1.5980
   61CHL1  H26B 6989   6.652   2.411   8.707 -0.2651 -0.5235 -0.6878
   61CHL1  H26C 6990   6.665   2.274   8.838 -0.1094 -0.2567  0.1928
   61CHL1   C27 6991   6.898   2.420   8.820 -0.1437  0.2577  0.3821
   61CHL1  H27A 6992   6.884   2.438   8.711  0.2114 -0.8779  0.1365
   61CHL1  H27B 6993   6.988   2.467   8.864  0.3388 -2.3844  2.3428
   61CHL1  H27C 6994   6.913   2.310   8.824 -1.0035  0.0445 -1.7318
   62CHL1    C3 6995   0.514   0.134  10.090  0.3368 -1.2904 -0.0850
   62CHL1    H3 6996   0.415   0.083  10.099  0.0206 -0.4665  1.0810
   62CHL1    O3 6997   0.535   0.191  10.218 -0.2457  0.3931  0.1565
   62CHL1   H3' 6998   0.503   0.281  10.211  0.1336  0.5083 -0.0828
   62CHL1    C4 6999   0.622   0.034  10.064 -0.0900  0.0458  0.0549
   62CHL1   H4A 7000   0.726   0.069  10.082  1.1923 -3.7744  0.6271
   62CHL1   H4B 7001   0.617  -0.053  10.133 -1.5877 -0.1151 -0.2246
   62CHL1    C5 7002   0.603  -0.009   9.917 -0.3223 -0.2523 -0.1633
   62CHL1    C6 7003   0.608  -0.142   9.889  0.3166  0.0627 -0.1199
   62CHL1    H6 7004   0.619  -0.216   9.969 -1.5074  0.6193  0.6747
   62CHL1    C7 7005   0.597  -0.194   9.743  0.2492  0.3130  0.4235
   62CHL1   H7A 7006   0.663  -0.282   9.728  0.1002 -0.3489  3.4462
   62CHL1   H7B 7007   0.495  -0.232   9.722  1.3056 -0.4373 -3.7465
   62CHL1    C8 7008   0.617  -0.087   9.632  0.1662 -0.3419  0.4087
   62CHL1    H8 7009   0.726  -0.070   9.615 -0.2987  0.2797 -2.1888
   62CHL1   C14 7010   0.566  -0.140   9.493 -0.0654 -0.4755 -0.1108
   62CHL1   H14 7011   0.456  -0.124   9.503 -0.1756 -0.4573 -1.3142
   62CHL1   C15 7012   0.594  -0.289   9.459 -0.7231  0.7032 -0.3252
   62CHL1  H15A 7013   0.703  -0.310   9.456 -0.6420  1.2858 -3.2140
   62CHL1  H15B 7014   0.554  -0.369   9.524  3.2381 -0.1563  1.2134
   62CHL1   C16 7015   0.550  -0.302   9.316 -0.4749  0.7651 -0.0629
   62CHL1  H16A 7016   0.613  -0.361   9.245 -0.2882  0.1142  0.6309
   62CHL1  H16B 7017   0.450  -0.350   9.309 -0.2253  0.0215  1.2730
   62CHL1   C17 7018   0.533  -0.153   9.270  0.3115  0.8733 -0.5909
   62CHL1   H17 7019   0.426  -0.129   9.289 -0.0726 -2.2524  1.5407
   62CHL1   C13 7020   0.603  -0.059   9.377  0.3860 -0.1625  0.4093
   62CHL1   C18 7021   0.762  -0.059   9.358 -0.3877  0.6267 -0.2838
   62CHL1  H18A 7022   0.807  -0.002   9.443 -1.8972  0.9668  0.3006
   62CHL1  H18B 7023   0.798  -0.164   9.356 -1.2727  0.2986  0.8326
   62CHL1  H18C 7024   0.795  -0.019   9.260 -1.0647  3.4297  0.5794
   62CHL1   C12 7025   0.543   0.086   9.407  0.3399  0.3429 -0.1616
   62CHL1  H12A 7026   0.572   0.162   9.331  0.0015  1.1379  0.4967
   62CHL1  H12B 7027   0.433   0.070   9.405  0.6696 -2.0673 -1.3865
   62CHL1   C11 7028   0.580   0.142   9.546 -0.2695 -0.0654 -0.0547
   62CHL1  H11A 7029   0.690   0.160   9.539 -0.2377  0.4824  1.5512
   62CHL1  H11B 7030   0.534   0.242   9.560 -0.8477 -0.6171  2.1139
   62CHL1    C9 7031   0.555   0.043   9.665 -0.3137  0.2591 -0.3096
   62CHL1    H9 7032   0.446   0.023   9.666 -0.3161  0.2954  1.1104
   62CHL1   C10 7033   0.593   0.098   9.810  0.1454  0.5587  0.0627
   62CHL1   C19 7034   0.726   0.168   9.799 -0.0948  0.1226 -0.1472
   62CHL1  H19A 7035   0.724   0.249   9.723 -0.9441 -0.1788 -0.4593
   62CHL1  H19B 7036   0.760   0.206   9.898 -1.9882  0.3221  0.4557
   62CHL1  H19C 7037   0.805   0.098   9.766  0.0259 -0.2444  0.9022
   62CHL1    C1 7038   0.488   0.199   9.856  0.6358  0.7393  0.5964
   62CHL1   H1A 7039   0.480   0.284   9.784 -2.3172  1.4580  1.6863
   62CHL1   H1B 7040   0.395   0.139   9.860 -0.3010  2.1316  0.2189
   62CHL1    C2 7041   0.506   0.256   9.992  0.5176  0.0702  0.9214
   62CHL1   H2A 7042   0.422   0.321  10.025  1.4023  3.3175 -2.8777
   62CHL1   H2B 7043   0.603   0.309  10.001  1.1690 -0.8659 -0.4920
   62CHL1   C20 7044   0.562  -0.149   9.120  0.6101 -0.1277  1.1938
   62CHL1   H20 7045   0.660  -0.197   9.097  1.7139  2.6510 -0.1014
   62CHL1   C21 7046   0.574   0.000   9.078  0.5948 -0.0276 -0.4888
   62CHL1  H21A 7047   0.470   0.039   9.079 -0.1375 -1.8009  4.6338
   62CHL1  H21B 7048   0.626   0.002   8.979  2.2397 -2.9216  0.2613
   62CHL1  H21C 7049   0.640   0.061   9.143 -1.5462  1.2965  0.5105
   62CHL1   C22 7050   0.459  -0.226   9.028  0.1335  0.2140  0.3354
   62CHL1  H22A 7051   0.482  -0.193   8.925  0.4253 -1.8448 -0.2787
   62CHL1  H22B 7052   0.490  -0.333   9.035  2.8695  0.8507 -1.4773
   62CHL1   C23 7053   0.309  -0.216   9.053 -0.0347 -0.3051  0.4157
   62CHL1  H23A 7054   0.289  -0.247   9.158 -0.8646  2.7160  1.1802
   62CHL1  H23B 7055   0.277  -0.110   9.043 -3.6221 -1.3608  0.1324
   62CHL1   C24 7056   0.239  -0.309   8.954 -0.3629 -0.1551  0.1417
   62CHL1  H24A 7057   0.275  -0.413   8.962  0.9495  0.5135  3.2067
   62CHL1  H24B 7058   0.132  -0.302   8.985 -0.3060 -0.2479  0.3523
   62CHL1   C25 7059   0.246  -0.259   8.809 -0.2704 -0.7705  0.4725
   62CHL1   H25 7060   0.347  -0.253   8.763 -0.9050 -1.4576 -1.0637
   62CHL1   C26 7061   0.165  -0.350   8.712 -0.5099 -0.2376 -0.2798
   62CHL1  H26A 7062   0.055  -0.352   8.723 -0.2931 -3.5462  1.7998
   62CHL1  H26B 7063   0.185  -0.311   8.609 -0.6267  1.3537  0.2872
   62CHL1  H26C 7064   0.189  -0.458   8.718 -0.2542 -0.2659 -1.6713
   62CHL1   C27 7065   0.193  -0.118   8.788 -0.1898  0.4108 -0.0738
   62CHL1  H27A 7066   0.202  -0.092   8.680  0.3577 -1.0210 -0.3859
   62CHL1  H27B 7067   0.083  -0.113   8.804 -0.3459  0.3717 -1.0792
   62CHL1  H27C 7068   0.242  -0.040   8.851 -1.2706  1.8616 -0.9945
   63CHL1    C3 7069   2.182   1.215  10.264 -0.2344  0.2184  0.0140
   63CHL1    H3 7070   2.269   1.282  10.248 -1.4683  1.8325 -0.0561
   63CHL1    O3 7071   2.120   1.256  10.386 -0.1854  0.3828 -0.6400
   63CHL1   H3' 7072   2.046   1.198  10.404 -1.5709  2.0363 -0.9675
   63CHL1    C4 7073   2.090   1.236  10.146  0.0870 -0.5518 -0.3137
   63CHL1   H4A 7074   2.008   1.163  10.162 -1.5855  1.2333 -0.5880
   63CHL1   H4B 7075   2.053   1.341  10.149  0.0072 -0.6099  1.6644
   63CHL1    C5 7076   2.151   1.199  10.014 -0.4309  0.2095 -0.7915
   63CHL1    C6 7077   2.164   1.283   9.909  0.0083  0.2200  0.0161
   63CHL1    H6 7078   2.127   1.386   9.908  1.0260  0.5926 -0.2038
   63CHL1    C7 7079   2.233   1.253   9.779  0.1256  0.1946  0.4051
   63CHL1   H7A 7080   2.177   1.284   9.688 -0.1408 -1.6132 -0.0717
   63CHL1   H7B 7081   2.330   1.307   9.776 -0.3131  0.9381 -1.3625
   63CHL1    C8 7082   2.260   1.098   9.760 -0.1656  0.6340  0.2768
   63CHL1    H8 7083   2.164   1.045   9.737  0.4986  0.2280 -1.6628
   63CHL1   C14 7084   2.360   1.072   9.649  0.2408 -0.7079  0.0692
   63CHL1   H14 7085   2.453   1.116   9.690  0.8631 -0.5668 -1.4718
   63CHL1   C15 7086   2.330   1.136   9.518 -0.4355  0.5986 -0.5276
   63CHL1  H15A 7087   2.220   1.120   9.504 -0.5079  1.9980 -1.6963
   63CHL1  H15B 7088   2.350   1.245   9.525  0.9949  0.2362  1.1981
   63CHL1   C16 7089   2.407   1.063   9.420  0.4278  0.5080  0.3885
   63CHL1  H16A 7090   2.332   1.026   9.347  1.0328 -0.1692  0.1118
   63CHL1  H16B 7091   2.478   1.129   9.365  0.4134  0.0108 -0.2343
   63CHL1   C17 7092   2.482   0.950   9.496 -0.1427 -0.6558  0.0715
   63CHL1   H17 7093   2.575   0.994   9.537 -0.6937  0.0690  0.5480
   63CHL1   C13 7094   2.391   0.926   9.620 -0.5554 -0.8288  0.1041
   63CHL1   C18 7095   2.258   0.859   9.575  0.3288 -0.5031 -0.3733
   63CHL1  H18A 7096   2.288   0.758   9.540 -0.3686 -1.0861  0.7028
   63CHL1  H18B 7097   2.187   0.843   9.658 -0.1273 -1.3978 -0.9293
   63CHL1  H18C 7098   2.197   0.911   9.498  2.1370  0.7772 -0.9762
   63CHL1   C12 7099   2.456   0.866   9.752 -0.4004  0.8967 -0.3854
   63CHL1  H12A 7100   2.474   0.757   9.737 -1.1401  0.8233 -0.7700
   63CHL1  H12B 7101   2.552   0.920   9.764  0.4446 -0.6294 -0.0582
   63CHL1   C11 7102   2.354   0.892   9.868 -0.0581  0.3611 -0.2724
   63CHL1  H11A 7103   2.278   0.811   9.857 -0.4501  0.4208  1.8306
   63CHL1  H11B 7104   2.412   0.853   9.954  1.4452  1.0865 -0.9329
   63CHL1    C9 7105   2.313   1.038   9.885  0.4950 -0.2551  0.0246
   63CHL1    H9 7106   2.410   1.092   9.896 -0.3741  2.0496 -2.9675
   63CHL1   C10 7107   2.218   1.068  10.007 -0.3110  0.1726  0.1604
   63CHL1   C19 7108   2.109   0.950  10.012  0.7960  0.6630 -0.0166
   63CHL1  H19A 7109   2.025   0.957  10.084  1.9331 -0.7438  1.4630
   63CHL1  H19B 7110   2.069   0.943   9.908 -0.2112 -1.9787  0.5139
   63CHL1  H19C 7111   2.165   0.854  10.019 -0.0875 -0.0745 -2.5073
   63CHL1    C1 7112   2.307   1.040  10.135  0.2571 -0.3744  0.1032
   63CHL1   H1A 7113   2.334   0.932  10.137  0.7550 -0.2533 -0.1370
   63CHL1   H1B 7114   2.400   1.099  10.143 -0.0834 -0.1950  3.0357
   63CHL1    C2 7115   2.233   1.065  10.270  0.6919 -0.0746 -0.5883
   63CHL1   H2A 7116   2.298   1.042  10.357  0.2517  0.8524 -0.0129
   63CHL1   H2B 7117   2.143   1.002  10.285 -0.4231  1.8017  0.8150
   63CHL1   C20 7118   2.527   0.833   9.399 -0.4066  0.2961 -0.0371
   63CHL1   H20 7119   2.435   0.782   9.361  1.2161 -2.0645 -0.9403
   63CHL1   C21 7120   2.607   0.732   9.487  1.1220  0.2382 -0.0031
   63CHL1  H21A 7121   2.541   0.675   9.555  0.6241  1.3789  0.4797
   63CHL1  H21B 7122   2.687   0.766   9.556  0.3930 -0.5948  1.2613
   63CHL1  H21C 7123   2.657   0.659   9.419  1.2788 -1.2262  1.6601
   63CHL1   C22 7124   2.602   0.892   9.278 -0.1431  0.3823 -0.1901
   63CHL1  H22A 7125   2.552   0.989   9.253  0.3685  0.1937 -2.0028
   63CHL1  H22B 7126   2.705   0.916   9.311  0.4483 -0.6093 -1.3182
   63CHL1   C23 7127   2.604   0.809   9.150 -0.0303 -0.0489  0.1860
   63CHL1  H23A 7128   2.669   0.721   9.170  2.8310  2.3623  1.9413
   63CHL1  H23B 7129   2.500   0.777   9.129  0.4349 -1.6171  0.2200
   63CHL1   C24 7130   2.662   0.884   9.031 -0.1972 -0.4394 -0.2443
   63CHL1  H24A 7131   2.597   0.873   8.942  0.1995 -2.7851 -0.2810
   63CHL1  H24B 7132   2.673   0.994   9.045  1.2291 -0.0381 -3.9767
   63CHL1   C25 7133   2.797   0.835   8.975  0.1698  0.1495 -0.4277
   63CHL1   H25 7134   2.787   0.726   8.959 -0.1389  0.1084  0.0525
   63CHL1   C26 7135   2.818   0.883   8.831  0.1303 -0.2231 -0.2132
   63CHL1  H26A 7136   2.823   0.994   8.817  3.6856 -0.2014  0.8604
   63CHL1  H26B 7137   2.913   0.852   8.781 -0.8923 -0.1116 -2.2982
   63CHL1  H26C 7138   2.737   0.844   8.766 -0.5032 -0.3581  0.6567
   63CHL1   C27 7139   2.912   0.863   9.079  0.1486 -0.0432 -0.1707
   63CHL1  H27A 7140   2.918   0.969   9.110 -0.2276  0.7912 -2.7943
   63CHL1  H27B 7141   2.897   0.797   9.167 -1.5152  1.8345  1.0098
   63CHL1  H27C 7142   3.009   0.846   9.028  0.2170  1.8174 -0.6995
   64CHL1    C3 7143   1.211   0.776   9.960  0.7713  0.1800  0.5916
   64CHL1    H3 7144   1.128   0.719   9.913  1.8488  2.1879 -4.0981
   64CHL1    O3 7145   1.183   0.782  10.097 -0.0798  0.3168  0.0767
   64CHL1   H3' 7146   1.272   0.791  10.132 -0.8919 -0.0410  2.3364
   64CHL1    C4 7147   1.344   0.715   9.922  0.2892 -0.5537  0.2742
   64CHL1   H4A 7148   1.424   0.787   9.948  2.5192 -2.7489 -0.2941
   64CHL1   H4B 7149   1.374   0.627   9.983  0.2629  0.3148  1.5442
   64CHL1    C5 7150   1.371   0.693   9.774 -0.5529 -0.2289  0.6426
   64CHL1    C6 7151   1.404   0.571   9.716 -0.6849 -0.0125  0.1781
   64CHL1    H6 7152   1.408   0.485   9.784  1.0405  0.1968  0.3663
   64CHL1    C7 7153   1.439   0.553   9.574 -0.8776  1.5574 -0.0179
   64CHL1   H7A 7154   1.533   0.495   9.563 -2.3277 -0.5296 -1.8740
   64CHL1   H7B 7155   1.363   0.488   9.525  0.1926  0.1423  0.1526
   64CHL1    C8 7156   1.455   0.679   9.492 -0.8150  0.7479 -0.8987
   64CHL1    H8 7157   1.551   0.730   9.516 -0.8991  1.1704 -1.4457
   64CHL1   C14 7158   1.445   0.652   9.345 -0.0660  0.3272  0.1593
   64CHL1   H14 7159   1.345   0.607   9.324 -1.0153  2.1619  0.6271
   64CHL1   C15 7160   1.539   0.545   9.285 -0.7734 -0.0220 -0.4997
   64CHL1  H15A 7161   1.639   0.567   9.328 -0.6761 -1.5671  0.0970
   64CHL1  H15B 7162   1.510   0.445   9.322 -0.5870 -0.3814 -1.3116
   64CHL1   C16 7163   1.522   0.570   9.131  1.0112  0.5742  0.4119
   64CHL1  H16A 7164   1.626   0.591   9.099  0.4789  0.4645 -1.4451
   64CHL1  H16B 7165   1.470   0.495   9.069  2.1046  0.4682 -0.3880
   64CHL1   C17 7166   1.440   0.702   9.110  1.0719 -0.3740 -0.2553
   64CHL1   H17 7167   1.335   0.669   9.097  0.1018  2.6328 -0.4160
   64CHL1   C13 7168   1.454   0.776   9.251  0.0486  0.1684 -1.1367
   64CHL1   C18 7169   1.597   0.835   9.256  0.3812  0.7606 -0.0527
   64CHL1  H18A 7170   1.675   0.776   9.204 -0.1016  0.2115 -0.1694
   64CHL1  H18B 7171   1.594   0.938   9.215 -0.1863  2.4852  4.0371
   64CHL1  H18C 7172   1.624   0.842   9.364 -0.3851  1.1799  0.1202
   64CHL1   C12 7173   1.337   0.861   9.290  0.4201 -0.1879 -0.2075
   64CHL1  H12A 7174   1.337   0.956   9.233  0.0073  0.2122  0.4512
   64CHL1  H12B 7175   1.251   0.797   9.263  0.4172 -0.9862  1.5846
   64CHL1   C11 7176   1.355   0.900   9.443  0.1062 -0.3557  0.5282
   64CHL1  H11A 7177   1.452   0.953   9.459  1.0880 -1.8396 -0.3622
   64CHL1  H11B 7178   1.275   0.973   9.465 -0.4617 -0.3943 -1.3351
   64CHL1    C9 7179   1.347   0.781   9.533  0.2855  0.6022 -0.0721
   64CHL1    H9 7180   1.249   0.733   9.510  0.3027 -0.0602  1.1974
   64CHL1   C10 7181   1.343   0.821   9.689  0.2069 -1.0288  0.5589
   64CHL1   C19 7182   1.463   0.914   9.714  0.0079  0.9771 -0.5858
   64CHL1  H19A 7183   1.559   0.870   9.679  1.4218  4.2583 -1.0287
   64CHL1  H19B 7184   1.455   1.012   9.661  1.1095  0.5033 -1.6394
   64CHL1  H19C 7185   1.468   0.944   9.821 -0.4664 -1.9902  0.3049
   64CHL1    C1 7186   1.209   0.901   9.734 -0.4884 -0.6885 -0.2241
   64CHL1   H1A 7187   1.212   0.991   9.668 -1.4897 -0.1076  0.5103
   64CHL1   H1B 7188   1.124   0.838   9.699 -1.0318 -1.3470  2.2300
   64CHL1    C2 7189   1.203   0.912   9.889  0.4554  0.3104  0.0782
   64CHL1   H2A 7190   1.114   0.968   9.925 -1.1838 -0.2547 -2.9606
   64CHL1   H2B 7191   1.289   0.975   9.921 -0.2228  0.9133  0.7220
   64CHL1   C20 7192   1.469   0.784   8.985  0.2554  0.0752 -0.0584
   64CHL1   H20 7193   1.559   0.846   9.002 -0.0506  0.2545  0.9345
   64CHL1   C21 7194   1.348   0.873   8.945  0.1745 -0.1447  0.5368
   64CHL1  H21A 7195   1.379   0.968   8.896 -0.8935 -0.3501 -0.5616
   64CHL1  H21B 7196   1.296   0.902   9.039  0.6090  1.3690  0.3277
   64CHL1  H21C 7197   1.274   0.823   8.879  1.6855  0.1123 -1.3922
   64CHL1   C22 7198   1.518   0.706   8.862 -0.3789 -0.4021 -0.1938
   64CHL1  H22A 7199   1.597   0.633   8.889 -0.7915 -1.4402 -1.7373
   64CHL1  H22B 7200   1.439   0.641   8.821 -0.9927 -0.4981  1.1112
   64CHL1   C23 7201   1.580   0.802   8.756  0.2154 -0.4070  0.2759
   64CHL1  H23A 7202   1.508   0.866   8.702 -0.3625 -1.4283 -0.1914
   64CHL1  H23B 7203   1.644   0.874   8.811  1.2544  0.4469 -1.9823
   64CHL1   C24 7204   1.652   0.717   8.646  0.5126  0.1542 -0.2455
   64CHL1  H24A 7205   1.749   0.694   8.695  0.6776 -1.8024 -1.4167
   64CHL1  H24B 7206   1.597   0.620   8.639  0.3064  0.2364  0.2002
   64CHL1   C25 7207   1.666   0.798   8.518 -0.2103 -0.4314  0.2797
   64CHL1   H25 7208   1.565   0.836   8.493  0.5719  0.6930 -1.2379
   64CHL1   C26 7209   1.753   0.922   8.543  0.0445 -1.0728 -0.0821
   64CHL1  H26A 7210   1.860   0.907   8.567 -0.0786 -1.9560 -0.0696
   64CHL1  H26B 7211   1.744   0.976   8.446 -1.3131 -2.6999 -0.8778
   64CHL1  H26C 7212   1.712   0.994   8.618 -0.2304 -0.9134 -0.3795
   64CHL1   C27 7213   1.729   0.714   8.404 -0.2500  0.0103  0.3742
   64CHL1  H27A 7214   1.744   0.777   8.314  1.4795  1.3333  1.5504
   64CHL1  H27B 7215   1.832   0.680   8.429  0.0533  1.6581  1.4341
   64CHL1  H27C 7216   1.670   0.625   8.374  2.2104 -1.6691  0.3346
   65CHL1    C3 7217   3.149   4.007  10.199  0.1458 -0.7156  0.5049
   65CHL1    H3 7218   3.094   4.099  10.168  0.9166 -0.1828  0.6871
   65CHL1    O3 7219   3.144   3.994  10.338 -0.2498  0.0883 -0.2659
   65CHL1   H3' 7220   3.075   3.934  10.368 -1.2705  1.9885  1.3495
   65CHL1    C4 7221   3.083   3.883  10.148  0.1569 -0.2135 -0.0253
   65CHL1   H4A 7222   3.130   3.787  10.178 -2.2174 -1.3450  0.1866
   65CHL1   H4B 7223   2.986   3.888  10.201  0.2385 -2.5906  0.3778
   65CHL1    C5 7224   3.080   3.898   9.998 -0.0848  0.3703 -0.5883
   65CHL1    C6 7225   2.962   3.899   9.940  0.2270  0.3684  0.2068
   65CHL1    H6 7226   2.870   3.889   9.999 -0.6246  1.6204 -0.8618
   65CHL1    C7 7227   2.936   3.892   9.790  0.2431 -0.2718  0.2281
   65CHL1   H7A 7228   2.880   3.803   9.754 -1.2623  1.4847 -1.9031
   65CHL1   H7B 7229   2.881   3.984   9.759  0.3491 -0.6381 -1.0757
   65CHL1    C8 7230   3.067   3.867   9.716  0.2294  0.1935 -0.3728
   65CHL1    H8 7231   3.099   3.762   9.730  1.4305  0.4589 -1.0556
   65CHL1   C14 7232   3.052   3.916   9.570  0.1813 -0.7419 -0.1040
   65CHL1   H14 7233   3.036   4.026   9.569 -0.0392 -0.7749 -0.4055
   65CHL1   C15 7234   2.928   3.869   9.492  0.6270 -0.0017  0.8720
   65CHL1  H15A 7235   2.932   3.758   9.500 -0.1487 -0.2836 -2.1329
   65CHL1  H15B 7236   2.826   3.896   9.528  0.4857 -0.6218  0.9447
   65CHL1   C16 7237   2.972   3.904   9.350  0.5412  0.4230  0.2909
   65CHL1  H16A 7238   2.952   3.816   9.285 -1.5249  1.7248 -0.9317
   65CHL1  H16B 7239   2.905   3.983   9.309  2.2711  0.5855 -2.3093
   65CHL1   C17 7240   3.123   3.942   9.351 -0.8106  0.0241 -0.4192
   65CHL1   H17 7241   3.141   4.052   9.357  0.9826 -0.2732 -0.0877
   65CHL1   C13 7242   3.175   3.892   9.484 -0.0110  0.3371  0.5575
   65CHL1   C18 7243   3.217   3.747   9.468 -0.4575  0.2560  0.2117
   65CHL1  H18A 7244   3.178   3.681   9.548 -0.9506  1.8232  1.2775
   65CHL1  H18B 7245   3.162   3.700   9.383  0.2678 -1.9591  0.9364
   65CHL1  H18C 7246   3.326   3.729   9.455 -0.1481 -0.2225  3.1895
   65CHL1   C12 7247   3.295   3.970   9.547 -0.4820 -0.6919  0.2472
   65CHL1  H12A 7248   3.385   3.946   9.486 -0.4355  0.9379 -0.3535
   65CHL1  H12B 7249   3.284   4.080   9.531  1.9053 -0.2209  1.6449
   65CHL1   C11 7250   3.323   3.939   9.690  0.3426  0.3154  0.4343
   65CHL1  H11A 7251   3.373   3.840   9.691 -1.1264 -0.4477  0.1743
   65CHL1  H11B 7252   3.385   4.021   9.731  1.2711 -0.9832  1.6851
   65CHL1    C9 7253   3.194   3.945   9.779  0.4931  0.0458  0.1017
   65CHL1    H9 7254   3.163   4.052   9.779  0.6972  0.1034  1.3665
   65CHL1   C10 7255   3.216   3.902   9.927  0.4626  0.2523 -0.1137
   65CHL1   C19 7256   3.279   3.757   9.929  0.1544  0.0022  0.2999
   65CHL1  H19A 7257   3.220   3.690   9.863 -0.1564  2.3301 -1.8896
   65CHL1  H19B 7258   3.379   3.763   9.882 -0.1301  0.0696 -0.3035
   65CHL1  H19C 7259   3.305   3.709  10.026  0.0985 -0.9244 -0.1357
   65CHL1    C1 7260   3.316   4.005  10.000  0.8721  0.9039  0.8852
   65CHL1   H1A 7261   3.416   3.982   9.958  0.8492  2.8320 -0.3181
   65CHL1   H1B 7262   3.290   4.104   9.957 -2.5823 -0.6395 -0.8695
   65CHL1    C2 7263   3.298   4.005  10.152 -0.9777 -0.1248  0.7867
   65CHL1   H2A 7264   3.346   4.095  10.196  2.7716 -1.2425 -0.8216
   65CHL1   H2B 7265   3.351   3.913  10.185  1.3516  0.6663 -0.6909
   65CHL1   C20 7266   3.191   3.913   9.219  0.0653  0.2075  0.4387
   65CHL1   H20 7267   3.200   3.804   9.199 -1.8370  0.1699 -0.3042
   65CHL1   C21 7268   3.336   3.972   9.218  0.2586 -0.3267  1.0107
   65CHL1  H21A 7269   3.415   3.909   9.264  2.1250  2.0796  1.1895
   65CHL1  H21B 7270   3.338   4.077   9.252  0.1396 -0.2447  0.7648
   65CHL1  H21C 7271   3.369   3.966   9.112  2.1388 -1.9419  1.6633
   65CHL1   C22 7272   3.117   3.982   9.098  0.2506 -0.0792  0.0654
   65CHL1  H22A 7273   3.008   3.995   9.114  0.2322 -1.0422  0.7543
   65CHL1  H22B 7274   3.158   4.081   9.069  0.0247  0.0420  0.1583
   65CHL1   C23 7275   3.126   3.900   8.966 -0.5362  0.1046  0.1333
   65CHL1  H23A 7276   3.108   3.973   8.884  0.2891 -0.1266 -0.2654
   65CHL1  H23B 7277   3.232   3.873   8.946 -0.2502  2.2707 -1.4840
   65CHL1   C24 7278   3.039   3.776   8.963 -0.1831  0.7235 -0.3592
   65CHL1  H24A 7279   3.082   3.698   9.030 -1.7018 -1.7207 -2.1595
   65CHL1  H24B 7280   2.941   3.801   9.008 -0.7596 -1.1598 -0.5529
   65CHL1   C25 7281   3.019   3.713   8.821 -0.4682  0.1262 -0.3983
   65CHL1   H25 7282   2.972   3.786   8.751 -0.3347  0.5136 -0.0849
   65CHL1   C26 7283   3.145   3.666   8.760 -0.4718  0.1098  0.5151
   65CHL1  H26A 7284   3.211   3.749   8.726  0.8979 -1.0807  0.1888
   65CHL1  H26B 7285   3.197   3.606   8.838 -1.8039 -1.4063  0.2593
   65CHL1  H26C 7286   3.133   3.595   8.675  2.5273 -0.3290  0.4051
   65CHL1   C27 7287   2.929   3.587   8.815 -0.1119  0.1890 -0.4490
   65CHL1  H27A 7288   2.908   3.576   8.707  0.8652 -1.0974 -0.5314
   65CHL1  H27B 7289   2.978   3.495   8.854 -0.0307  0.5345  0.2673
   65CHL1  H27C 7290   2.833   3.604   8.868 -0.9320  0.0229 -1.8517
   66CHL1    C3 7291   1.095   3.325  10.637  0.0198 -0.0638 -0.1035
   66CHL1    H3 7292   1.026   3.412  10.641 -1.1185 -0.9258 -0.8662
   66CHL1    O3 7293   1.104   3.262  10.764 -0.0369  0.5216  0.2962
   66CHL1   H3' 7294   1.199   3.247  10.770 -0.0066  0.3233 -0.6369
   66CHL1    C4 7295   1.047   3.227  10.535  0.1725  0.0172 -0.2923
   66CHL1   H4A 7296   1.109   3.135  10.544 -1.5513 -1.1136  0.3067
   66CHL1   H4B 7297   0.944   3.194  10.562  0.3528 -0.2576  0.0573
   66CHL1    C5 7298   1.048   3.295  10.399  0.0434 -0.3080  0.2196
   66CHL1    C6 7299   0.936   3.289  10.322 -0.8248  0.1873  0.6512
   66CHL1    H6 7300   0.851   3.226  10.350 -0.0409 -0.6697  1.1219
   66CHL1    C7 7301   0.929   3.341  10.183 -0.3226  0.4856 -0.1985
   66CHL1   H7A 7302   0.897   3.259  10.115 -1.4674 -1.1546  2.2383
   66CHL1   H7B 7303   0.853   3.421  10.192  0.3604  1.1922 -0.6372
   66CHL1    C8 7304   1.058   3.402  10.134 -0.3440  0.2434 -0.1642
   66CHL1    H8 7305   1.114   3.313  10.097 -0.0199 -0.3008  1.6237
   66CHL1   C14 7306   1.032   3.496  10.017 -0.6699  0.0996  0.1379
   66CHL1   H14 7307   0.980   3.584  10.061 -1.9408 -0.3994 -0.3351
   66CHL1   C15 7308   0.947   3.436   9.903  0.4149 -0.4883  0.1027
   66CHL1  H15A 7309   0.978   3.331   9.889 -0.8574 -0.9329  0.5311
   66CHL1  H15B 7310   0.840   3.425   9.932  0.6319  2.0411  2.0387
   66CHL1   C16 7311   0.971   3.527   9.779 -0.2578  0.7337 -0.2640
   66CHL1  H16A 7312   1.014   3.462   9.699 -0.6522  2.4109 -1.8719
   66CHL1  H16B 7313   0.882   3.584   9.746 -0.6737  0.8504  1.0604
   66CHL1   C17 7314   1.084   3.622   9.823  0.1692  0.6825 -0.1966
   66CHL1   H17 7315   1.034   3.710   9.868 -2.9141 -1.2866  0.3969
   66CHL1   C13 7316   1.160   3.547   9.941 -0.7294  0.1176 -0.1683
   66CHL1   C18 7317   1.248   3.424   9.881  0.4409 -0.3305 -0.2858
   66CHL1  H18A 7318   1.196   3.381   9.792 -1.9202 -2.1742  1.9065
   66CHL1  H18B 7319   1.336   3.469   9.831  0.7632  0.2795  0.8196
   66CHL1  H18C 7320   1.276   3.346   9.954 -0.3003 -1.1009 -0.8101
   66CHL1   C12 7321   1.240   3.632  10.047  0.2847  0.5766 -0.2152
   66CHL1  H12A 7322   1.342   3.664  10.016  1.1290 -1.1760  0.6784
   66CHL1  H12B 7323   1.186   3.722  10.084  0.7243  1.1998 -1.0596
   66CHL1   C11 7324   1.264   3.538  10.171  0.2949 -0.3293  0.0407
   66CHL1  H11A 7325   1.336   3.457  10.146  0.4241 -0.3955  0.6087
   66CHL1  H11B 7326   1.305   3.609  10.247  1.0726 -1.4193  0.6732
   66CHL1    C9 7327   1.142   3.466  10.240  0.3022  0.0425 -0.7278
   66CHL1    H9 7328   1.079   3.552  10.270 -0.1202 -0.8561  1.0238
   66CHL1   C10 7329   1.170   3.378  10.364  0.1861  0.4428 -0.5066
   66CHL1   C19 7330   1.273   3.272  10.320 -0.0462 -0.1306  0.2747
   66CHL1  H19A 7331   1.354   3.332  10.273 -1.7998 -0.3456 -3.2177
   66CHL1  H19B 7332   1.306   3.213  10.408  2.0081 -0.5203 -0.7264
   66CHL1  H19C 7333   1.252   3.208  10.232 -0.1172  0.9499 -0.5096
   66CHL1    C1 7334   1.227   3.464  10.479  0.1329 -0.1087  0.0355
   66CHL1   H1A 7335   1.329   3.501  10.455 -0.0796 -0.6868 -1.8015
   66CHL1   H1B 7336   1.159   3.552  10.490  1.9291  1.6250 -2.0431
   66CHL1    C2 7337   1.236   3.388  10.605 -0.3347 -0.2743 -0.3051
   66CHL1   H2A 7338   1.255   3.453  10.693 -0.6261  1.0203 -1.1736
   66CHL1   H2B 7339   1.310   3.305  10.602  1.3160  1.2139 -2.7690
   66CHL1   C20 7340   1.167   3.671   9.708  0.5457  0.3367  0.1881
   66CHL1   H20 7341   1.224   3.586   9.664  0.9840  1.3344 -1.2077
   66CHL1   C21 7342   1.272   3.770   9.748  0.1865 -0.1888 -0.6086
   66CHL1  H21A 7343   1.327   3.721   9.832  0.1688  0.9363  0.0809
   66CHL1  H21B 7344   1.224   3.868   9.769 -0.0686 -0.3186 -0.5843
   66CHL1  H21C 7345   1.351   3.786   9.671  2.3404 -0.8417  1.4077
   66CHL1   C22 7346   1.088   3.734   9.591  0.1566 -0.1898 -0.0787
   66CHL1  H22A 7347   0.998   3.675   9.565  0.5596 -0.7562 -0.1894
   66CHL1  H22B 7348   1.062   3.839   9.617  1.2849  0.4427 -1.4708
   66CHL1   C23 7349   1.178   3.754   9.474 -0.6793  0.0842 -0.0289
   66CHL1  H23A 7350   1.255   3.830   9.495 -0.4780  0.0392 -0.5965
   66CHL1  H23B 7351   1.216   3.660   9.429 -0.7873  0.5048 -1.0138
   66CHL1   C24 7352   1.087   3.817   9.360  0.5466 -0.4048 -0.5748
   66CHL1  H24A 7353   1.063   3.740   9.283  2.5583 -0.6093 -1.0243
   66CHL1  H24B 7354   0.994   3.860   9.401  1.0511 -1.3302  1.6271
   66CHL1   C25 7355   1.155   3.921   9.268 -0.0188  1.1197  0.1481
   66CHL1   H25 7356   1.211   3.986   9.338  0.4404  0.1275  0.7264
   66CHL1   C26 7357   1.257   3.840   9.183  0.0840  0.1973  0.0862
   66CHL1  H26A 7358   1.206   3.776   9.108  0.3845  0.7208 -0.5739
   66CHL1  H26B 7359   1.326   3.902   9.122 -0.8019 -0.6148 -1.7716
   66CHL1  H26C 7360   1.325   3.780   9.248  1.6567 -1.0676 -2.6383
   66CHL1   C27 7361   1.056   3.995   9.187  0.3703 -0.2663  0.4934
   66CHL1  H27A 7362   1.053   3.950   9.085  0.2501 -0.0778  0.4153
   66CHL1  H27B 7363   0.951   3.991   9.223  0.3955  3.1500  1.0308
   66CHL1  H27C 7364   1.080   4.103   9.183  1.2089 -0.5015 -1.3446
   67CHL1    C3 7365   5.538   2.955  10.351  1.0796 -0.8766  0.3918
   67CHL1    H3 7366   5.619   3.031  10.339 -0.3175  0.6564  0.6000
   67CHL1    O3 7367   5.512   2.951  10.487 -0.4347 -0.3701 -0.3900
   67CHL1   H3' 7368   5.479   2.861  10.490 -0.2003 -0.5490 -2.7156
   67CHL1    C4 7369   5.408   2.993  10.280  0.4999  0.5508 -0.2977
   67CHL1   H4A 7370   5.327   2.925  10.316  2.6018 -1.0774  1.5165
   67CHL1   H4B 7371   5.395   3.101  10.301  1.0396  0.5951 -0.1914
   67CHL1    C5 7372   5.412   2.987  10.131  0.4139  0.8683  0.1123
   67CHL1    C6 7373   5.391   3.092  10.057 -0.9914 -0.2028 -0.2620
   67CHL1    H6 7374   5.370   3.187  10.108  1.0223  0.9905 -1.5788
   67CHL1    C7 7375   5.410   3.090   9.903 -0.3094 -0.3307 -0.1200
   67CHL1   H7A 7376   5.328   3.143   9.849 -0.6768  2.7253  3.2743
   67CHL1   H7B 7377   5.496   3.156   9.879 -0.2481  0.4767  2.2426
   67CHL1    C8 7378   5.429   2.952   9.840 -0.2926  0.2486 -0.7779
   67CHL1    H8 7379   5.325   2.913   9.847 -0.1679  0.0021 -0.2510
   67CHL1   C14 7380   5.468   2.957   9.699  0.3205 -0.0033  0.3788
   67CHL1   H14 7381   5.565   3.011   9.690 -0.2619  1.3046  1.7504
   67CHL1   C15 7382   5.392   3.049   9.606  0.1424  0.0331  1.2809
   67CHL1  H15A 7383   5.287   3.023   9.632 -0.2345  1.6951  1.4863
   67CHL1  H15B 7384   5.413   3.157   9.621  1.4566 -0.2201  1.2477
   67CHL1   C16 7385   5.442   3.017   9.469 -0.6483  0.5123  0.8388
   67CHL1  H16A 7386   5.363   3.023   9.392 -1.2190 -0.4647  1.3336
   67CHL1  H16B 7387   5.525   3.076   9.425  0.3263 -1.6415 -0.3135
   67CHL1   C17 7388   5.508   2.872   9.481 -0.0490  0.3648 -0.2654
   67CHL1   H17 7389   5.618   2.880   9.481 -0.0333  0.2798 -1.4943
   67CHL1   C13 7390   5.483   2.820   9.624  0.1432 -0.0354 -0.7981
   67CHL1   C18 7391   5.346   2.743   9.635 -0.5440 -0.2715 -1.0384
   67CHL1  H18A 7392   5.322   2.665   9.561 -1.7688 -1.3506  0.4598
   67CHL1  H18B 7393   5.341   2.692   9.734 -0.7859 -1.7035 -1.7914
   67CHL1  H18C 7394   5.267   2.818   9.611 -2.2768 -1.3001  1.3001
   67CHL1   C12 7395   5.597   2.748   9.701 -0.0578  0.5485 -0.4779
   67CHL1  H12A 7396   5.621   2.650   9.654 -1.8012 -1.2095  2.1379
   67CHL1  H12B 7397   5.686   2.813   9.692 -0.3582  1.1075  0.5848
   67CHL1   C11 7398   5.572   2.736   9.852  0.1387 -1.0190  0.3659
   67CHL1  H11A 7399   5.506   2.648   9.863  3.8085 -3.5737  3.3072
   67CHL1  H11B 7400   5.669   2.706   9.896 -0.2274 -3.2082 -0.2208
   67CHL1    C9 7401   5.526   2.870   9.922 -0.1569  0.4340  0.4869
   67CHL1    H9 7402   5.621   2.927   9.931 -0.3286  0.4357  2.4486
   67CHL1   C10 7403   5.484   2.859  10.068  1.2411 -0.6451 -0.0877
   67CHL1   C19 7404   5.384   2.742  10.078  0.1416  0.0045  0.7961
   67CHL1  H19A 7405   5.431   2.642  10.066  1.1872  0.5110  0.5902
   67CHL1  H19B 7406   5.339   2.741  10.180  0.7501  2.2839  1.1126
   67CHL1  H19C 7407   5.308   2.764  10.000  0.2780  0.5190  0.8077
   67CHL1    C1 7408   5.614   2.825  10.153 -0.4305 -0.2987 -0.0526
   67CHL1   H1A 7409   5.656   2.730  10.114  0.3703 -1.4322  3.3654
   67CHL1   H1B 7410   5.693   2.897  10.123  0.4339 -1.2777 -0.1561
   67CHL1    C2 7411   5.600   2.821  10.305  0.2307 -0.5634  0.8775
   67CHL1   H2A 7412   5.693   2.791  10.358  1.2877  0.3375 -0.4601
   67CHL1   H2B 7413   5.532   2.735  10.326 -0.4434  0.0920  1.3962
   67CHL1   C20 7414   5.478   2.779   9.357 -0.0714  0.2341  0.0006
   67CHL1   H20 7415   5.368   2.760   9.355 -0.1107  0.4506  0.0989
   67CHL1   C21 7416   5.538   2.635   9.373 -0.4474 -0.2268 -0.1583
   67CHL1  H21A 7417   5.490   2.596   9.465  0.8417  1.3945  1.2253
   67CHL1  H21B 7418   5.649   2.638   9.384 -0.2699 -5.2946  0.7674
   67CHL1  H21C 7419   5.505   2.570   9.289  0.9620  0.7686 -1.5257
   67CHL1   C22 7420   5.520   2.833   9.218 -0.1417 -0.3044  0.1951
   67CHL1  H22A 7421   5.540   2.942   9.226 -1.8366 -0.1574  3.8670
   67CHL1  H22B 7422   5.615   2.790   9.181  0.7218  0.6806  1.2077
   67CHL1   C23 7423   5.402   2.812   9.118 -0.3899  0.4030  0.2593
   67CHL1  H23A 7424   5.381   2.703   9.112  1.9536 -0.0578  0.2008
   67CHL1  H23B 7425   5.310   2.862   9.156  0.3486  0.5316  1.9160
   67CHL1   C24 7426   5.431   2.869   8.974  0.7259  0.1025 -0.6573
   67CHL1  H24A 7427   5.334   2.858   8.921  0.0294  1.9094  0.2054
   67CHL1  H24B 7428   5.440   2.979   8.984  1.1895 -0.0385  0.7001
   67CHL1   C25 7429   5.551   2.812   8.904 -0.0260 -0.2097 -0.2814
   67CHL1   H25 7430   5.640   2.815   8.970 -1.4991  3.5570  1.7227
   67CHL1   C26 7431   5.526   2.660   8.879 -0.1319 -0.0337 -0.0669
   67CHL1  H26A 7432   5.608   2.606   8.826  0.8456  1.8326 -0.5000
   67CHL1  H26B 7433   5.514   2.605   8.975  1.7261 -0.4034 -0.0235
   67CHL1  H26C 7434   5.438   2.640   8.815  2.2566 -2.4424 -2.7546
   67CHL1   C27 7435   5.598   2.898   8.785  0.2090 -0.1836  0.4388
   67CHL1  H27A 7436   5.526   2.897   8.700  0.9366  0.2645 -0.1821
   67CHL1  H27B 7437   5.598   3.004   8.818  2.4403  0.2181 -0.7616
   67CHL1  H27C 7438   5.699   2.858   8.761 -0.1806 -1.3652  0.7552
   68CHL1    C3 7439   3.889   3.983  10.178  0.5337  0.4867  0.7113
   68CHL1    H3 7440   3.842   4.078  10.144 -0.0052 -0.7799 -2.2790
   68CHL1    O3 7441   3.896   3.982  10.321 -0.8836  0.3384  0.0196
   68CHL1   H3' 7442   3.957   4.053  10.343 -1.4666  0.4813  1.2536
   68CHL1    C4 7443   3.799   3.873  10.126 -0.8068  0.3694  0.3534
   68CHL1   H4A 7444   3.832   3.773  10.161  0.3627 -0.6014 -3.3425
   68CHL1   H4B 7445   3.701   3.885  10.177  0.2945  0.4245  2.5510
   68CHL1    C5 7446   3.794   3.865   9.977 -0.3762 -0.3103  0.1591
   68CHL1    C6 7447   3.679   3.852   9.909  0.2751  0.5413 -0.2020
   68CHL1    H6 7448   3.582   3.858   9.961  0.5077  1.1213  0.1683
   68CHL1    C7 7449   3.667   3.824   9.766  0.0382  0.0450  0.7053
   68CHL1   H7A 7450   3.597   3.740   9.750 -1.4526  1.4439 -0.3428
   68CHL1   H7B 7451   3.637   3.912   9.703 -2.5057 -1.4403 -0.2389
   68CHL1    C8 7452   3.803   3.792   9.697 -0.1259  0.2891  0.0456
   68CHL1    H8 7453   3.822   3.686   9.725 -0.2065  0.5609  1.1433
   68CHL1   C14 7454   3.802   3.804   9.549  0.1627  0.3853  0.4168
   68CHL1   H14 7455   3.783   3.912   9.533  1.6027  0.6283  0.2940
   68CHL1   C15 7456   3.689   3.730   9.474 -0.4741 -0.0658  0.6292
   68CHL1  H15A 7457   3.667   3.632   9.521  0.9656 -0.5731  0.2611
   68CHL1  H15B 7458   3.606   3.804   9.472  1.5518  2.3305  2.2955
   68CHL1   C16 7459   3.757   3.711   9.337  0.3214 -0.7788  0.5987
   68CHL1  H16A 7460   3.770   3.602   9.319 -0.2760 -0.7588 -0.0009
   68CHL1  H16B 7461   3.688   3.768   9.271  1.2624 -2.3768 -1.8521
   68CHL1   C17 7462   3.892   3.791   9.337  0.6347 -0.1201 -0.4325
   68CHL1   H17 7463   3.852   3.893   9.319 -2.7766 -1.6829 -2.1174
   68CHL1   C13 7464   3.936   3.781   9.484 -0.2219 -0.6365  0.4728
   68CHL1   C18 7465   3.998   3.641   9.497  1.2122 -0.2962 -0.4878
   68CHL1  H18A 7466   4.106   3.644   9.472  1.5081  3.9451  0.8645
   68CHL1  H18B 7467   3.989   3.607   9.603  0.5284  0.5376 -0.2758
   68CHL1  H18C 7468   3.947   3.568   9.430 -1.5840  1.6891 -0.5934
   68CHL1   C12 7469   4.023   3.893   9.534 -0.6898 -0.2774  0.2649
   68CHL1  H12A 7470   4.121   3.880   9.483 -0.9660 -3.0889  0.3867
   68CHL1  H12B 7471   3.972   3.988   9.509  0.2368  0.2577  0.3750
   68CHL1   C11 7472   4.053   3.886   9.682  0.0535 -0.5475  0.4920
   68CHL1  H11A 7473   4.115   3.796   9.701  1.2271  0.3587  1.0240
   68CHL1  H11B 7474   4.121   3.970   9.708  2.0677 -2.0856  0.3742
   68CHL1    C9 7475   3.916   3.884   9.756 -0.9812 -0.1123 -0.0198
   68CHL1    H9 7476   3.872   3.985   9.739 -0.4678  0.2624  0.8000
   68CHL1   C10 7477   3.933   3.861   9.906 -0.4984  0.5088 -0.4334
   68CHL1   C19 7478   4.007   3.724   9.932 -0.1634  0.0948  0.1695
   68CHL1  H19A 7479   3.976   3.641   9.866 -0.7933 -2.1347  3.1965
   68CHL1  H19B 7480   4.118   3.738   9.931 -0.0354 -0.9990 -1.0671
   68CHL1  H19C 7481   3.989   3.691  10.036  1.2657 -4.2799 -0.8838
   68CHL1    C1 7482   4.022   3.974   9.970 -0.7065  0.7944 -0.6253
   68CHL1   H1A 7483   4.130   3.958   9.947 -0.0401 -1.9615  3.8893
   68CHL1   H1B 7484   3.988   4.074   9.936 -0.5437  0.9444 -0.3552
   68CHL1    C2 7485   4.028   3.978  10.125 -0.1887  0.2709  0.4843
   68CHL1   H2A 7486   4.101   4.055  10.156 -0.0818  0.2061  0.3971
   68CHL1   H2B 7487   4.067   3.881  10.165 -1.3011 -0.4464 -0.1435
   68CHL1   C20 7488   3.983   3.755   9.218  0.1456 -0.5993  0.5638
   68CHL1   H20 7489   4.018   3.650   9.220 -0.8985 -1.0326 -1.8496
   68CHL1   C21 7490   4.100   3.854   9.227 -1.2555  0.3129  0.3839
   68CHL1  H21A 7491   4.146   3.833   9.128 -0.0684  1.9400  0.5780
   68CHL1  H21B 7492   4.167   3.821   9.309 -0.4881  2.0281  0.4624
   68CHL1  H21C 7493   4.063   3.955   9.254  1.2513  0.9391  1.6237
   68CHL1   C22 7494   3.912   3.766   9.080 -0.1740  0.0814 -0.6367
   68CHL1  H22A 7495   3.976   3.727   8.998  0.0712 -2.3652  0.6616
   68CHL1  H22B 7496   3.819   3.705   9.087  0.7538 -1.1549  1.6800
   68CHL1   C23 7497   3.880   3.918   9.045 -0.1373  0.5407 -0.1471
   68CHL1  H23A 7498   3.839   3.975   9.131  0.2297 -0.9452  1.0312
   68CHL1  H23B 7499   3.974   3.954   8.997  0.4966 -0.2395  0.4819
   68CHL1   C24 7500   3.780   3.918   8.922  0.1338  0.6429  0.0989
   68CHL1  H24A 7501   3.798   3.841   8.844 -1.2183  0.6192 -0.2018
   68CHL1  H24B 7502   3.687   3.885   8.973 -0.0271 -1.0741 -1.2587
   68CHL1   C25 7503   3.761   4.049   8.847 -0.4194  0.2682  0.9182
   68CHL1   H25 7504   3.748   4.131   8.921  3.2274  1.6124  0.1528
   68CHL1   C26 7505   3.890   4.097   8.788 -0.0315 -0.9373  0.6754
   68CHL1  H26A 7506   3.927   4.022   8.715 -0.1411 -0.2180 -0.1225
   68CHL1  H26B 7507   3.872   4.192   8.734  1.0365 -2.6199 -2.7648
   68CHL1  H26C 7508   3.965   4.122   8.866  1.2387 -0.6646 -0.6118
   68CHL1   C27 7509   3.656   4.043   8.733 -0.0660  0.4991  0.7251
   68CHL1  H27A 7510   3.672   3.980   8.642 -1.7782  2.0183 -0.6703
   68CHL1  H27B 7511   3.562   4.003   8.777  0.2472  1.2915  2.1448
   68CHL1  H27C 7512   3.630   4.145   8.697  2.0056  0.8310  0.0770
   69CHL1    C3 7513   3.300   1.958   6.727 -0.5799  0.2818 -0.9095
   69CHL1    H3 7514   3.408   1.977   6.705 -0.3907 -1.1034 -1.1794
   69CHL1    O3 7515   3.225   1.979   6.611 -0.4618 -0.6692 -0.1594
   69CHL1   H3' 7516   3.270   1.938   6.536  3.2720  1.5238  0.7566
   69CHL1    C4 7517   3.294   1.811   6.767 -0.2234  0.0641  0.6686
   69CHL1   H4A 7518   3.188   1.778   6.773 -0.2778 -0.0877 -0.9170
   69CHL1   H4B 7519   3.341   1.756   6.683 -0.5992 -0.4006  0.7620
   69CHL1    C5 7520   3.351   1.789   6.907  0.7114 -0.2447  0.2337
   69CHL1    C6 7521   3.454   1.706   6.923  0.9090 -0.5388  0.3289
   69CHL1    H6 7522   3.509   1.662   6.838  4.0667  3.8280 -0.0961
   69CHL1    C7 7523   3.515   1.685   7.063 -1.0349  0.7517 -0.3339
   69CHL1   H7A 7524   3.536   1.577   7.075  0.1170  1.2505  2.5654
   69CHL1   H7B 7525   3.609   1.743   7.076 -0.5845 -0.3019  1.2722
   69CHL1    C8 7526   3.412   1.716   7.179 -0.6106 -0.1932 -0.1062
   69CHL1    H8 7527   3.326   1.647   7.174 -1.1262  0.5940 -2.5997
   69CHL1   C14 7528   3.482   1.715   7.310  0.2966  0.4634  0.0091
   69CHL1   H14 7529   3.562   1.791   7.300 -0.3645  1.3709  1.4265
   69CHL1   C15 7530   3.564   1.596   7.359 -0.2885 -0.0752  0.3338
   69CHL1  H15A 7531   3.507   1.501   7.360  1.5680 -1.2153  2.1774
   69CHL1  H15B 7532   3.650   1.578   7.290 -0.8060 -0.0558 -0.3217
   69CHL1   C16 7533   3.603   1.623   7.501  0.1388 -0.3236  0.7957
   69CHL1  H16A 7534   3.572   1.533   7.559 -1.5360 -1.3124 -1.5504
   69CHL1  H16B 7535   3.711   1.640   7.518  0.6611  0.1635 -2.5728
   69CHL1   C17 7536   3.513   1.743   7.545 -0.2394 -0.0102  0.8459
   69CHL1   H17 7537   3.579   1.829   7.524 -2.0944  0.9833 -1.0857
   69CHL1   C13 7538   3.405   1.761   7.434  0.1903  0.0769 -0.0362
   69CHL1   C18 7539   3.286   1.666   7.466 -0.0918  0.7614  0.0471
   69CHL1  H18A 7540   3.223   1.695   7.553 -1.2909  0.9376 -0.8579
   69CHL1  H18B 7541   3.210   1.691   7.388 -0.3568  2.0960  0.7166
   69CHL1  H18C 7542   3.319   1.561   7.451 -0.2381  0.8938 -1.2516
   69CHL1   C12 7543   3.339   1.903   7.408 -0.7543  0.5512  0.0415
   69CHL1  H12A 7544   3.270   1.930   7.491  0.1425 -1.9001  1.6341
   69CHL1  H12B 7545   3.416   1.982   7.406  0.1315 -0.2639  1.0498
   69CHL1   C11 7546   3.260   1.903   7.276  0.5818 -0.9960  0.4251
   69CHL1  H11A 7547   3.164   1.848   7.277 -0.3883  0.5925 -2.0611
   69CHL1  H11B 7548   3.233   2.009   7.259 -1.5760 -1.7710 -1.2311
   69CHL1    C9 7549   3.349   1.855   7.156  0.5499  0.3685  0.2346
   69CHL1    H9 7550   3.436   1.922   7.149 -0.0589  1.1835  0.4086
   69CHL1   C10 7551   3.280   1.875   7.019  0.0246  0.3662  0.0139
   69CHL1   C19 7552   3.134   1.829   7.030  0.3941 -0.2352  0.6378
   69CHL1  H19A 7553   3.085   1.819   6.931  0.9903 -0.3112  0.3463
   69CHL1  H19B 7554   3.111   1.743   7.096 -1.0775 -0.3454 -0.0203
   69CHL1  H19C 7555   3.070   1.905   7.079 -0.5296 -1.7273  1.7760
   69CHL1    C1 7556   3.289   2.023   6.983  0.4242 -0.6589  0.2723
   69CHL1   H1A 7557   3.233   2.079   7.060 -0.4045 -0.2371 -0.6256
   69CHL1   H1B 7558   3.391   2.064   6.994  0.5602 -1.5109  2.2932
   69CHL1    C2 7559   3.245   2.057   6.837 -0.1316  0.1159  0.1136
   69CHL1   H2A 7560   3.298   2.151   6.807  0.4173 -0.7216 -1.6180
   69CHL1   H2B 7561   3.136   2.067   6.820  0.0707 -0.0260 -1.2929
   69CHL1   C20 7562   3.473   1.735   7.694  0.0898 -0.1768 -0.0638
   69CHL1   H20 7563   3.380   1.674   7.702  1.4473 -2.4260 -0.8560
   69CHL1   C21 7564   3.445   1.875   7.742 -0.7503 -0.4924  0.1442
   69CHL1  H21A 7565   3.386   1.928   7.664 -1.6716 -0.9424  0.5232
   69CHL1  H21B 7566   3.546   1.922   7.743 -0.4045 -1.1003 -2.4319
   69CHL1  H21C 7567   3.391   1.875   7.839 -0.3159 -4.4924  0.4672
   69CHL1   C22 7568   3.578   1.664   7.789  0.1722  0.2581  0.0957
   69CHL1  H22A 7569   3.595   1.559   7.756  0.4449  0.5066 -0.5700
   69CHL1  H22B 7570   3.677   1.715   7.790  0.3021 -0.0009  0.7013
   69CHL1   C23 7571   3.540   1.657   7.939  0.5806  0.7155 -0.3090
   69CHL1  H23A 7572   3.617   1.595   7.990  0.3638  1.3259  0.7763
   69CHL1  H23B 7573   3.566   1.755   7.984  1.0041  0.1386  0.7408
   69CHL1   C24 7574   3.397   1.610   7.958  0.0375  1.1077 -0.2012
   69CHL1  H24A 7575   3.334   1.688   7.909  1.5808  1.4310 -1.7214
   69CHL1  H24B 7576   3.395   1.516   7.900  1.4295  1.9486 -1.6741
   69CHL1   C25 7577   3.355   1.590   8.107  0.0643  0.3601  0.0707
   69CHL1   H25 7578   3.344   1.693   8.146 -0.7942  0.0910  0.5647
   69CHL1   C26 7579   3.210   1.519   8.124  0.4454 -0.1668  0.0893
   69CHL1  H26A 7580   3.120   1.572   8.086 -0.1306  0.1143  1.8090
   69CHL1  H26B 7581   3.216   1.421   8.071  2.5074  0.6600 -1.3055
   69CHL1  H26C 7582   3.188   1.504   8.232 -0.6322 -2.0807 -0.3781
   69CHL1   C27 7583   3.454   1.517   8.200  0.3063 -0.1371  0.1462
   69CHL1  H27A 7584   3.552   1.568   8.211 -0.4213  1.5819 -1.1893
   69CHL1  H27B 7585   3.411   1.495   8.301 -1.1325  1.0062 -0.2108
   69CHL1  H27C 7586   3.492   1.419   8.163  0.5952  0.5489 -1.3935
   70CHL1    C3 7587   2.160   5.506   7.003  0.0983  0.0832 -0.0825
   70CHL1    H3 7588   2.077   5.578   7.022 -3.2474 -3.5534 -0.2908
   70CHL1    O3 7589   2.163   5.477   6.868 -0.1266 -0.0980 -0.2472
   70CHL1   H3' 7590   2.253   5.446   6.852  0.2742  0.4172  0.9522
   70CHL1    C4 7591   2.303   5.538   7.062 -0.0656  0.7257  0.0349
   70CHL1   H4A 7592   2.384   5.472   7.024  1.6075  2.4077  0.5971
   70CHL1   H4B 7593   2.333   5.634   7.016 -2.1647  1.7651  0.7643
   70CHL1    C5 7594   2.296   5.555   7.212 -0.6961 -0.5705 -0.1298
   70CHL1    C6 7595   2.342   5.674   7.262 -0.5685 -0.8836 -0.0008
   70CHL1    H6 7596   2.379   5.747   7.188 -2.8301  0.2581 -0.0176
   70CHL1    C7 7597   2.345   5.709   7.406  0.7560  0.0675  0.5489
   70CHL1   H7A 7598   2.448   5.734   7.438  1.3612 -1.8716  0.1730
   70CHL1   H7B 7599   2.278   5.793   7.434  0.5844 -0.4935  1.8387
   70CHL1    C8 7600   2.323   5.585   7.491  0.1169 -0.2155  0.3830
   70CHL1    H8 7601   2.417   5.526   7.486 -1.0047 -2.0013  0.0089
   70CHL1   C14 7602   2.307   5.634   7.637  0.2171 -1.0029 -1.5801
   70CHL1   H14 7603   2.222   5.707   7.639  1.1517  0.0827 -0.1895
   70CHL1   C15 7604   2.414   5.710   7.705 -0.3695  0.2113  0.5704
   70CHL1  H15A 7605   2.514   5.663   7.693 -0.5001  0.0218  0.2408
   70CHL1  H15B 7606   2.428   5.815   7.670 -2.1107  0.2427 -0.0723
   70CHL1   C16 7607   2.378   5.696   7.849 -0.1326  0.1444  0.0683
   70CHL1  H16A 7608   2.472   5.656   7.894  1.2628  0.9524 -2.0441
   70CHL1  H16B 7609   2.357   5.788   7.907 -1.4665 -0.1240  0.0276
   70CHL1   C17 7610   2.274   5.587   7.864  0.7061  0.1062 -0.1318
   70CHL1   H17 7611   2.175   5.637   7.869  1.6419  2.0931 -0.6002
   70CHL1   C13 7612   2.281   5.516   7.735 -0.2863 -0.9405 -1.1882
   70CHL1   C18 7613   2.396   5.414   7.731 -0.1077 -0.1756 -0.2345
   70CHL1  H18A 7614   2.423   5.369   7.634  0.1900 -2.4774  0.8965
   70CHL1  H18B 7615   2.486   5.458   7.781  0.0707 -0.4592 -0.3099
   70CHL1  H18C 7616   2.374   5.325   7.793  0.6146  0.1157  0.4499
   70CHL1   C12 7617   2.148   5.446   7.695  0.0054  0.5173  0.0533
   70CHL1  H12A 7618   2.126   5.357   7.758  1.5748 -0.3226 -0.5721
   70CHL1  H12B 7619   2.057   5.510   7.692  0.2682  0.9390  1.0182
   70CHL1   C11 7620   2.148   5.393   7.545  0.3750 -0.0029 -0.4362
   70CHL1  H11A 7621   2.222   5.310   7.543  0.8023  0.3896 -1.1874
   70CHL1  H11B 7622   2.043   5.366   7.521  0.3333  2.2870 -3.0525
   70CHL1    C9 7623   2.201   5.505   7.448 -0.0617  0.1923  0.1819
   70CHL1    H9 7624   2.116   5.577   7.446  0.4993  0.9072  1.5812
   70CHL1   C10 7625   2.223   5.452   7.296  0.1923 -0.2254 -0.2874
   70CHL1   C19 7626   2.309   5.323   7.314  0.5773 -0.6068 -0.2443
   70CHL1  H19A 7627   2.243   5.240   7.346  1.0255 -0.7060  0.4281
   70CHL1  H19B 7628   2.360   5.309   7.217  1.2055  1.4474 -0.2463
   70CHL1  H19C 7629   2.395   5.337   7.383  1.2274  0.9893 -1.3549
   70CHL1    C1 7630   2.090   5.405   7.228 -0.0134 -0.2996  0.4351
   70CHL1   H1A 7631   2.051   5.313   7.277  1.2571 -0.7655  0.5802
   70CHL1   H1B 7632   2.015   5.484   7.251  0.4988 -0.1825  1.7435
   70CHL1    C2 7633   2.102   5.382   7.075 -0.1658 -0.0559 -0.3618
   70CHL1   H2A 7634   1.999   5.359   7.038 -0.3635  0.2726 -0.0253
   70CHL1   H2B 7635   2.172   5.300   7.051  1.7722  1.8348 -1.2935
   70CHL1   C20 7636   2.294   5.508   7.997 -0.9976  0.5335  0.5338
   70CHL1   H20 7637   2.392   5.459   8.011 -1.3805  0.3166  2.6621
   70CHL1   C21 7638   2.182   5.405   8.016  0.0897  0.8855  0.0840
   70CHL1  H21A 7639   2.163   5.399   8.125 -2.9006  3.1543 -0.2516
   70CHL1  H21B 7640   2.199   5.305   7.971  2.2476  1.1688  0.2210
   70CHL1  H21C 7641   2.089   5.444   7.969  0.7800  2.9591  0.3950
   70CHL1   C22 7642   2.290   5.598   8.125  0.0402 -0.0161 -0.0506
   70CHL1  H22A 7643   2.294   5.524   8.208  0.1557 -1.8327 -1.6417
   70CHL1  H22B 7644   2.375   5.669   8.116  0.6960 -0.6640  0.9856
   70CHL1   C23 7645   2.164   5.682   8.138 -0.2214 -0.2899 -0.2218
   70CHL1  H23A 7646   2.168   5.763   8.062  1.9112  0.4153  0.6030
   70CHL1  H23B 7647   2.073   5.620   8.123  0.6698 -2.0279  1.4922
   70CHL1   C24 7648   2.161   5.744   8.282  1.1636 -0.0644  0.6589
   70CHL1  H24A 7649   2.178   5.666   8.360  0.2626  1.1473  2.0885
   70CHL1  H24B 7650   2.241   5.820   8.296  0.0408  1.3455 -0.4500
   70CHL1   C25 7651   2.028   5.805   8.324 -0.1066  0.6549  0.1478
   70CHL1   H25 7652   1.948   5.728   8.317 -1.6981  2.0997  1.9840
   70CHL1   C26 7653   2.038   5.848   8.469  0.0973  0.0005 -0.0339
   70CHL1  H26A 7654   1.941   5.892   8.498 -0.9414 -2.8896  1.1030
   70CHL1  H26B 7655   2.049   5.758   8.534  1.3887  0.7910  0.8577
   70CHL1  H26C 7656   2.121   5.922   8.476 -0.4557  0.7251 -1.0745
   70CHL1   C27 7657   1.999   5.922   8.239 -0.3115 -0.0302  0.2917
   70CHL1  H27A 7658   2.064   6.008   8.264 -0.1424 -0.3380  0.9326
   70CHL1  H27B 7659   2.011   5.910   8.129  2.5975 -0.8771  0.6630
   70CHL1  H27C 7660   1.895   5.961   8.242 -0.1665  0.3798 -0.0546
   71CHL1    C3 7661   2.148   0.592   6.740  0.5739 -0.6078  0.2199
   71CHL1    H3 7662   2.052   0.540   6.760 -0.6308  0.3524 -2.7241
   71CHL1    O3 7663   2.172   0.571   6.598  0.2765  0.1416 -0.0938
   71CHL1   H3' 7664   2.267   0.561   6.589  0.1981 -0.3183 -0.4521
   71CHL1    C4 7665   2.119   0.741   6.775 -0.3498 -0.2658  0.0107
   71CHL1   H4A 7666   2.213   0.797   6.753  0.9947 -1.9128  1.4986
   71CHL1   H4B 7667   2.041   0.782   6.706 -0.4933 -1.5228 -0.5831
   71CHL1    C5 7668   2.084   0.767   6.918  0.3512 -0.4701  0.0230
   71CHL1    C6 7669   1.971   0.819   6.963 -0.5422 -0.4826 -0.4532
   71CHL1    H6 7670   1.893   0.851   6.892  1.1359 -1.2797 -2.7178
   71CHL1    C7 7671   1.931   0.836   7.106  0.3294 -0.0215  0.1191
   71CHL1   H7A 7672   1.889   0.939   7.117 -0.6624 -0.4409  0.3580
   71CHL1   H7B 7673   1.856   0.760   7.137  1.7278 -1.2963  0.4102
   71CHL1    C8 7674   2.054   0.822   7.199 -0.2332  0.0611  0.1296
   71CHL1    H8 7675   2.117   0.912   7.182  0.1760 -0.3530 -0.5958
   71CHL1   C14 7676   2.009   0.820   7.344 -0.8311 -0.3901 -0.9737
   71CHL1   H14 7677   1.947   0.729   7.356 -0.6168 -0.3347  0.6836
   71CHL1   C15 7678   1.901   0.923   7.386 -0.3149 -0.1403 -0.6438
   71CHL1  H15A 7679   1.942   1.019   7.347  1.0809 -0.8002 -0.7936
   71CHL1  H15B 7680   1.797   0.912   7.347  0.1889 -1.7229 -1.5701
   71CHL1   C16 7681   1.900   0.907   7.538  0.3821 -0.0817 -0.2673
   71CHL1  H16A 7682   1.931   1.004   7.583  0.3051  0.6877 -1.8313
   71CHL1  H16B 7683   1.808   0.862   7.582  0.5540  1.2866  1.5724
   71CHL1   C17 7684   2.020   0.817   7.582 -0.8119  1.0521  0.1749
   71CHL1   H17 7685   1.976   0.716   7.599  1.8160 -0.1270  0.2992
   71CHL1   C13 7686   2.109   0.802   7.455 -0.2570  0.0133 -0.1685
   71CHL1   C18 7687   2.207   0.920   7.456 -0.5631  0.7078  0.3971
   71CHL1  H18A 7688   2.283   0.918   7.375 -1.8123  0.2317 -0.7885
   71CHL1  H18B 7689   2.170   1.024   7.466 -2.8791 -0.1982  1.5643
   71CHL1  H18C 7690   2.274   0.895   7.541 -0.7053 -2.2163 -0.3002
   71CHL1   C12 7691   2.186   0.672   7.425  0.2482 -0.4179 -0.0726
   71CHL1  H12A 7692   2.279   0.658   7.483  1.7668  1.0859 -2.0753
   71CHL1  H12B 7693   2.119   0.591   7.462  0.8048 -1.6499 -1.6870
   71CHL1   C11 7694   2.231   0.658   7.280  0.6808 -0.1844 -0.2264
   71CHL1  H11A 7695   2.312   0.734   7.271  0.9094 -0.6237 -1.9663
   71CHL1  H11B 7696   2.279   0.560   7.260  2.5561  0.8246 -0.8646
   71CHL1    C9 7697   2.131   0.695   7.162 -0.2793  0.5938  0.3092
   71CHL1    H9 7698   2.051   0.618   7.166  1.0668 -0.7380  5.4944
   71CHL1   C10 7699   2.194   0.705   7.016  0.6588 -0.7473 -0.0469
   71CHL1   C19 7700   2.311   0.808   7.031  0.1596  0.1389 -0.0911
   71CHL1  H19A 7701   2.362   0.827   6.935  2.3645  0.0745  1.0275
   71CHL1  H19B 7702   2.287   0.909   7.071  1.4660  0.4172  0.0097
   71CHL1  H19C 7703   2.388   0.771   7.101  0.7112  1.7899  0.1971
   71CHL1    C1 7704   2.246   0.562   6.976  0.1845  0.4723  0.3180
   71CHL1   H1A 7705   2.334   0.543   7.041  0.6377 -0.1445 -0.4609
   71CHL1   H1B 7706   2.164   0.495   7.007 -0.2041 -0.7420 -3.0613
   71CHL1    C2 7707   2.270   0.545   6.827  0.2848  0.6425  0.0090
   71CHL1   H2A 7708   2.267   0.437   6.803  0.1351  0.8319 -0.8459
   71CHL1   H2B 7709   2.366   0.591   6.793  1.6599 -0.9836  1.6023
   71CHL1   C20 7710   2.078   0.858   7.712  0.3583  0.0139 -0.6583
   71CHL1   H20 7711   2.131   0.956   7.706  1.2591 -0.4542 -0.3806
   71CHL1   C21 7712   2.177   0.754   7.753  0.0705  0.0752 -0.5477
   71CHL1  H21A 7713   2.226   0.799   7.842  2.0875 -1.4140 -0.8695
   71CHL1  H21B 7714   2.261   0.746   7.681 -0.5453 -0.7629 -1.1798
   71CHL1  H21C 7715   2.139   0.652   7.772 -1.3567  0.7772  0.5073
   71CHL1   C22 7716   1.969   0.860   7.822 -0.0563  0.2435  0.1090
   71CHL1  H22A 7717   2.012   0.874   7.924 -2.6951 -1.3303  1.4716
   71CHL1  H22B 7718   1.902   0.947   7.805 -0.6567 -0.3158 -0.3980
   71CHL1   C23 7719   1.878   0.731   7.845 -0.7071 -0.3140  0.0565
   71CHL1  H23A 7720   1.825   0.725   7.747 -0.9930 -2.4797  0.3350
   71CHL1  H23B 7721   1.944   0.643   7.859 -0.8402 -0.1713  1.6337
   71CHL1   C24 7722   1.782   0.743   7.965 -0.1569  0.1498 -0.0091
   71CHL1  H24A 7723   1.846   0.725   8.054 -0.6957  0.4914  0.4568
   71CHL1  H24B 7724   1.752   0.850   7.972  0.6660  0.2583  2.4736
   71CHL1   C25 7725   1.660   0.647   7.957  0.0527  0.9290  0.4200
   71CHL1   H25 7726   1.610   0.654   7.858 -0.2285 -3.8290  0.1277
   71CHL1   C26 7727   1.712   0.505   7.969  0.0816  0.1260  0.3044
   71CHL1  H26A 7728   1.765   0.474   7.876 -0.6657  0.0282 -0.0913
   71CHL1  H26B 7729   1.774   0.478   8.057 -4.3251 -0.5068  3.3708
   71CHL1  H26C 7730   1.633   0.428   7.977  0.9161 -0.6852  0.7637
   71CHL1   C27 7731   1.555   0.679   8.068 -0.3187 -0.1539 -0.1390
   71CHL1  H27A 7732   1.459   0.624   8.061  0.4853 -1.4413 -1.4486
   71CHL1  H27B 7733   1.600   0.655   8.166  0.4191 -0.2259 -0.4947
   71CHL1  H27C 7734   1.535   0.788   8.068  0.8895  0.0712 -0.1345
   72CHL1    C3 7735   2.227   6.115   7.147 -0.0575  0.0377 -0.2604
   72CHL1    H3 7736   2.195   6.010   7.165 -1.5658  0.0206 -2.9576
   72CHL1    O3 7737   2.196   6.154   7.010 -0.2983 -0.3791 -0.4448
   72CHL1   H3' 7738   2.104   6.183   7.009 -0.2858 -0.3287 -0.1139
   72CHL1    C4 7739   2.147   6.200   7.252 -0.2258  0.6079  1.0763
   72CHL1   H4A 7740   2.178   6.305   7.233  1.1921  0.0080 -0.0367
   72CHL1   H4B 7741   2.039   6.182   7.236  0.5733 -3.6644 -0.0510
   72CHL1    C5 7742   2.186   6.172   7.394 -0.4389 -0.2606 -0.6204
   72CHL1    C6 7743   2.100   6.135   7.489  0.1735  0.4887 -0.2032
   72CHL1    H6 7744   1.995   6.110   7.466  0.7267 -1.6242 -0.5619
   72CHL1    C7 7745   2.141   6.107   7.631  0.8479 -0.7252  0.5353
   72CHL1   H7A 7746   2.070   6.159   7.698  1.4347  1.3005 -0.3708
   72CHL1   H7B 7747   2.146   5.998   7.652  0.6115 -0.6807  0.8152
   72CHL1    C8 7748   2.277   6.164   7.675  0.5826  0.1253  0.6947
   72CHL1    H8 7749   2.255   6.272   7.688 -1.6246 -0.1381 -0.6127
   72CHL1   C14 7750   2.322   6.099   7.807  0.4417 -0.9364 -0.0008
   72CHL1   H14 7751   2.329   5.991   7.782 -0.9904 -0.6138 -1.9311
   72CHL1   C15 7752   2.222   6.115   7.926 -0.0350  0.4899 -0.6709
   72CHL1  H15A 7753   2.178   6.217   7.933 -2.5532 -0.6003 -0.0040
   72CHL1  H15B 7754   2.131   6.053   7.915 -1.2258  1.7386  1.6724
   72CHL1   C16 7755   2.312   6.087   8.051 -0.0672  0.5708  0.2379
   72CHL1  H16A 7756   2.293   6.170   8.123 -0.6488  0.9847 -0.3822
   72CHL1  H16B 7757   2.285   5.988   8.092  4.1622 -0.6319  0.3383
   72CHL1   C17 7758   2.459   6.074   8.003 -0.4374 -0.0718 -0.7087
   72CHL1   H17 7759   2.477   5.968   7.974  1.4147  0.5796 -2.0793
   72CHL1   C13 7760   2.458   6.144   7.865  0.1515 -0.9132 -0.0340
   72CHL1   C18 7761   2.458   6.293   7.902  0.3158 -0.5850 -0.0254
   72CHL1  H18A 7762   2.374   6.320   7.969 -0.4352 -1.9349 -0.3916
   72CHL1  H18B 7763   2.552   6.323   7.952  0.0587 -2.1944  1.4486
   72CHL1  H18C 7764   2.446   6.355   7.810 -1.8890  0.4585  0.9252
   72CHL1   C12 7765   2.560   6.109   7.750 -0.0902 -0.0945 -0.3584
   72CHL1  H12A 7766   2.661   6.142   7.783 -0.3452  0.4458 -0.1016
   72CHL1  H12B 7767   2.560   5.998   7.752 -0.8337 -0.0817  0.9312
   72CHL1   C11 7768   2.525   6.161   7.608  0.0117 -0.1422  0.0186
   72CHL1  H11A 7769   2.544   6.271   7.601  0.6802 -0.2295  0.3882
   72CHL1  H11B 7770   2.596   6.110   7.539 -1.0592 -1.0177 -0.4456
   72CHL1    C9 7771   2.377   6.137   7.563 -0.4415 -0.0415  1.2303
   72CHL1    H9 7772   2.365   6.026   7.555  1.8904 -0.2314 -0.0269
   72CHL1   C10 7773   2.338   6.197   7.421  0.0953  0.3420 -0.0070
   72CHL1   C19 7774   2.376   6.346   7.420 -0.7459  0.7143 -0.0604
   72CHL1  H19A 7775   2.359   6.404   7.327 -1.6206 -1.0390 -1.0184
   72CHL1  H19B 7776   2.325   6.402   7.501 -0.4372 -0.7284  1.1576
   72CHL1  H19C 7777   2.481   6.363   7.449 -0.1410 -0.1681 -1.6603
   72CHL1    C1 7778   2.414   6.112   7.318 -0.1524 -0.0724 -0.0532
   72CHL1   H1A 7779   2.523   6.130   7.328 -0.4176  0.6543  1.6344
   72CHL1   H1B 7780   2.407   6.005   7.346  0.3054 -0.3320 -0.9125
   72CHL1    C2 7781   2.379   6.125   7.170 -0.2110 -0.1803 -0.3379
   72CHL1   H2A 7782   2.434   6.039   7.126 -2.4215 -2.2484  0.7975
   72CHL1   H2B 7783   2.415   6.222   7.129 -0.0693 -0.0404  0.1165
   72CHL1   C20 7784   2.554   6.118   8.112  0.0517  0.1411  0.3570
   72CHL1   H20 7785   2.523   6.219   8.146 -0.3973 -0.2146  1.0128
   72CHL1   C21 7786   2.698   6.119   8.063 -0.1181 -0.2243  0.0505
   72CHL1  H21A 7787   2.770   6.123   8.148 -0.0975 -1.4515  0.0976
   72CHL1  H21B 7788   2.730   6.207   8.003  1.9684  0.6567  2.3295
   72CHL1  H21C 7789   2.730   6.023   8.017 -1.5909 -0.3096 -0.8103
   72CHL1   C22 7790   2.539   6.016   8.236  0.3445  0.0955  0.0326
   72CHL1  H22A 7791   2.434   5.981   8.244 -0.1653  1.4747 -0.4512
   72CHL1  H22B 7792   2.599   5.933   8.194  2.7391  1.3590  0.8734
   72CHL1   C23 7793   2.592   6.063   8.370  0.3510 -0.4105  0.2582
   72CHL1  H23A 7794   2.591   5.981   8.445  0.8326  0.4615  1.2393
   72CHL1  H23B 7795   2.699   6.092   8.361  0.9293 -1.7061  2.4738
   72CHL1   C24 7796   2.523   6.185   8.432 -0.0372  0.2952 -0.0014
   72CHL1  H24A 7797   2.559   6.190   8.537 -0.6064 -1.0079  0.2645
   72CHL1  H24B 7798   2.553   6.276   8.375  0.8850  0.9192  1.4617
   72CHL1   C25 7799   2.372   6.177   8.457 -0.1105  1.0332  0.4167
   72CHL1   H25 7800   2.319   6.130   8.370 -3.1481  1.8727  1.7418
   72CHL1   C26 7801   2.345   6.086   8.578  0.2642 -0.6642  0.9152
   72CHL1  H26A 7802   2.385   6.131   8.672  2.5438  1.2885 -0.9257
   72CHL1  H26B 7803   2.234   6.080   8.576  0.1753  0.5676  1.7429
   72CHL1  H26C 7804   2.388   5.983   8.579  1.7422 -0.0695  0.6649
   72CHL1   C27 7805   2.309   6.308   8.496  0.7106 -0.2886  0.2505
   72CHL1  H27A 7806   2.371   6.361   8.571  1.5276 -0.5375 -0.2348
   72CHL1  H27B 7807   2.300   6.377   8.409  0.6209 -1.2957 -0.5505
   72CHL1  H27C 7808   2.214   6.288   8.549 -0.1135  2.8790  0.0451
   73CHL1    C3 7809   2.113   2.069   6.987  0.0036  0.2521 -0.7604
   73CHL1    H3 7810   2.095   2.153   7.058 -1.4247 -2.0843  1.7557
   73CHL1    O3 7811   2.156   2.119   6.862 -0.5263 -0.8061 -0.1240
   73CHL1   H3' 7812   2.176   2.046   6.804 -0.4457  0.8485 -2.2202
   73CHL1    C4 7813   2.220   1.977   7.044  0.4472  0.1135 -0.1694
   73CHL1   H4A 7814   2.222   1.889   6.975 -0.6971  0.5902 -0.8253
   73CHL1   H4B 7815   2.320   2.025   7.040  2.6042 -4.0807  0.6601
   73CHL1    C5 7816   2.185   1.939   7.187 -0.0548 -0.7179 -0.2116
   73CHL1    C6 7817   2.260   1.971   7.293  0.0652  0.3321  0.5795
   73CHL1    H6 7818   2.357   2.021   7.284 -0.0723  0.2120 -1.7956
   73CHL1    C7 7819   2.221   1.930   7.427 -0.0579  0.2079  0.0543
   73CHL1   H7A 7820   2.300   1.868   7.475  1.5524  1.2043 -1.2297
   73CHL1   H7B 7821   2.201   2.017   7.493 -4.0466  1.8008 -3.0026
   73CHL1    C8 7822   2.097   1.837   7.450  0.0330 -0.1440 -0.0046
   73CHL1    H8 7823   2.144   1.739   7.426 -1.7255 -0.6093 -1.7732
   73CHL1   C14 7824   2.046   1.854   7.594 -0.3082  0.6782  0.3737
   73CHL1   H14 7825   1.991   1.951   7.592  0.2614  0.9951  0.0761
   73CHL1   C15 7826   2.140   1.851   7.720 -0.7581 -0.4901  0.1443
   73CHL1  H15A 7827   2.218   1.773   7.713  2.2299  2.2929  1.3378
   73CHL1  H15B 7828   2.186   1.950   7.736  0.3694 -0.7630 -1.3368
   73CHL1   C16 7829   2.041   1.819   7.836 -0.7419  0.7378 -0.5065
   73CHL1  H16A 7830   2.072   1.721   7.878 -1.2105  0.8160  0.0194
   73CHL1  H16B 7831   2.037   1.900   7.912 -0.3831  0.0692  0.2339
   73CHL1   C17 7832   1.904   1.789   7.771 -1.0312  0.4174 -0.3406
   73CHL1   H17 7833   1.845   1.883   7.759 -1.0164  0.5168  0.3106
   73CHL1   C13 7834   1.933   1.752   7.621  0.3616 -0.6459 -0.3798
   73CHL1   C18 7835   1.995   1.608   7.623 -0.1351 -0.3393  0.1115
   73CHL1  H18A 7836   1.915   1.531   7.631  1.3317 -1.8563  0.4007
   73CHL1  H18B 7837   2.026   1.583   7.520  1.7836 -0.6681  0.7569
   73CHL1  H18C 7838   2.090   1.604   7.679  1.1761  0.6351 -1.9873
   73CHL1   C12 7839   1.822   1.763   7.513  0.1580  0.6610 -0.5685
   73CHL1  H12A 7840   1.754   1.675   7.518  1.2918 -0.2634 -1.2533
   73CHL1  H12B 7841   1.754   1.849   7.528  1.0773  1.3901 -0.5278
   73CHL1   C11 7842   1.871   1.757   7.365  0.4138  0.2015  0.0181
   73CHL1  H11A 7843   1.904   1.652   7.346  0.2648 -0.0361  1.0650
   73CHL1  H11B 7844   1.790   1.781   7.293 -1.0508 -1.4483  1.0828
   73CHL1    C9 7845   1.988   1.859   7.339 -0.5311 -0.3819 -0.0185
   73CHL1    H9 7846   1.950   1.961   7.359 -1.3288  0.2727 -4.3669
   73CHL1   C10 7847   2.048   1.861   7.194 -0.5681 -1.2564  0.2897
   73CHL1   C19 7848   2.080   1.711   7.152  0.6655  1.0850  0.2912
   73CHL1  H19A 7849   2.131   1.700   7.054 -0.3099  0.3351 -0.1400
   73CHL1  H19B 7850   2.148   1.664   7.226 -0.4139 -2.0428 -0.6453
   73CHL1  H19C 7851   1.987   1.651   7.150  1.5095 -0.2454  0.2068
   73CHL1    C1 7852   1.939   1.919   7.101  0.2984  0.1687 -0.4085
   73CHL1   H1A 7853   1.863   1.843   7.073  0.6493 -0.6344  0.7605
   73CHL1   H1B 7854   1.892   1.992   7.170  1.7318  1.8006 -1.1183
   73CHL1    C2 7855   1.984   1.990   6.972  0.0542  0.7174  0.1825
   73CHL1   H2A 7856   1.912   2.068   6.939 -0.3152 -0.8109 -2.7272
   73CHL1   H2B 7857   1.998   1.909   6.897 -1.5052 -1.0016  1.6978
   73CHL1   C20 7858   1.822   1.707   7.868 -0.1575 -0.6889 -1.3768
   73CHL1   H20 7859   1.877   1.617   7.901  1.2099  0.6675  0.1303
   73CHL1   C21 7860   1.690   1.671   7.794 -0.9261 -0.3072 -0.2487
   73CHL1  H21A 7861   1.615   1.613   7.852 -0.7895 -1.1982 -0.9469
   73CHL1  H21B 7862   1.719   1.603   7.711  0.3790  2.3050 -2.0112
   73CHL1  H21C 7863   1.638   1.758   7.748  0.4968 -0.1289 -1.5733
   73CHL1   C22 7864   1.783   1.787   7.990 -0.1797 -0.3309  0.0537
   73CHL1  H22A 7865   1.875   1.827   8.037 -0.9670 -0.4809  1.7625
   73CHL1  H22B 7866   1.698   1.857   7.979 -0.9962 -1.1962  0.7219
   73CHL1   C23 7867   1.731   1.692   8.107  0.5848  0.0279 -0.1445
   73CHL1  H23A 7868   1.650   1.634   8.057 -0.3295  2.1528 -1.1870
   73CHL1  H23B 7869   1.814   1.628   8.143  0.7550  0.5521  0.4087
   73CHL1   C24 7870   1.668   1.791   8.212  0.2945 -0.3904 -0.3914
   73CHL1  H24A 7871   1.739   1.871   8.242 -1.3988 -0.0252  2.9568
   73CHL1  H24B 7872   1.575   1.845   8.183  0.7888  0.7809  0.1559
   73CHL1   C25 7873   1.638   1.735   8.351  0.1668  0.0709  0.7157
   73CHL1   H25 7874   1.723   1.671   8.384 -0.9493 -1.8564 -0.0955
   73CHL1   C26 7875   1.610   1.855   8.441 -0.0953  0.4023 -0.5593
   73CHL1  H26A 7876   1.701   1.917   8.456  0.6439 -1.7173  4.7758
   73CHL1  H26B 7877   1.525   1.914   8.402  1.1206  1.6168 -1.4438
   73CHL1  H26C 7878   1.574   1.831   8.543  0.6020  1.1310 -0.1337
   73CHL1   C27 7879   1.508   1.651   8.346  0.4761 -1.1830 -0.1230
   73CHL1  H27A 7880   1.498   1.585   8.435 -1.3831 -3.5106 -2.0192
   73CHL1  H27B 7881   1.411   1.706   8.342 -0.2085 -2.1812  1.9843
   73CHL1  H27C 7882   1.513   1.585   8.257 -2.3891 -1.7437  0.0975
   74CHL1    C3 7883   0.806   0.719   6.909 -0.4299  0.1822 -0.4694
   74CHL1    H3 7884   0.738   0.632   6.924 -2.1431  1.4474 -0.7310
   74CHL1    O3 7885   0.798   0.757   6.767 -0.1640 -0.2510 -0.4081
   74CHL1   H3' 7886   0.848   0.838   6.756 -1.6977  0.9956  1.4740
   74CHL1    C4 7887   0.753   0.832   6.999  0.1702 -0.5240 -0.4625
   74CHL1   H4A 7888   0.820   0.915   6.969  1.8396 -2.6440 -2.8449
   74CHL1   H4B 7889   0.650   0.847   6.962  0.5138 -2.0826 -2.1534
   74CHL1    C5 7890   0.758   0.809   7.150  0.0620 -0.1877  0.3581
   74CHL1    C6 7891   0.649   0.824   7.228 -0.3553  0.8095 -0.3998
   74CHL1    H6 7892   0.553   0.860   7.187 -0.2060 -0.3035 -1.7433
   74CHL1    C7 7893   0.656   0.800   7.381  0.8318  0.0573  0.2776
   74CHL1   H7A 7894   0.600   0.880   7.434  1.0087  1.3022 -1.3922
   74CHL1   H7B 7895   0.596   0.708   7.398  0.1315 -0.0443 -2.5226
   74CHL1    C8 7896   0.799   0.777   7.433  0.5571  0.0736  0.2809
   74CHL1    H8 7897   0.850   0.876   7.441 -1.2142  1.0277  0.0410
   74CHL1   C14 7898   0.792   0.701   7.565 -0.7755  0.2902 -0.4618
   74CHL1   H14 7899   0.748   0.601   7.542 -0.3307 -0.4063  1.6233
   74CHL1   C15 7900   0.695   0.748   7.679 -0.5366 -1.2660 -0.5031
   74CHL1  H15A 7901   0.715   0.856   7.699  1.8409 -1.3687 -2.1200
   74CHL1  H15B 7902   0.589   0.716   7.668 -0.9628 -0.2971  0.6731
   74CHL1   C16 7903   0.755   0.686   7.815  0.2876  0.4636  0.3666
   74CHL1  H16A 7904   0.771   0.774   7.882 -0.2949  2.4564 -2.0396
   74CHL1  H16B 7905   0.683   0.618   7.864 -0.8173  1.7900  0.6101
   74CHL1   C17 7906   0.894   0.625   7.779  0.0851  0.1517 -0.2764
   74CHL1   H17 7907   0.870   0.517   7.767 -0.9181  0.5008 -1.5484
   74CHL1   C13 7908   0.921   0.674   7.631 -0.1766 -0.1605 -0.1123
   74CHL1   C18 7909   1.003   0.815   7.653  0.1049  0.1052  0.3057
   74CHL1  H18A 7910   1.111   0.803   7.676 -0.1564 -0.1744  1.4281
   74CHL1  H18B 7911   0.989   0.888   7.571  0.3449  1.1390  1.1714
   74CHL1  H18C 7912   0.965   0.874   7.739 -1.1571  0.3083 -0.3810
   74CHL1   C12 7913   0.998   0.577   7.538 -0.0359 -0.1196  0.9078
   74CHL1  H12A 7914   1.091   0.541   7.588  0.5772  1.5687  0.9957
   74CHL1  H12B 7915   0.925   0.493   7.539 -0.7309  0.4827  1.2096
   74CHL1   C11 7916   1.019   0.645   7.400  0.0043  0.4356 -0.2565
   74CHL1  H11A 7917   1.100   0.719   7.417  1.0690 -0.9396  0.8460
   74CHL1  H11B 7918   1.065   0.576   7.326 -0.2823  0.8446 -0.8123
   74CHL1    C9 7919   0.887   0.696   7.332  0.0928  0.0732  0.4131
   74CHL1    H9 7920   0.823   0.607   7.315  0.2130  0.0221  0.2209
   74CHL1   C10 7921   0.900   0.764   7.197 -0.5134  0.2822  0.5019
   74CHL1   C19 7922   1.000   0.883   7.206  0.1994 -0.3048  0.3321
   74CHL1  H19A 7923   0.947   0.967   7.255  2.9664  0.7941  1.5228
   74CHL1  H19B 7924   1.094   0.843   7.250  0.7599 -0.8505 -1.2896
   74CHL1  H19C 7925   1.026   0.907   7.101  0.3111  1.0781  0.6735
   74CHL1    C1 7926   0.952   0.655   7.098 -0.4307  0.0686 -0.3834
   74CHL1   H1A 7927   1.060   0.648   7.121 -0.6895 -2.2005  0.2144
   74CHL1   H1B 7928   0.898   0.560   7.120  2.0859 -1.2715  0.1640
   74CHL1    C2 7929   0.951   0.684   6.943  0.0736  0.7596  0.2487
   74CHL1   H2A 7930   0.987   0.597   6.885  2.8059  1.3332  1.0100
   74CHL1   H2B 7931   1.011   0.774   6.918  1.2500 -0.0580  0.0927
   74CHL1   C20 7932   1.001   0.646   7.888 -0.2490  0.0231  0.0318
   74CHL1   H20 7933   1.011   0.753   7.914 -2.4314 -0.0130  1.1735
   74CHL1   C21 7934   1.134   0.595   7.843 -0.7256 -0.3327 -0.5682
   74CHL1  H21A 7935   1.119   0.491   7.807  1.0067 -0.3788 -1.2213
   74CHL1  H21B 7936   1.210   0.602   7.924  0.7004 -1.7785 -1.7261
   74CHL1  H21C 7937   1.184   0.650   7.760  2.4395 -2.0144  0.1142
   74CHL1   C22 7938   0.962   0.560   8.017 -0.5224 -0.3417  0.3238
   74CHL1  H22A 7939   0.858   0.589   8.041 -0.8113 -0.0929 -1.1513
   74CHL1  H22B 7940   0.971   0.453   7.990 -0.3544 -0.2027 -0.1827
   74CHL1   C23 7941   1.053   0.582   8.142  0.7803  0.2258 -0.1648
   74CHL1  H23A 7942   1.022   0.513   8.223  0.2485 -2.8796 -2.9087
   74CHL1  H23B 7943   1.156   0.556   8.108  0.6051 -1.8332  0.7885
   74CHL1   C24 7944   1.039   0.733   8.182  0.3420  0.0904  0.1806
   74CHL1  H24A 7945   1.094   0.800   8.113 -1.0635  1.5321  0.4153
   74CHL1  H24B 7946   0.930   0.755   8.170  0.1260 -1.3537 -0.5637
   74CHL1   C25 7947   1.060   0.771   8.327 -0.3592 -1.0031  0.2952
   74CHL1   H25 7948   0.994   0.700   8.381 -1.6355 -1.1818 -1.4629
   74CHL1   C26 7949   1.203   0.740   8.366  0.4059  0.0427 -0.2486
   74CHL1  H26A 7950   1.207   0.737   8.477  1.6078 -0.5215 -0.2911
   74CHL1  H26B 7951   1.229   0.633   8.350 -1.6777 -0.7104  1.2060
   74CHL1  H26C 7952   1.278   0.812   8.326 -0.0531  0.7161  0.1067
   74CHL1   C27 7953   1.023   0.926   8.358 -0.4226  0.1133  0.1900
   74CHL1  H27A 7954   1.078   0.992   8.287  1.9866  1.2467  3.0277
   74CHL1  H27B 7955   0.916   0.938   8.330 -0.4564  0.4101  0.4521
   74CHL1  H27C 7956   1.051   0.956   8.461 -1.0377  2.3388 -0.2550
   75CHL1    C3 7957   4.483   2.167   6.853 -0.3688  0.3542  0.9524
   75CHL1    H3 7958   4.407   2.244   6.880 -0.8547 -0.2535  1.3102
   75CHL1    O3 7959   4.510   2.180   6.717  0.0281 -0.2278  0.5571
   75CHL1   H3' 7960   4.573   2.110   6.701  0.6047  0.6213 -1.0027
   75CHL1    C4 7961   4.607   2.187   6.940 -0.5524 -0.2538 -0.1748
   75CHL1   H4A 7962   4.684   2.109   6.923  1.3514  1.7747 -1.0997
   75CHL1   H4B 7963   4.654   2.281   6.903 -1.0088 -0.0103 -0.1351
   75CHL1    C5 7964   4.580   2.196   7.087  0.0258 -0.7081  0.1173
   75CHL1    C6 7965   4.618   2.302   7.164 -0.2249 -0.1079 -0.0714
   75CHL1    H6 7966   4.665   2.394   7.125  1.0827 -0.6520  0.1924
   75CHL1    C7 7967   4.586   2.311   7.309  0.3830  0.2530  0.3867
   75CHL1   H7A 7968   4.672   2.350   7.367  1.2356  0.0490 -0.7380
   75CHL1   H7B 7969   4.491   2.366   7.326 -0.2455 -1.2486  1.8323
   75CHL1    C8 7970   4.544   2.173   7.370  0.5907  0.2181  0.0122
   75CHL1    H8 7971   4.636   2.113   7.386  1.1689  1.1255  0.1625
   75CHL1   C14 7972   4.488   2.204   7.509 -0.1391 -0.1701  0.2671
   75CHL1   H14 7973   4.408   2.278   7.487 -1.3538 -1.2833  0.8747
   75CHL1   C15 7974   4.578   2.273   7.608  0.4519  0.1318  0.1888
   75CHL1  H15A 7975   4.676   2.219   7.604  0.2709 -0.1764 -0.0886
   75CHL1  H15B 7976   4.604   2.377   7.576 -0.2415 -0.2024 -1.5264
   75CHL1   C16 7977   4.500   2.255   7.737  0.5886 -0.0553  0.2647
   75CHL1  H16A 7978   4.576   2.226   7.813  0.6504 -2.3054 -0.6345
   75CHL1  H16B 7979   4.436   2.340   7.769 -0.4423 -1.7193  2.6916
   75CHL1   C17 7980   4.388   2.136   7.717 -0.1041  0.1948  0.0855
   75CHL1   H17 7981   4.288   2.178   7.690  0.1293  0.4044 -0.4655
   75CHL1   C13 7982   4.435   2.073   7.584  0.0418  0.8310 -0.3228
   75CHL1   C18 7983   4.543   1.973   7.624  0.0499 -0.3620 -0.4175
   75CHL1  H18A 7984   4.504   1.880   7.671  1.2760 -0.5145  0.3166
   75CHL1  H18B 7985   4.610   1.961   7.536 -0.9683 -0.0355 -1.2399
   75CHL1  H18C 7986   4.609   2.020   7.700 -0.6168  0.0126 -0.0726
   75CHL1   C12 7987   4.329   2.000   7.488  0.4851  0.4499 -0.8392
   75CHL1  H12A 7988   4.300   1.906   7.540  0.2975  0.5967 -0.6770
   75CHL1  H12B 7989   4.231   2.052   7.482 -0.1133 -0.6442 -0.7001
   75CHL1   C11 7990   4.383   1.970   7.352  0.4965 -0.4611  0.4992
   75CHL1  H11A 7991   4.467   1.900   7.371  1.2709  0.0663 -0.9254
   75CHL1  H11B 7992   4.317   1.922   7.277  1.4024  0.2893 -0.8031
   75CHL1    C9 7993   4.440   2.093   7.278  0.0459  0.4401 -0.7299
   75CHL1    H9 7994   4.359   2.169   7.271 -0.2221  0.1309 -1.0132
   75CHL1   C10 7995   4.496   2.077   7.135  0.7552  0.2302 -0.2262
   75CHL1   C19 7996   4.589   1.948   7.137  0.3468 -0.3055 -0.0139
   75CHL1  H19A 7997   4.657   1.932   7.224  3.3332  0.2800 -2.1630
   75CHL1  H19B 7998   4.527   1.857   7.123 -0.1956  0.3834 -2.2373
   75CHL1  H19C 7999   4.667   1.950   7.058  0.1236  0.6846 -0.2102
   75CHL1    C1 8000   4.376   2.044   7.047 -0.5802  0.1379 -0.1557
   75CHL1   H1A 8001   4.335   1.945   7.078  0.5692  0.2363  1.7460
   75CHL1   H1B 8002   4.294   2.117   7.061 -0.5994  0.0635  0.1233
   75CHL1    C2 8003   4.404   2.034   6.895 -0.1734 -0.6203  0.6461
   75CHL1   H2A 8004   4.308   2.028   6.841  0.6209 -0.8957 -0.7660
   75CHL1   H2B 8005   4.465   1.945   6.867 -0.9494 -0.9510 -0.0160
   75CHL1   C20 8006   4.374   2.049   7.838  0.2979 -0.0440 -0.2506
   75CHL1   H20 8007   4.472   2.001   7.860  0.0195 -0.5878 -0.1829
   75CHL1   C21 8008   4.272   1.944   7.805 -0.4305 -0.0790  0.0270
   75CHL1  H21A 8009   4.186   1.990   7.752 -0.6052  1.0446  1.2538
   75CHL1  H21B 8010   4.245   1.886   7.896 -0.7494 -0.3396 -0.2324
   75CHL1  H21C 8011   4.305   1.860   7.741  3.2253  1.3105 -0.0097
   75CHL1   C22 8012   4.331   2.127   7.966 -0.0425  0.0415 -0.4332
   75CHL1  H22A 8013   4.401   2.211   7.988  1.1684 -1.1708  0.4352
   75CHL1  H22B 8014   4.233   2.177   7.953 -0.6692 -0.8273  0.8540
   75CHL1   C23 8015   4.324   2.041   8.095 -0.3463 -0.1241 -0.3250
   75CHL1  H23A 8016   4.248   1.961   8.083 -1.5159  1.1444 -1.5616
   75CHL1  H23B 8017   4.418   1.990   8.124 -1.2697 -1.0997  1.0001
   75CHL1   C24 8018   4.289   2.113   8.220 -0.1201 -0.0312 -0.3101
   75CHL1  H24A 8019   4.354   2.201   8.239 -2.2750  1.4299  0.5704
   75CHL1  H24B 8020   4.182   2.143   8.211 -0.0316  1.8829  3.6855
   75CHL1   C25 8021   4.310   2.018   8.340  0.4844 -0.0073 -0.3890
   75CHL1   H25 8022   4.399   1.955   8.320 -0.8911 -1.9993 -0.4876
   75CHL1   C26 8023   4.344   2.121   8.450  0.6017  0.0668 -0.0463
   75CHL1  H26A 8024   4.279   2.209   8.430  0.3176  0.2318  1.5424
   75CHL1  H26B 8025   4.321   2.079   8.550  0.3498 -1.3671 -0.6960
   75CHL1  H26C 8026   4.451   2.151   8.458  0.5779  0.3406 -0.6738
   75CHL1   C27 8027   4.180   1.933   8.374 -0.0286 -0.3635  0.4302
   75CHL1  H27A 8028   4.156   1.854   8.300  1.3918  0.1110 -0.5551
   75CHL1  H27B 8029   4.201   1.891   8.475 -1.5066  1.1531  1.4073
   75CHL1  H27C 8030   4.104   2.014   8.381  3.0104  2.6551 -0.7819
   76CHL1    C3 8031   1.113   4.697   7.360 -0.1938  0.0897 -0.6033
   76CHL1    H3 8032   1.083   4.799   7.391  1.2756 -0.3026  2.2708
   76CHL1    O3 8033   1.163   4.702   7.226 -0.3367 -0.8403  0.0811
   76CHL1   H3' 8034   1.221   4.627   7.216  0.3042 -0.5072  1.1520
   76CHL1    C4 8035   1.223   4.656   7.463 -0.2780  0.0421  0.0281
   76CHL1   H4A 8036   1.254   4.555   7.428 -0.0666 -0.2852  1.1262
   76CHL1   H4B 8037   1.313   4.721   7.450  0.6014 -1.5075 -1.8088
   76CHL1    C5 8038   1.165   4.651   7.601  0.2219 -1.1559  0.2294
   76CHL1    C6 8039   1.222   4.717   7.696  1.0224 -0.0372 -0.3229
   76CHL1    H6 8040   1.323   4.758   7.682  0.9544  0.3938  0.4179
   76CHL1    C7 8041   1.180   4.721   7.840 -0.1736  0.6878 -0.1313
   76CHL1   H7A 8042   1.272   4.723   7.902 -0.6726  0.8518  0.6114
   76CHL1   H7B 8043   1.115   4.810   7.855 -1.6162 -0.0902 -1.6926
   76CHL1    C8 8044   1.077   4.603   7.872  0.2300 -0.8175 -0.5140
   76CHL1    H8 8045   1.131   4.505   7.874  0.3804 -0.7481 -1.0321
   76CHL1   C14 8046   1.017   4.631   8.006  0.0992 -0.0130  0.0807
   76CHL1   H14 8047   0.961   4.727   7.995 -0.2953 -0.4340 -1.6729
   76CHL1   C15 8048   1.112   4.670   8.119 -0.0781  0.2587  0.4643
   76CHL1  H15A 8049   1.200   4.604   8.133  1.4679  1.9689 -0.8585
   76CHL1  H15B 8050   1.134   4.779   8.124  1.4200 -0.1097  3.2708
   76CHL1   C16 8051   1.017   4.660   8.240  1.0080 -0.3832 -0.0262
   76CHL1  H16A 8052   1.068   4.603   8.320  2.5211  2.0774  0.7989
   76CHL1  H16B 8053   0.985   4.760   8.277 -1.7431 -1.8879  1.9078
   76CHL1   C17 8054   0.885   4.586   8.196  0.0956  0.1136  0.0560
   76CHL1   H17 8055   0.809   4.667   8.190 -0.7309 -0.6369  0.3185
   76CHL1   C13 8056   0.913   4.527   8.059 -0.4633  0.4364 -0.1197
   76CHL1   C18 8057   0.993   4.397   8.071  0.0797  0.6533  0.9378
   76CHL1  H18A 8058   0.915   4.323   8.099 -2.7965  2.7461 -1.2483
   76CHL1  H18B 8059   1.035   4.365   7.973  1.2098 -1.3047  2.0160
   76CHL1  H18C 8060   1.078   4.411   8.142  0.1568  1.7815  0.6239
   76CHL1   C12 8061   0.803   4.520   7.954  0.3247 -0.4439  0.3669
   76CHL1  H12A 8062   0.741   4.432   7.981 -1.3770  1.1439  1.7715
   76CHL1  H12B 8063   0.742   4.613   7.953  0.0581 -0.6108 -1.1890
   76CHL1   C11 8064   0.863   4.508   7.807  0.3403  0.4693  0.3240
   76CHL1  H11A 8065   0.902   4.404   7.805  1.1047  0.7674 -1.9682
   76CHL1  H11B 8066   0.775   4.497   7.740 -1.4985 -2.7742  3.1700
   76CHL1    C9 8067   0.972   4.602   7.767 -0.5071 -0.2411  0.0907
   76CHL1    H9 8068   0.926   4.702   7.763  0.9124  0.4853  1.1777
   76CHL1   C10 8069   1.033   4.575   7.629 -0.2319 -0.0129 -0.1565
   76CHL1   C19 8070   1.087   4.427   7.617 -0.0551  0.4757  0.2253
   76CHL1  H19A 8071   1.141   4.407   7.521  1.2490  1.9083  0.6503
   76CHL1  H19B 8072   1.138   4.399   7.711 -0.1986  2.4436  0.8975
   76CHL1  H19C 8073   1.003   4.354   7.613  0.2811  0.0869  0.2674
   76CHL1    C1 8074   0.935   4.597   7.514  0.1300 -0.3982 -0.0175
   76CHL1   H1A 8075   0.855   4.521   7.522  0.3674 -0.7602 -0.9929
   76CHL1   H1B 8076   0.879   4.690   7.537  2.7772  1.5597 -1.2565
   76CHL1    C2 8077   0.999   4.600   7.373  0.0490 -0.6532  0.5759
   76CHL1   H2A 8078   0.914   4.639   7.313 -0.3537  0.7388  2.0226
   76CHL1   H2B 8079   1.033   4.496   7.353  0.1308 -0.9518  2.2008
   76CHL1   C20 8080   0.825   4.497   8.312  0.1884  0.0443 -0.0094
   76CHL1   H20 8081   0.906   4.424   8.335  2.7127  2.2502 -1.5693
   76CHL1   C21 8082   0.705   4.418   8.264  0.1570 -0.3680 -0.0920
   76CHL1  H21A 8083   0.639   4.380   8.345  0.2437 -0.4563 -0.0635
   76CHL1  H21B 8084   0.729   4.332   8.198  2.2497  0.4251 -0.3874
   76CHL1  H21C 8085   0.638   4.477   8.198 -1.2938 -1.7323  0.1101
   76CHL1   C22 8086   0.795   4.586   8.442 -0.5980 -0.0519  0.4140
   76CHL1  H22A 8087   0.878   4.654   8.472 -0.0420 -1.5293  2.3058
   76CHL1  H22B 8088   0.704   4.642   8.411 -0.2548  0.0267 -0.4811
   76CHL1   C23 8089   0.761   4.515   8.572 -0.2766  0.2377 -0.5130
   76CHL1  H23A 8090   0.732   4.603   8.633 -1.9686  1.0316 -2.4239
   76CHL1  H23B 8091   0.676   4.444   8.563  0.7636 -1.0743 -0.2030
   76CHL1   C24 8092   0.883   4.446   8.638 -0.1832 -0.8225 -0.1929
   76CHL1  H24A 8093   0.896   4.356   8.572  2.9321 -1.0926  0.6833
   76CHL1  H24B 8094   0.976   4.507   8.632 -1.0228  0.2337 -3.0159
   76CHL1   C25 8095   0.861   4.422   8.794 -0.2203 -0.0163  0.2071
   76CHL1   H25 8096   0.768   4.363   8.804 -0.1117 -0.2322 -0.0480
   76CHL1   C26 8097   0.983   4.341   8.852  0.1493 -0.1796 -0.2690
   76CHL1  H26A 8098   0.974   4.308   8.958 -0.7030 -0.1306 -0.3195
   76CHL1  H26B 8099   0.979   4.248   8.792  0.3882 -0.9586  0.9120
   76CHL1  H26C 8100   1.076   4.399   8.835  1.0498 -0.4699  3.2785
   76CHL1   C27 8101   0.840   4.550   8.879  0.5215  0.3165  0.2427
   76CHL1  H27A 8102   0.737   4.580   8.851  0.4415  0.8431  1.0838
   76CHL1  H27B 8103   0.839   4.524   8.987 -0.1852  1.1518  0.4367
   76CHL1  H27C 8104   0.927   4.614   8.854 -0.2020  1.5631  0.9214
   77CHL1    C3 8105   1.786   2.472   6.953 -0.7169  0.6363  0.2776
   77CHL1    H3 8106   1.843   2.565   6.972  2.7130 -0.9692 -1.7510
   77CHL1    O3 8107   1.766   2.453   6.813  0.6294  0.6408 -0.1397
   77CHL1   H3' 8108   1.859   2.452   6.790  0.4863  2.0894 -0.8469
   77CHL1    C4 8109   1.869   2.355   7.003 -0.0877 -0.4288 -0.1763
   77CHL1   H4A 8110   1.840   2.253   6.969 -1.3971  0.7608 -2.8154
   77CHL1   H4B 8111   1.965   2.371   6.949 -1.1383  1.2487 -1.6326
   77CHL1    C5 8112   1.874   2.358   7.158  0.1224 -0.1483  0.0422
   77CHL1    C6 8113   1.990   2.392   7.210  0.5879  0.0919 -0.0214
   77CHL1    H6 8114   2.074   2.404   7.141  1.1595  1.4621  0.8921
   77CHL1    C7 8115   2.020   2.384   7.359 -0.9866 -0.5436  0.7603
   77CHL1   H7A 8116   2.122   2.350   7.387 -0.8039  0.2558  1.0638
   77CHL1   H7B 8117   2.024   2.491   7.389  1.6326  0.3601 -2.4376
   77CHL1    C8 8118   1.899   2.322   7.437  0.9466 -0.0697  0.0924
   77CHL1    H8 8119   1.920   2.215   7.418 -2.1498 -0.6733 -0.2880
   77CHL1   C14 8120   1.896   2.349   7.590  0.0979  0.1130 -0.1403
   77CHL1   H14 8121   1.888   2.460   7.591  1.2486  0.2168 -1.1580
   77CHL1   C15 8122   2.026   2.323   7.665 -0.7448 -0.1343  0.0466
   77CHL1  H15A 8123   2.056   2.236   7.602  1.2797  0.4158  0.2215
   77CHL1  H15B 8124   2.112   2.392   7.654  0.2407 -1.6075 -1.7611
   77CHL1   C16 8125   1.994   2.287   7.810 -0.3505 -0.5283  1.0287
   77CHL1  H16A 8126   2.017   2.181   7.837 -0.7224 -0.6876  0.7344
   77CHL1  H16B 8127   2.058   2.347   7.877 -0.2261 -0.0282  0.4603
   77CHL1   C17 8128   1.840   2.316   7.821  0.9299 -0.3080  0.2258
   77CHL1   H17 8129   1.830   2.425   7.839  1.9469 -0.1827  0.0464
   77CHL1   C13 8130   1.789   2.289   7.673 -0.5034  0.6506 -0.1831
   77CHL1   C18 8131   1.764   2.142   7.658  0.1917 -0.2079  0.0207
   77CHL1  H18A 8132   1.667   2.114   7.704  0.0268  0.6996  0.2430
   77CHL1  H18B 8133   1.765   2.125   7.548 -2.1774  6.2577 -1.2622
   77CHL1  H18C 8134   1.845   2.078   7.699  0.6700  0.0497 -0.5071
   77CHL1   C12 8135   1.657   2.355   7.629  0.0985 -0.0809 -0.0022
   77CHL1  H12A 8136   1.569   2.322   7.687  0.5136  0.1059  0.7480
   77CHL1  H12B 8137   1.674   2.465   7.631  0.5791 -0.1570  0.2684
   77CHL1   C11 8138   1.641   2.328   7.474 -0.4454 -0.3988  0.1395
   77CHL1  H11A 8139   1.614   2.224   7.448  2.3365 -1.2061  0.2983
   77CHL1  H11B 8140   1.560   2.401   7.451 -2.1279 -1.6401  1.9407
   77CHL1    C9 8141   1.763   2.373   7.384  0.6054  0.7130  0.5424
   77CHL1    H9 8142   1.770   2.484   7.393 -3.7947  1.3023 -1.9597
   77CHL1   C10 8143   1.745   2.341   7.232 -0.2818 -0.5091  0.8681
   77CHL1   C19 8144   1.675   2.206   7.206 -0.9150 -0.3676  0.6799
   77CHL1  H19A 8145   1.721   2.128   7.269 -1.2351 -1.9156 -0.9776
   77CHL1  H19B 8146   1.565   2.204   7.223 -1.0091 -0.1442  0.1045
   77CHL1  H19C 8147   1.695   2.177   7.101 -1.2262 -1.1637  0.8412
   77CHL1    C1 8148   1.648   2.447   7.173  0.0361  0.0123  0.1398
   77CHL1   H1A 8149   1.547   2.428   7.216 -1.1534 -0.3252 -2.7323
   77CHL1   H1B 8150   1.685   2.544   7.213  2.0612 -0.1057 -1.3993
   77CHL1    C2 8151   1.647   2.460   7.016  0.1024 -0.2440 -0.3027
   77CHL1   H2A 8152   1.600   2.555   6.984 -0.1409 -0.2263  0.1069
   77CHL1   H2B 8153   1.585   2.377   6.976 -1.0465  0.7599 -0.5961
   77CHL1   C20 8154   1.765   2.244   7.939 -0.3900  0.2784  0.5673
   77CHL1   H20 8155   1.768   2.135   7.914  0.2206  0.1911  1.0188
   77CHL1   C21 8156   1.614   2.274   7.952  0.2189 -0.4161  0.1493
   77CHL1  H21A 8157   1.559   2.229   8.037 -1.1042  1.1130  0.1518
   77CHL1  H21B 8158   1.566   2.234   7.860 -2.0166  1.1734  0.5764
   77CHL1  H21C 8159   1.603   2.385   7.945  1.8699 -0.2303  0.2885
   77CHL1   C22 8160   1.840   2.253   8.080 -0.2832 -0.0006  0.3482
   77CHL1  H22A 8161   1.949   2.237   8.069 -0.4871 -1.1487 -0.0721
   77CHL1  H22B 8162   1.814   2.356   8.113  0.1219  0.3136 -0.3037
   77CHL1   C23 8163   1.785   2.155   8.191  0.2042  0.0580  0.5864
   77CHL1  H23A 8164   1.674   2.148   8.193  0.3003 -1.4057  1.4265
   77CHL1  H23B 8165   1.820   2.059   8.148 -2.0570  0.3098 -1.9538
   77CHL1   C24 8166   1.851   2.188   8.327 -0.3414 -0.3339  0.6555
   77CHL1  H24A 8167   1.826   2.116   8.408  1.7135 -0.9371  0.7867
   77CHL1  H24B 8168   1.961   2.181   8.314 -0.2380 -2.2008  2.3217
   77CHL1   C25 8169   1.819   2.321   8.389 -0.0132  0.2341 -0.2580
   77CHL1   H25 8170   1.810   2.407   8.319 -2.2456 -0.7975 -1.2846
   77CHL1   C26 8171   1.683   2.314   8.462 -0.2520  0.7288 -0.4490
   77CHL1  H26A 8172   1.598   2.271   8.404 -0.4134 -1.5214  1.3939
   77CHL1  H26B 8173   1.699   2.241   8.544 -1.2607  1.1524  0.1359
   77CHL1  H26C 8174   1.663   2.407   8.519  1.3270  1.1358 -0.5267
   77CHL1   C27 8175   1.931   2.354   8.489 -0.9969 -0.4791 -0.5192
   77CHL1  H27A 8176   1.904   2.450   8.540 -1.2605  1.0207 -3.4035
   77CHL1  H27B 8177   1.935   2.275   8.567 -0.6746 -0.3204 -0.3761
   77CHL1  H27C 8178   2.031   2.370   8.444 -1.1644 -1.0786 -1.1037
   78CHL1    C3 8179   3.593   3.537   6.746  0.3486  0.2724  0.0328
   78CHL1    H3 8180   3.493   3.537   6.794 -0.7584  0.5185 -2.1931
   78CHL1    O3 8181   3.582   3.523   6.605 -0.1437 -0.5867 -0.2296
   78CHL1   H3' 8182   3.672   3.543   6.579  0.0127 -0.6187  0.2751
   78CHL1    C4 8183   3.656   3.671   6.774  0.1143 -0.1469 -0.7113
   78CHL1   H4A 8184   3.745   3.689   6.711 -0.8377  2.7092 -1.2952
   78CHL1   H4B 8185   3.577   3.739   6.736 -1.6023 -0.0444  2.7447
   78CHL1    C5 8186   3.682   3.683   6.930  0.3757  0.1300 -0.2400
   78CHL1    C6 8187   3.644   3.788   6.997 -0.2479 -0.3289  0.2997
   78CHL1    H6 8188   3.595   3.874   6.949  1.4363  1.7420  2.1814
   78CHL1    C7 8189   3.657   3.804   7.145  0.2967  0.0417  0.4285
   78CHL1   H7A 8190   3.695   3.904   7.173  1.3235 -0.3136  0.3110
   78CHL1   H7B 8191   3.556   3.791   7.190  0.4194 -0.2938  0.6069
   78CHL1    C8 8192   3.738   3.691   7.217  0.8105 -0.4499  0.0875
   78CHL1    H8 8193   3.847   3.710   7.204  1.2030 -4.0348 -2.7401
   78CHL1   C14 8194   3.702   3.681   7.366 -0.1492  0.1033 -0.0255
   78CHL1   H14 8195   3.598   3.645   7.355 -0.2398  0.8521 -1.6504
   78CHL1   C15 8196   3.697   3.804   7.448 -0.1822 -0.1139 -0.7127
   78CHL1  H15A 8197   3.791   3.863   7.452 -0.1650 -0.2444  1.3230
   78CHL1  H15B 8198   3.626   3.880   7.409  1.1392  1.1441 -0.7193
   78CHL1   C16 8199   3.668   3.749   7.585  0.1425 -0.1814  0.1130
   78CHL1  H16A 8200   3.708   3.818   7.662  1.9701 -1.8273  0.7212
   78CHL1  H16B 8201   3.558   3.735   7.587 -0.2845  2.8805  0.2148
   78CHL1   C17 8202   3.717   3.607   7.585 -0.3008 -0.9609 -0.1555
   78CHL1   H17 8203   3.626   3.544   7.582  0.2480 -1.6882 -2.5661
   78CHL1   C13 8204   3.786   3.587   7.451 -0.0233  1.3598  0.5511
   78CHL1   C18 8205   3.927   3.634   7.453  0.3628  0.3116 -0.6859
   78CHL1  H18A 8206   3.985   3.630   7.359  0.2702 -1.3451 -0.6833
   78CHL1  H18B 8207   3.939   3.735   7.500  0.7638  1.1980 -2.6478
   78CHL1  H18C 8208   3.993   3.571   7.517 -1.0194 -0.5682 -0.1140
   78CHL1   C12 8209   3.789   3.448   7.386  0.6881 -0.4421  0.5585
   78CHL1  H12A 8210   3.874   3.386   7.421  0.9043 -2.5898 -3.5724
   78CHL1  H12B 8211   3.689   3.405   7.412 -0.0018 -1.5508 -3.6544
   78CHL1   C11 8212   3.797   3.440   7.231 -0.0991 -0.3238  0.1341
   78CHL1  H11A 8213   3.906   3.444   7.210 -0.3473 -0.2079 -1.1871
   78CHL1  H11B 8214   3.756   3.342   7.197  0.5955  0.1466 -2.1422
   78CHL1    C9 8215   3.717   3.551   7.157 -0.3619  0.0347  0.1974
   78CHL1    H9 8216   3.609   3.532   7.174 -0.3929 -0.2604 -0.3086
   78CHL1   C10 8217   3.740   3.553   6.998 -0.0866  0.1634  0.1601
   78CHL1   C19 8218   3.894   3.553   6.975  0.3967 -0.6811  0.0589
   78CHL1  H19A 8219   3.923   3.575   6.870 -3.4048  0.7814 -0.7571
   78CHL1  H19B 8220   3.952   3.625   7.036  1.8995 -2.6722  1.0466
   78CHL1  H19C 8221   3.938   3.456   7.006  0.3530 -0.8299 -0.3359
   78CHL1    C1 8222   3.676   3.427   6.948  0.4948 -0.4940  0.7747
   78CHL1   H1A 8223   3.723   3.335   6.990  1.8466 -0.1455  0.0536
   78CHL1   H1B 8224   3.566   3.419   6.959  0.4626  0.5412  1.3116
   78CHL1    C2 8225   3.687   3.425   6.792 -0.3205  0.1725 -0.0389
   78CHL1   H2A 8226   3.648   3.327   6.757  0.1262 -0.1774  0.4391
   78CHL1   H2B 8227   3.793   3.430   6.758 -0.2409  1.0010  0.3080
   78CHL1   C20 8228   3.798   3.576   7.713 -0.0732 -0.1420 -0.3259
   78CHL1   H20 8229   3.897   3.626   7.707 -1.0468  2.3737  2.9380
   78CHL1   C21 8230   3.833   3.422   7.717  0.1496 -0.5333  0.1199
   78CHL1  H21A 8231   3.899   3.396   7.632 -0.6008  1.7009 -1.1921
   78CHL1  H21B 8232   3.741   3.360   7.714 -0.6409  0.6335 -0.3078
   78CHL1  H21C 8233   3.903   3.397   7.800 -0.5538  1.0987  1.2234
   78CHL1   C22 8234   3.733   3.628   7.844  0.5611  0.1259 -0.0437
   78CHL1  H22A 8235   3.808   3.604   7.922  0.1340  1.8141  0.9286
   78CHL1  H22B 8236   3.717   3.738   7.851 -0.8721 -0.0741 -0.0050
   78CHL1   C23 8237   3.592   3.569   7.866 -0.1925 -0.1645  0.0118
   78CHL1  H23A 8238   3.528   3.620   7.791 -0.4505  2.1663  1.7976
   78CHL1  H23B 8239   3.592   3.460   7.843 -0.5258 -0.4681  1.3972
   78CHL1   C24 8240   3.547   3.602   8.007 -0.0897  0.4722  0.4330
   78CHL1  H24A 8241   3.615   3.551   8.078  0.3494  1.9016  1.0568
   78CHL1  H24B 8242   3.555   3.710   8.032  3.4716  0.1215  1.1047
   78CHL1   C25 8243   3.410   3.551   8.040 -0.5614  0.5414 -0.0766
   78CHL1   H25 8244   3.394   3.441   8.032 -1.9467  0.5632  1.9341
   78CHL1   C26 8245   3.383   3.578   8.179 -0.1383  0.7547 -0.4904
   78CHL1  H26A 8246   3.290   3.535   8.221 -0.0030 -1.3565 -2.2770
   78CHL1  H26B 8247   3.458   3.526   8.241  0.6739  0.8811 -1.3626
   78CHL1  H26C 8248   3.391   3.687   8.201 -1.5810  0.8197 -0.1748
   78CHL1   C27 8249   3.316   3.615   7.936  0.6711 -0.4705 -0.4014
   78CHL1  H27A 8250   3.213   3.616   7.979  0.4696 -1.4082 -0.8545
   78CHL1  H27B 8251   3.354   3.717   7.917  1.0745 -0.9589 -2.3038
   78CHL1  H27C 8252   3.310   3.551   7.846 -2.8300  0.4442 -0.8883
   79CHL1    C3 8253   2.295   4.047   7.338 -0.3735 -1.1600  0.1478
   79CHL1    H3 8254   2.396   4.093   7.343 -0.5457 -0.7457 -0.1456
   79CHL1    O3 8255   2.231   4.055   7.213 -0.4064 -0.4671 -0.0408
   79CHL1   H3' 8256   2.146   4.015   7.236  0.0958 -0.8070  1.2407
   79CHL1    C4 8257   2.298   3.901   7.397 -0.6910  0.2082 -0.1938
   79CHL1   H4A 8258   2.200   3.853   7.381 -0.9210  0.5051  0.3254
   79CHL1   H4B 8259   2.374   3.851   7.332 -0.9751 -0.0452 -0.3275
   79CHL1    C5 8260   2.342   3.878   7.544  0.5100  0.5822  0.1739
   79CHL1    C6 8261   2.447   3.801   7.572  0.2572 -0.1199  0.2293
   79CHL1    H6 8262   2.501   3.744   7.495  1.2994  1.5294 -0.2867
   79CHL1    C7 8263   2.486   3.787   7.717 -0.1446  0.5512 -0.1381
   79CHL1   H7A 8264   2.504   3.678   7.732  2.1666  0.9291  0.0538
   79CHL1   H7B 8265   2.584   3.838   7.728 -0.1191  0.5638 -0.4325
   79CHL1    C8 8266   2.396   3.843   7.829 -0.0386 -0.1961 -0.7409
   79CHL1    H8 8267   2.309   3.775   7.845  0.3929 -0.7120 -0.5631
   79CHL1   C14 8268   2.468   3.869   7.965 -0.3497  0.4812 -0.1071
   79CHL1   H14 8269   2.544   3.949   7.948  0.2135  0.0141  0.1961
   79CHL1   C15 8270   2.556   3.753   8.026  0.7250 -0.4158 -0.5406
   79CHL1  H15A 8271   2.517   3.650   8.011  1.5603 -0.5665 -1.7400
   79CHL1  H15B 8272   2.659   3.762   7.985  1.6441 -1.4557  1.4383
   79CHL1   C16 8273   2.558   3.796   8.180 -0.3096  0.1834 -0.5745
   79CHL1  H16A 8274   2.514   3.712   8.238  0.2656  1.2327  1.4531
   79CHL1  H16B 8275   2.662   3.806   8.218 -0.4498 -0.1807 -0.0897
   79CHL1   C17 8276   2.485   3.925   8.191 -0.4801  0.3047 -0.1287
   79CHL1   H17 8277   2.560   4.005   8.173 -2.5372  1.6900 -2.7587
   79CHL1   C13 8278   2.384   3.930   8.078 -0.7058  0.3860 -0.0440
   79CHL1   C18 8279   2.268   3.836   8.119  1.1272  0.1271 -0.0954
   79CHL1  H18A 8280   2.315   3.748   8.167  0.0486 -0.4261 -0.0397
   79CHL1  H18B 8281   2.204   3.881   8.198  1.7012 -0.6076  0.7952
   79CHL1  H18C 8282   2.203   3.815   8.031  2.6134  0.0275 -1.1908
   79CHL1   C12 8283   2.339   4.068   8.020  0.0118 -0.5945 -0.2877
   79CHL1  H12A 8284   2.264   4.100   8.096 -0.2321 -0.5174 -0.5605
   79CHL1  H12B 8285   2.417   4.147   8.019 -0.6282  0.0374 -0.7879
   79CHL1   C11 8286   2.259   4.057   7.890  0.7900 -0.1027 -0.0655
   79CHL1  H11A 8287   2.169   4.000   7.921 -0.8515  2.9944  1.1119
   79CHL1  H11B 8288   2.235   4.158   7.849  0.3549 -0.2133 -0.0872
   79CHL1    C9 8289   2.337   3.980   7.781 -0.2470  0.0281  0.0205
   79CHL1    H9 8290   2.421   4.045   7.748 -1.1030  0.4813 -1.2820
   79CHL1   C10 8291   2.263   3.966   7.643  0.1369  0.7646  0.6262
   79CHL1   C19 8292   2.116   3.905   7.663 -0.6080  0.4216 -0.2687
   79CHL1  H19A 8293   2.068   3.892   7.563  0.1554 -0.1972 -0.5592
   79CHL1  H19B 8294   2.124   3.808   7.716  0.3760 -0.0090 -1.1752
   79CHL1  H19C 8295   2.045   3.977   7.709  0.6530  1.8510 -0.5187
   79CHL1    C1 8296   2.251   4.104   7.584  0.4073 -0.1687  0.4323
   79CHL1   H1A 8297   2.189   4.168   7.650  1.8050  2.8460 -1.0715
   79CHL1   H1B 8298   2.352   4.149   7.581  0.3230 -0.0877 -1.4129
   79CHL1    C2 8299   2.206   4.121   7.440  0.0312 -0.4513 -0.1932
   79CHL1   H2A 8300   2.220   4.230   7.425  0.2387 -0.4236  0.2011
   79CHL1   H2B 8301   2.100   4.091   7.422 -0.3408  0.8365 -0.2051
   79CHL1   C20 8302   2.446   3.962   8.341  0.0518 -0.2584 -0.6442
   79CHL1   H20 8303   2.372   3.889   8.382 -0.6507  0.5117 -0.5168
   79CHL1   C21 8304   2.372   4.096   8.347  0.4516  0.3636  0.0375
   79CHL1  H21A 8305   2.337   4.110   8.451 -1.7316  2.9525 -0.9821
   79CHL1  H21B 8306   2.285   4.106   8.279 -2.2630  3.2575  3.7537
   79CHL1  H21C 8307   2.438   4.178   8.312  0.3257 -0.0367 -1.1648
   79CHL1   C22 8308   2.567   3.953   8.438 -0.2003  0.2534  0.4661
   79CHL1  H22A 8309   2.625   3.860   8.421  0.6745  0.8412  0.2112
   79CHL1  H22B 8310   2.627   4.043   8.413  1.7425 -1.4877 -1.2868
   79CHL1   C23 8311   2.543   3.959   8.588  0.1972 -0.6034 -0.1772
   79CHL1  H23A 8312   2.488   4.046   8.632 -2.1791 -1.9536 -0.3874
   79CHL1  H23B 8313   2.499   3.859   8.609 -0.7015 -0.7387 -2.5667
   79CHL1   C24 8314   2.682   3.963   8.659 -0.4155 -0.3566  0.0769
   79CHL1  H24A 8315   2.744   3.874   8.638  0.0367 -0.1428  0.4924
   79CHL1  H24B 8316   2.731   4.054   8.618 -1.8729 -0.2655 -1.5106
   79CHL1   C25 8317   2.662   3.982   8.812 -0.6498 -0.7158  0.2007
   79CHL1   H25 8318   2.598   4.071   8.833 -1.1821 -0.3160 -2.8833
   79CHL1   C26 8319   2.609   3.860   8.879 -0.0909  0.6259 -0.3584
   79CHL1  H26A 8320   2.666   3.773   8.841  2.8336  2.8048 -1.1741
   79CHL1  H26B 8321   2.620   3.875   8.989  0.2128  1.6711 -0.5239
   79CHL1  H26C 8322   2.499   3.852   8.868 -0.2933 -1.7385  2.6577
   79CHL1   C27 8323   2.790   4.020   8.881  0.0460  0.4776 -0.0405
   79CHL1  H27A 8324   2.857   3.931   8.883 -1.3958 -0.6004  1.1783
   79CHL1  H27B 8325   2.840   4.103   8.827  1.4904 -1.6960 -2.1966
   79CHL1  H27C 8326   2.764   4.057   8.982  1.6047 -2.3189  1.4429
   80CHL1    C3 8327   0.751   1.369   7.010 -0.1600 -0.5270  0.1961
   80CHL1    H3 8328   0.645   1.336   7.003 -0.3760  0.3623 -0.8732
   80CHL1    O3 8329   0.789   1.402   6.872  0.1684  0.6082 -0.5756
   80CHL1   H3' 8330   0.878   1.436   6.877  0.2224  0.4952 -0.7791
   80CHL1    C4 8331   0.748   1.492   7.098 -0.1482  0.7721  0.3203
   80CHL1   H4A 8332   0.842   1.551   7.097  0.3442  0.0039  0.6953
   80CHL1   H4B 8333   0.676   1.569   7.063 -1.3260 -1.9373 -3.7080
   80CHL1    C5 8334   0.715   1.459   7.241  0.2908  0.9031 -0.0429
   80CHL1    C6 8335   0.610   1.505   7.310 -0.0616  0.2699 -0.7846
   80CHL1    H6 8336   0.542   1.570   7.253 -0.4889  1.2425  0.7982
   80CHL1    C7 8337   0.580   1.480   7.449 -0.9458  0.0130 -0.0542
   80CHL1   H7A 8338   0.560   1.580   7.494  0.0169  0.9472 -1.6567
   80CHL1   H7B 8339   0.485   1.423   7.455  0.0266 -1.4362  2.0367
   80CHL1    C8 8340   0.701   1.411   7.523 -0.4393 -0.2324  0.7585
   80CHL1    H8 8341   0.782   1.487   7.526 -1.6786  1.2157 -1.2933
   80CHL1   C14 8342   0.663   1.370   7.669 -0.4586 -0.4923  0.4340
   80CHL1   H14 8343   0.586   1.290   7.659  0.1130 -1.0541  0.5407
   80CHL1   C15 8344   0.599   1.471   7.761  0.1080 -0.2764 -0.5949
   80CHL1  H15A 8345   0.646   1.570   7.743 -1.6813  1.1627  2.2839
   80CHL1  H15B 8346   0.493   1.484   7.734  0.1965  2.2528  0.2352
   80CHL1   C16 8347   0.628   1.418   7.901  0.3880  0.5054 -0.0322
   80CHL1  H16A 8348   0.697   1.485   7.956  1.4113 -0.7004  0.1705
   80CHL1  H16B 8349   0.533   1.391   7.952  0.0458  0.9788 -0.4152
   80CHL1   C17 8350   0.718   1.289   7.882  0.3617 -0.4129  0.0919
   80CHL1   H17 8351   0.642   1.208   7.872  0.0943 -0.0763 -0.6360
   80CHL1   C13 8352   0.776   1.304   7.744  0.3086  0.9621  0.5249
   80CHL1   C18 8353   0.902   1.403   7.755 -0.3210  0.0043 -1.1788
   80CHL1  H18A 8354   0.870   1.504   7.791  1.3605  1.2070 -2.9913
   80CHL1  H18B 8355   0.987   1.367   7.816 -1.2850  0.3101  0.3935
   80CHL1  H18C 8356   0.948   1.418   7.655  0.9134  1.5196 -0.4100
   80CHL1   C12 8357   0.809   1.179   7.662 -0.2043  0.5144  0.4609
   80CHL1  H12A 8358   0.891   1.126   7.715  0.2077 -0.8659 -1.4818
   80CHL1  H12B 8359   0.718   1.116   7.647 -0.1088  0.3591  0.5269
   80CHL1   C11 8360   0.863   1.206   7.523 -0.1595 -0.2695  0.9825
   80CHL1  H11A 8361   0.962   1.255   7.527  0.0071 -0.5421  0.2037
   80CHL1  H11B 8362   0.872   1.104   7.479  0.8577  0.6712 -1.0008
   80CHL1    C9 8363   0.763   1.299   7.437  0.6559 -0.3590 -0.2324
   80CHL1    H9 8364   0.678   1.231   7.417 -0.3939  0.7625  0.3388
   80CHL1   C10 8365   0.808   1.351   7.302 -0.3547  0.1163 -0.7312
   80CHL1   C19 8366   0.953   1.405   7.310 -0.1098  0.0883  0.3179
   80CHL1  H19A 8367   1.040   1.341   7.335  1.8431  2.0010 -1.4091
   80CHL1  H19B 8368   0.991   1.440   7.211 -1.0936 -0.0431 -0.1121
   80CHL1  H19C 8369   0.946   1.498   7.371 -0.2851 -0.1638  0.6825
   80CHL1    C1 8370   0.818   1.232   7.206  0.5180 -0.0414  0.6151
   80CHL1   H1A 8371   0.900   1.170   7.247  0.5264 -0.2805  0.2340
   80CHL1   H1B 8372   0.722   1.176   7.213 -0.3656  1.5296  1.2603
   80CHL1    C2 8373   0.844   1.262   7.058 -0.2045 -0.3895  0.2263
   80CHL1   H2A 8374   0.814   1.177   6.994 -4.3262  1.2721 -0.2223
   80CHL1   H2B 8375   0.952   1.282   7.041 -0.3367  1.6719  1.6049
   80CHL1   C20 8376   0.811   1.251   7.999 -0.7414 -0.5784 -0.3592
   80CHL1   H20 8377   0.900   1.317   7.998 -0.2058 -1.3069 -0.6099
   80CHL1   C21 8378   0.861   1.107   7.979  0.6516 -0.4620  0.0831
   80CHL1  H21A 8379   0.769   1.048   7.961 -0.7615  1.7558 -0.1380
   80CHL1  H21B 8380   0.910   1.062   8.068  0.2637 -3.8662 -1.3445
   80CHL1  H21C 8381   0.933   1.109   7.895 -2.0594 -1.0368 -2.3256
   80CHL1   C22 8382   0.743   1.271   8.133 -0.3530 -0.1835 -0.1708
   80CHL1  H22A 8383   0.713   1.376   8.151  1.8918  0.7127 -1.5575
   80CHL1  H22B 8384   0.652   1.208   8.121 -1.2169  1.2311 -1.1742
   80CHL1   C23 8385   0.818   1.236   8.257  0.2697  0.7887 -0.5427
   80CHL1  H23A 8386   0.841   1.128   8.247  0.3964  0.6850  0.7613
   80CHL1  H23B 8387   0.913   1.293   8.272 -0.4671  1.3292  2.2793
   80CHL1   C24 8388   0.741   1.248   8.391 -0.1032  0.8874 -0.0663
   80CHL1  H24A 8389   0.638   1.211   8.373 -0.4982  1.5508  0.7856
   80CHL1  H24B 8390   0.780   1.173   8.463  1.8674  2.0604  0.1279
   80CHL1   C25 8391   0.746   1.388   8.465  0.5390 -0.4726 -0.8290
   80CHL1   H25 8392   0.854   1.413   8.475  0.5698 -1.0042  0.1979
   80CHL1   C26 8393   0.676   1.492   8.387  0.0831  0.6668 -0.4700
   80CHL1  H26A 8394   0.580   1.451   8.350  1.1111  0.1526 -2.6083
   80CHL1  H26B 8395   0.659   1.579   8.454  4.1399  0.2724  1.1746
   80CHL1  H26C 8396   0.740   1.526   8.303 -1.3282 -0.5618 -2.0710
   80CHL1   C27 8397   0.687   1.372   8.604 -0.0684 -0.0749 -0.6304
   80CHL1  H27A 8398   0.698   1.271   8.648 -1.0251  0.5460  1.0921
   80CHL1  H27B 8399   0.715   1.450   8.679 -0.1658 -2.5194  2.0178
   80CHL1  H27C 8400   0.576   1.376   8.597 -0.0912 -0.0953 -0.3125
   81CHL1    C3 8401   5.267   0.857   6.953  0.1318  0.6412 -0.1995
   81CHL1    H3 8402   5.159   0.833   6.942  0.6543 -1.3772 -1.0836
   81CHL1    O3 8403   5.328   0.790   6.843  0.0612  0.4977  0.1785
   81CHL1   H3' 8404   5.291   0.826   6.762  1.4835  2.0096  0.1852
   81CHL1    C4 8405   5.298   1.007   6.940  0.3724 -0.1002 -0.0887
   81CHL1   H4A 8406   5.409   1.002   6.940  0.3471 -1.1676  2.0896
   81CHL1   H4B 8407   5.265   1.049   6.843 -3.0307 -1.9599  0.1890
   81CHL1    C5 8408   5.256   1.083   7.065 -0.2167  0.1666 -0.2671
   81CHL1    C6 8409   5.196   1.202   7.061  0.5809 -0.1511 -0.5875
   81CHL1    H6 8410   5.191   1.241   6.958  0.5317 -1.1997 -0.9878
   81CHL1    C7 8411   5.167   1.295   7.177  0.5512  0.4018 -0.2267
   81CHL1   H7A 8412   5.183   1.401   7.151 -2.0672  0.2741 -2.5628
   81CHL1   H7B 8413   5.057   1.291   7.189  0.6211 -1.0610  0.0039
   81CHL1    C8 8414   5.235   1.249   7.307  0.0056 -0.4147 -0.1401
   81CHL1    H8 8415   5.341   1.279   7.297 -0.4687  1.1061 -0.7546
   81CHL1   C14 8416   5.175   1.318   7.438 -0.3754  0.6642 -0.4467
   81CHL1   H14 8417   5.065   1.302   7.432 -0.1384 -0.3993 -2.5952
   81CHL1   C15 8418   5.181   1.467   7.445 -0.7309 -0.2903 -0.4657
   81CHL1  H15A 8419   5.284   1.504   7.424 -1.3860  2.0503  0.3121
   81CHL1  H15B 8420   5.109   1.515   7.375 -0.7325  1.3536  0.6434
   81CHL1   C16 8421   5.159   1.497   7.594  0.7609  1.0896 -0.1545
   81CHL1  H16A 8422   5.245   1.550   7.638  0.3065 -0.2462  2.4444
   81CHL1  H16B 8423   5.068   1.558   7.612  0.0282 -0.1785  0.5553
   81CHL1   C17 8424   5.156   1.358   7.667  0.8791  0.4844  0.6433
   81CHL1   H17 8425   5.048   1.329   7.670  1.6523 -2.4998  1.4685
   81CHL1   C13 8426   5.229   1.265   7.572  0.0644  0.6012  0.5122
   81CHL1   C18 8427   5.383   1.293   7.586 -0.3579  0.0194 -0.7307
   81CHL1  H18A 8428   5.439   1.240   7.506  1.5127 -0.7721  1.0348
   81CHL1  H18B 8429   5.416   1.399   7.579 -0.5436  0.0525 -1.1203
   81CHL1  H18C 8430   5.420   1.225   7.666 -0.2812 -0.0458 -0.8206
   81CHL1   C12 8431   5.198   1.117   7.579  0.2768 -0.6258  0.0227
   81CHL1  H12A 8432   5.255   1.071   7.662  0.9903 -1.2656 -0.8094
   81CHL1  H12B 8433   5.089   1.097   7.583  0.1668 -0.0712 -0.2255
   81CHL1   C11 8434   5.259   1.035   7.467 -0.5383  0.3011 -0.0656
   81CHL1  H11A 8435   5.369   1.025   7.478 -0.3666  1.5650 -0.5088
   81CHL1  H11B 8436   5.213   0.934   7.473  1.3917 -0.6474 -0.9443
   81CHL1    C9 8437   5.224   1.097   7.324  0.1193 -0.2974  0.0795
   81CHL1    H9 8438   5.115   1.077   7.325  0.0398  0.1751  1.3981
   81CHL1   C10 8439   5.293   1.025   7.210  0.0000  0.6366  0.7339
   81CHL1   C19 8440   5.446   1.029   7.231 -0.3909  0.0465  0.7112
   81CHL1  H19A 8441   5.473   1.118   7.292 -2.2600  1.4085 -0.4028
   81CHL1  H19B 8442   5.474   0.942   7.293 -2.2173 -1.1241 -0.0535
   81CHL1  H19C 8443   5.510   1.027   7.140 -1.3016 -0.1857  0.0690
   81CHL1    C1 8444   5.248   0.877   7.204 -0.6134 -1.2487  0.2810
   81CHL1   H1A 8445   5.260   0.827   7.303 -1.6369 -0.5178  0.7706
   81CHL1   H1B 8446   5.140   0.871   7.182 -0.8081 -0.6314  1.0439
   81CHL1    C2 8447   5.313   0.794   7.086 -0.6030  0.1523 -0.4395
   81CHL1   H2A 8448   5.283   0.689   7.105  1.0073 -0.2392 -0.0060
   81CHL1   H2B 8449   5.424   0.797   7.093 -0.5380  1.4112 -1.8265
   81CHL1   C20 8450   5.184   1.355   7.822 -0.4506  0.1448 -0.2279
   81CHL1   H20 8451   5.293   1.373   7.834  0.0462 -3.1350  0.7069
   81CHL1   C21 8452   5.149   1.223   7.879 -0.4768  0.4299  0.2376
   81CHL1  H21A 8453   5.222   1.141   7.860  0.3210  1.0120  0.7665
   81CHL1  H21B 8454   5.051   1.197   7.835 -1.7350  1.4064  2.3982
   81CHL1  H21C 8455   5.134   1.215   7.988  0.8478 -0.5694  0.3671
   81CHL1   C22 8456   5.116   1.479   7.898 -0.2140 -0.3043  0.5085
   81CHL1  H22A 8457   5.170   1.569   7.860 -0.5844 -0.0661  0.5498
   81CHL1  H22B 8458   5.010   1.486   7.867  0.0812 -0.8742 -0.6712
   81CHL1   C23 8459   5.136   1.471   8.050  0.0469  0.4940  0.2889
   81CHL1  H23A 8460   5.072   1.393   8.096  0.8952  0.7795  2.0010
   81CHL1  H23B 8461   5.238   1.438   8.080 -0.1080  0.5566  0.8841
   81CHL1   C24 8462   5.078   1.598   8.119 -0.2270  0.0307  0.0351
   81CHL1  H24A 8463   5.127   1.685   8.069 -0.5272 -0.4989 -1.2066
   81CHL1  H24B 8464   4.973   1.620   8.088  0.1669 -1.0885 -2.1555
   81CHL1   C25 8465   5.092   1.607   8.269 -0.7878  0.0771  0.7120
   81CHL1   H25 8466   5.021   1.540   8.322 -0.5426  0.0078  0.9549
   81CHL1   C26 8467   5.233   1.548   8.306 -0.0476 -0.3179 -0.1040
   81CHL1  H26A 8468   5.314   1.597   8.248 -0.3258 -0.3743 -0.5428
   81CHL1  H26B 8469   5.251   1.551   8.415 -1.4197 -1.0177  0.1637
   81CHL1  H26C 8470   5.244   1.438   8.293  0.7319 -0.4138  1.2778
   81CHL1   C27 8471   5.091   1.754   8.322 -0.3250  0.5051 -0.2358
   81CHL1  H27A 8472   5.150   1.830   8.266 -0.8034  1.9606  1.2152
   81CHL1  H27B 8473   4.983   1.780   8.321 -0.1882  1.1064 -1.8100
   81CHL1  H27C 8474   5.106   1.746   8.431  1.3870  1.4413 -0.3898
   82CHL1    C3 8475   6.010   2.409   6.899  0.0922  0.1265  0.0530
   82CHL1    H3 8476   5.921   2.443   6.956  0.8234  1.2473  0.5388
   82CHL1    O3 8477   6.026   2.469   6.767  0.6456 -0.1165  0.0393
   82CHL1   H3' 8478   5.957   2.428   6.714  0.2282 -1.6003  1.6923
   82CHL1    C4 8479   6.138   2.443   6.974  0.1517 -0.7492  0.2667
   82CHL1   H4A 8480   6.232   2.419   6.920 -1.0514  0.0176 -2.2425
   82CHL1   H4B 8481   6.153   2.552   6.984 -0.8956 -0.5018 -0.7593
   82CHL1    C5 8482   6.148   2.373   7.103 -0.4842  0.3596 -0.1064
   82CHL1    C6 8483   6.168   2.437   7.217  0.4622 -0.7325 -0.0157
   82CHL1    H6 8484   6.177   2.547   7.219 -1.1167 -0.5587 -1.4056
   82CHL1    C7 8485   6.197   2.384   7.350 -0.2841  0.0199  0.2952
   82CHL1   H7A 8486   6.287   2.437   7.385  0.5885  1.0738 -3.2749
   82CHL1   H7B 8487   6.110   2.415   7.411 -0.2544 -0.6544  0.6850
   82CHL1    C8 8488   6.209   2.228   7.340  0.4486  0.6485  0.0918
   82CHL1    H8 8489   6.304   2.187   7.300  0.4151  0.3032  0.3649
   82CHL1   C14 8490   6.188   2.170   7.477 -0.2853  0.3135 -0.0327
   82CHL1   H14 8491   6.082   2.180   7.508  0.0754 -0.7224  1.6459
   82CHL1   C15 8492   6.269   2.231   7.595  0.6317 -0.2920 -0.3645
   82CHL1  H15A 8493   6.376   2.231   7.562  1.1779  1.4959  1.3674
   82CHL1  H15B 8494   6.248   2.331   7.637  0.8144 -0.3912 -0.0383
   82CHL1   C16 8495   6.265   2.128   7.711  0.1497 -0.1184 -1.2951
   82CHL1  H16A 8496   6.370   2.097   7.730 -1.0121 -2.7844  1.0762
   82CHL1  H16B 8497   6.210   2.174   7.796 -2.2479 -1.8551 -1.8453
   82CHL1   C17 8498   6.194   2.006   7.650 -0.5887  0.4051 -0.1491
   82CHL1   H17 8499   6.089   2.028   7.677 -0.7320 -3.4179  2.7902
   82CHL1   C13 8500   6.212   2.023   7.491  0.5658 -0.0451  0.0515
   82CHL1   C18 8501   6.350   1.984   7.449  0.0662  0.2652  0.5177
   82CHL1  H18A 8502   6.432   2.041   7.499  1.3271 -1.0790  0.0258
   82CHL1  H18B 8503   6.380   1.881   7.478 -0.4835  0.1435  0.6605
   82CHL1  H18C 8504   6.371   2.005   7.342 -1.2654  0.3685  0.2711
   82CHL1   C12 8505   6.108   1.956   7.397 -0.1251 -0.0783  0.0215
   82CHL1  H12A 8506   6.131   1.847   7.405  0.1066 -0.1638 -1.6270
   82CHL1  H12B 8507   6.003   1.967   7.433 -0.5252 -0.4532 -1.0011
   82CHL1   C11 8508   6.115   2.003   7.253  0.1549  0.4270 -0.4280
   82CHL1  H11A 8509   6.211   1.972   7.207  0.2994  0.5892 -0.2361
   82CHL1  H11B 8510   6.038   1.948   7.195  0.2907 -1.5435  1.2488
   82CHL1    C9 8511   6.112   2.158   7.235 -0.3830 -0.1793 -0.7857
   82CHL1    H9 8512   6.007   2.178   7.264 -0.7412 -0.3780 -1.9073
   82CHL1   C10 8513   6.134   2.217   7.088 -0.2987 -0.7160  0.4425
   82CHL1   C19 8514   6.264   2.152   7.026  0.7660  0.5582 -0.1358
   82CHL1  H19A 8515   6.344   2.131   7.100  0.6351 -0.1838 -0.2075
   82CHL1  H19B 8516   6.234   2.050   6.994 -2.4140  1.1022  0.9208
   82CHL1  H19C 8517   6.304   2.216   6.944  0.7897  0.0749 -0.4979
   82CHL1    C1 8518   6.014   2.179   7.007  0.2617  0.0231 -0.4705
   82CHL1   H1A 8519   6.014   2.069   6.989  0.5287 -0.2629  1.2216
   82CHL1   H1B 8520   5.921   2.183   7.068  0.8356 -3.2391  0.6831
   82CHL1    C2 8521   5.999   2.257   6.871  0.5261  0.0080  0.2098
   82CHL1   H2A 8522   5.902   2.225   6.828  0.3910  2.0615 -1.0826
   82CHL1   H2B 8523   6.082   2.221   6.807 -0.5462  1.6069 -2.1632
   82CHL1   C20 8524   6.234   1.875   7.728  0.2319  0.2688  0.7697
   82CHL1   H20 8525   6.332   1.838   7.691  0.9722  1.1570  1.7820
   82CHL1   C21 8526   6.122   1.770   7.707  0.0016  0.6004 -0.7356
   82CHL1  H21A 8527   6.082   1.786   7.604  0.3615 -0.4453 -1.0422
   82CHL1  H21B 8528   6.041   1.783   7.782 -1.2483  0.3821 -2.0270
   82CHL1  H21C 8529   6.156   1.668   7.734 -2.3658  0.2078  0.9532
   82CHL1   C22 8530   6.263   1.897   7.879 -0.2216 -0.3072 -0.2421
   82CHL1  H22A 8531   6.361   1.950   7.889 -0.1929  0.1681 -2.7379
   82CHL1  H22B 8532   6.186   1.966   7.920  0.5586  0.9005 -0.7858
   82CHL1   C23 8533   6.261   1.766   7.969 -0.0356  0.6343  0.7131
   82CHL1  H23A 8534   6.162   1.716   7.956  0.7748 -0.4577 -1.4719
   82CHL1  H23B 8535   6.337   1.699   7.923 -0.4261  1.0885 -0.6156
   82CHL1   C24 8536   6.316   1.809   8.110 -0.4606 -0.9294  0.5498
   82CHL1  H24A 8537   6.415   1.851   8.083  0.2589 -1.4773  2.2565
   82CHL1  H24B 8538   6.239   1.878   8.150 -2.2508 -2.7793  0.4170
   82CHL1   C25 8539   6.351   1.690   8.197 -0.1695  0.1893  0.4170
   82CHL1   H25 8540   6.406   1.613   8.139 -0.3230  0.0102  0.5063
   82CHL1   C26 8541   6.425   1.731   8.325 -0.6423  0.6502  0.0736
   82CHL1  H26A 8542   6.526   1.769   8.298 -0.8493  0.6741 -0.6728
   82CHL1  H26B 8543   6.374   1.817   8.373 -0.3405  0.0379  1.5137
   82CHL1  H26C 8544   6.428   1.649   8.400 -0.7521  0.4228 -0.1685
   82CHL1   C27 8545   6.218   1.627   8.250  1.0029  0.5608 -0.3007
   82CHL1  H27A 8546   6.186   1.697   8.330  0.6151  0.8487 -0.7059
   82CHL1  H27B 8547   6.133   1.627   8.179  0.2460  0.3430  0.5958
   82CHL1  H27C 8548   6.228   1.526   8.295  2.2862 -0.0334 -1.8806
   83CHL1    C3 8549   1.886   3.497   7.098  0.4757 -0.5533 -0.5422
   83CHL1    H3 8550   1.822   3.571   7.151 -0.6709  0.1550 -2.8386
   83CHL1    O3 8551   1.864   3.507   6.955 -0.0386 -0.3186  0.4218
   83CHL1   H3' 8552   1.910   3.438   6.906 -0.8440  1.5579 -3.1307
   83CHL1    C4 8553   2.033   3.493   7.123 -0.6032  0.0082  0.4191
   83CHL1   H4A 8554   2.064   3.411   7.056 -0.8948  0.0021  0.2898
   83CHL1   H4B 8555   2.076   3.584   7.077 -1.7975 -1.0743 -2.9618
   83CHL1    C5 8556   2.070   3.470   7.268  0.3508  0.1270 -0.3987
   83CHL1    C6 8557   2.148   3.554   7.337 -0.0141 -0.6935 -0.0856
   83CHL1    H6 8558   2.198   3.644   7.299 -1.9658  1.8545  3.0722
   83CHL1    C7 8559   2.185   3.538   7.482  0.1371  0.7237  0.1411
   83CHL1   H7A 8560   2.287   3.579   7.498  0.2477  0.0849  1.0707
   83CHL1   H7B 8561   2.115   3.600   7.542 -0.0404 -0.4053  1.1192
   83CHL1    C8 8562   2.166   3.387   7.522  0.0819 -0.6093 -0.8676
   83CHL1    H8 8563   2.250   3.327   7.481 -0.5874 -1.1262 -1.4915
   83CHL1   C14 8564   2.175   3.378   7.677  0.3194  0.4372 -0.0352
   83CHL1   H14 8565   2.093   3.441   7.718  1.0795  0.6749  1.1516
   83CHL1   C15 8566   2.293   3.444   7.751  0.0124 -0.0236 -0.0492
   83CHL1  H15A 8567   2.391   3.421   7.704  0.5424 -1.1578  1.5437
   83CHL1  H15B 8568   2.276   3.553   7.767 -2.3547 -0.4059  0.2059
   83CHL1   C16 8569   2.289   3.371   7.888  0.2511  0.1521  1.0389
   83CHL1  H16A 8570   2.387   3.322   7.902 -0.3510 -0.8832  1.6461
   83CHL1  H16B 8571   2.271   3.447   7.967 -0.7070  0.2184  0.7656
   83CHL1   C17 8572   2.177   3.260   7.879  0.3135  0.5348  0.2436
   83CHL1   H17 8573   2.087   3.312   7.918 -0.4360 -0.3815 -0.2244
   83CHL1   C13 8574   2.159   3.240   7.730  0.1580  0.2472 -0.2738
   83CHL1   C18 8575   2.273   3.145   7.679 -0.0932 -0.0205  0.1579
   83CHL1  H18A 8576   2.280   3.156   7.569  1.3956  2.3217  0.4500
   83CHL1  H18B 8577   2.370   3.178   7.724  0.8245 -0.0799 -1.7405
   83CHL1  H18C 8578   2.252   3.043   7.718 -0.0099  0.1665  0.6994
   83CHL1   C12 8579   2.026   3.175   7.685  0.1803 -0.5114 -0.0944
   83CHL1  H12A 8580   2.027   3.067   7.710 -0.7188 -0.3600  0.6134
   83CHL1  H12B 8581   1.949   3.227   7.746  0.7253 -0.2256  0.3528
   83CHL1   C11 8582   1.998   3.188   7.530  0.5093 -0.6850  0.2305
   83CHL1  H11A 8583   2.069   3.111   7.491  1.0815 -0.0046 -0.0733
   83CHL1  H11B 8584   1.890   3.163   7.521  0.3569 -0.3109  1.0074
   83CHL1    C9 8585   2.030   3.332   7.472 -0.0330 -0.5343  0.0226
   83CHL1    H9 8586   1.953   3.397   7.517 -0.7283 -1.1991 -0.1923
   83CHL1   C10 8587   2.011   3.336   7.315 -0.8220 -0.1899  0.2466
   83CHL1   C19 8588   2.089   3.213   7.254  0.8535 -0.4005 -0.2822
   83CHL1  H19A 8589   2.188   3.208   7.304 -0.0011 -0.5836  1.4298
   83CHL1  H19B 8590   2.030   3.123   7.282  1.7198 -1.3080 -1.2960
   83CHL1  H19C 8591   2.095   3.220   7.143  0.4307  2.3885 -0.1555
   83CHL1    C1 8592   1.861   3.323   7.278  0.2216 -0.3718 -0.1429
   83CHL1   H1A 8593   1.829   3.219   7.299  0.3961 -0.4810 -0.4046
   83CHL1   H1B 8594   1.799   3.393   7.337  0.6796 -0.9894  1.0800
   83CHL1    C2 8595   1.832   3.360   7.137  0.2554 -0.2567  0.8590
   83CHL1   H2A 8596   1.724   3.344   7.116  0.4252 -1.6928  1.0356
   83CHL1   H2B 8597   1.883   3.288   7.070 -0.9002  0.6558 -1.0422
   83CHL1   C20 8598   2.210   3.142   7.976  0.5573 -0.0811 -0.2913
   83CHL1   H20 8599   2.313   3.111   7.946  1.1305  0.2337  1.3176
   83CHL1   C21 8600   2.109   3.026   7.964 -0.2161  0.1973  0.0358
   83CHL1  H21A 8601   2.124   2.972   8.060 -2.5311 -0.3455  0.1238
   83CHL1  H21B 8602   2.135   2.955   7.882  2.4339 -0.3409  1.2900
   83CHL1  H21C 8603   2.006   3.068   7.961  0.9109  2.9554 -3.2869
   83CHL1   C22 8604   2.228   3.189   8.123  0.2545 -0.1067  0.3729
   83CHL1  H22A 8605   2.278   3.113   8.187  0.4810 -0.4988 -0.2672
   83CHL1  H22B 8606   2.304   3.269   8.133 -0.3278  0.6106 -0.8955
   83CHL1   C23 8607   2.109   3.248   8.203 -0.0483  0.2029 -0.0672
   83CHL1  H23A 8608   2.051   3.316   8.137 -2.7863  0.0598  2.0882
   83CHL1  H23B 8609   2.042   3.160   8.207 -0.8699  0.8227  0.0321
   83CHL1   C24 8610   2.154   3.325   8.332 -0.3944  0.5582  0.9944
   83CHL1  H24A 8611   2.206   3.253   8.398  1.2054  1.4599  0.7437
   83CHL1  H24B 8612   2.225   3.407   8.307  0.1716  0.3276  1.8111
   83CHL1   C25 8613   2.036   3.389   8.400 -0.1437  0.4773  0.7133
   83CHL1   H25 8614   1.955   3.403   8.324  0.7394 -2.0150 -0.7540
   83CHL1   C26 8615   1.975   3.289   8.493 -1.1194 -0.2183  0.1528
   83CHL1  H26A 8616   1.919   3.207   8.444  0.8045 -1.6638  0.3169
   83CHL1  H26B 8617   2.054   3.229   8.542 -0.8638  1.6420  2.1297
   83CHL1  H26C 8618   1.912   3.334   8.572 -0.8342  2.9932 -1.3577
   83CHL1   C27 8619   2.061   3.514   8.481  0.0620 -0.1994  0.0471
   83CHL1  H27A 8620   1.972   3.560   8.529  0.7115  1.3710 -0.2271
   83CHL1  H27B 8621   2.119   3.481   8.569 -0.2417 -2.5904 -0.6063
   83CHL1  H27C 8622   2.125   3.581   8.420 -1.4344 -0.4789 -1.8833
   84CHL1    C3 8623   4.529   6.014   6.916  0.6565  0.3706 -0.8239
   84CHL1    H3 8624   4.483   6.114   6.935 -1.5054 -0.4622 -1.5222
   84CHL1    O3 8625   4.561   5.994   6.779  0.4827 -0.0192 -0.0889
   84CHL1   H3' 8626   4.479   6.010   6.731  1.6484  3.8966 -0.8975
   84CHL1    C4 8627   4.655   5.989   7.003  0.0247 -0.0336  0.3901
   84CHL1   H4A 8628   4.712   5.895   6.988  2.6540  0.9786  3.4757
   84CHL1   H4B 8629   4.723   6.071   6.974 -0.2475  0.5317  1.3327
   84CHL1    C5 8630   4.614   5.989   7.151 -0.0030 -0.0919  0.2053
   84CHL1    C6 8631   4.666   6.078   7.238 -0.3535  0.3887  0.5771
   84CHL1    H6 8632   4.747   6.147   7.208  0.8278 -1.8922 -1.7015
   84CHL1    C7 8633   4.631   6.085   7.380 -0.7474  0.0242  0.4748
   84CHL1   H7A 8634   4.727   6.097   7.433  0.3640 -0.7901 -1.3148
   84CHL1   H7B 8635   4.571   6.172   7.414 -0.6362 -0.3042  1.5297
   84CHL1    C8 8636   4.568   5.953   7.433  0.6211 -0.0283  0.6707
   84CHL1    H8 8637   4.645   5.873   7.430 -0.4616 -1.0504 -0.2980
   84CHL1   C14 8638   4.519   5.977   7.581  0.0898  0.0826 -0.1282
   84CHL1   H14 8639   4.435   6.049   7.567  2.0065  2.2940 -0.4354
   84CHL1   C15 8640   4.626   6.027   7.682 -0.0025  0.0944  0.2242
   84CHL1  H15A 8641   4.720   5.970   7.662 -1.2661 -1.5421 -1.1306
   84CHL1  H15B 8642   4.644   6.136   7.669  2.9688 -0.0326  2.4593
   84CHL1   C16 8643   4.555   5.991   7.812 -0.4345 -0.3371 -0.5590
   84CHL1  H16A 8644   4.618   5.927   7.878 -2.6289 -2.2916 -0.3158
   84CHL1  H16B 8645   4.526   6.085   7.865  2.1889  0.0120  0.3667
   84CHL1   C17 8646   4.430   5.915   7.783 -0.8255 -0.7470  0.9184
   84CHL1   H17 8647   4.349   5.991   7.777 -0.6932 -0.5420  1.7171
   84CHL1   C13 8648   4.449   5.858   7.641  0.4370  0.1062 -0.4534
   84CHL1   C18 8649   4.546   5.743   7.647 -0.0428 -0.6063  0.1481
   84CHL1  H18A 8650   4.503   5.654   7.697  2.0745 -2.0023 -0.4556
   84CHL1  H18B 8651   4.575   5.721   7.542  0.2610  0.0875  0.0836
   84CHL1  H18C 8652   4.641   5.769   7.700 -0.3111  1.6403 -0.4069
   84CHL1   C12 8653   4.328   5.829   7.549 -0.5175 -0.4943  0.3377
   84CHL1  H12A 8654   4.268   5.741   7.583 -0.5679 -0.4691  0.3131
   84CHL1  H12B 8655   4.269   5.923   7.563 -1.8757 -0.8376 -2.6888
   84CHL1   C11 8656   4.370   5.808   7.403 -0.1734  0.1434 -0.7026
   84CHL1  H11A 8657   4.426   5.713   7.387  1.7672  1.2957 -1.0118
   84CHL1  H11B 8658   4.275   5.800   7.345 -0.0393  0.0384 -0.9083
   84CHL1    C9 8659   4.453   5.925   7.338 -0.0628  0.3726  0.4107
   84CHL1    H9 8660   4.382   6.010   7.332 -0.7651 -0.2437 -0.0929
   84CHL1   C10 8661   4.499   5.899   7.191 -0.7478  0.2968 -0.5170
   84CHL1   C19 8662   4.562   5.760   7.177 -0.0540  0.0734  0.4813
   84CHL1  H19A 8663   4.597   5.732   7.076 -2.0669  0.1876 -0.2707
   84CHL1  H19B 8664   4.646   5.744   7.248 -1.3772 -1.7952  1.6846
   84CHL1  H19C 8665   4.486   5.682   7.201 -0.1688  0.1202  0.2690
   84CHL1    C1 8666   4.370   5.921   7.094 -0.2749  0.0520  0.5610
   84CHL1   H1A 8667   4.301   5.836   7.114  0.4479 -0.4034  1.1182
   84CHL1   H1B 8668   4.335   6.023   7.120  1.6299  0.4530  1.6301
   84CHL1    C2 8669   4.414   5.918   6.945  0.2168  0.0573  0.1981
   84CHL1   H2A 8670   4.332   5.941   6.873  1.1469 -1.1144 -1.2834
   84CHL1   H2B 8671   4.452   5.816   6.921  1.0507  0.3055  0.4645
   84CHL1   C20 8672   4.392   5.817   7.893 -0.3084 -0.4317 -0.5992
   84CHL1   H20 8673   4.474   5.743   7.903 -1.3264 -1.5295 -0.1113
   84CHL1   C21 8674   4.259   5.742   7.857 -0.1346 -0.2865 -0.1732
   84CHL1  H21A 8675   4.216   5.687   7.943  0.8790  1.0588  1.2461
   84CHL1  H21B 8676   4.282   5.663   7.782  2.2835  0.3001 -0.1172
   84CHL1  H21C 8677   4.186   5.817   7.820 -1.7080 -0.8085  1.8102
   84CHL1   C22 8678   4.375   5.899   8.027  0.4929 -0.6902 -0.0341
   84CHL1  H22A 8679   4.473   5.945   8.054  0.7849 -0.0178 -2.1175
   84CHL1  H22B 8680   4.301   5.982   8.017 -1.8634 -2.7760 -0.1875
   84CHL1   C23 8681   4.340   5.805   8.142 -0.5685  0.4125 -0.2787
   84CHL1  H23A 8682   4.230   5.796   8.139 -0.6834  1.8285 -0.8096
   84CHL1  H23B 8683   4.370   5.701   8.122 -1.4273  0.7302 -3.4023
   84CHL1   C24 8684   4.399   5.869   8.273  0.7335 -0.1266 -0.0830
   84CHL1  H24A 8685   4.508   5.852   8.282  0.5439 -0.2326  2.2490
   84CHL1  H24B 8686   4.382   5.979   8.274  0.0334 -0.2307 -0.3877
   84CHL1   C25 8687   4.331   5.811   8.399 -0.3859 -0.5283  0.2112
   84CHL1   H25 8688   4.223   5.828   8.378 -0.2908  1.7863  1.3548
   84CHL1   C26 8689   4.372   5.661   8.411 -0.0902 -0.6588 -0.4072
   84CHL1  H26A 8690   4.345   5.628   8.513  1.2068  1.4298  0.6458
   84CHL1  H26B 8691   4.330   5.599   8.330 -0.9930  1.4086 -1.5749
   84CHL1  H26C 8692   4.482   5.653   8.401 -0.0459  1.5414 -2.1328
   84CHL1   C27 8693   4.365   5.887   8.529 -0.1410 -0.7962 -0.3126
   84CHL1  H27A 8694   4.356   5.997   8.519  3.2413 -0.5125 -0.7650
   84CHL1  H27B 8695   4.309   5.843   8.615  0.2406 -0.3840  0.1476
   84CHL1  H27C 8696   4.471   5.854   8.541 -0.7374 -2.7349 -0.0838
   85CHL1    C3 8697   4.715   3.208   6.871  0.5133  0.5038 -0.9943
   85CHL1    H3 8698   4.807   3.268   6.859  0.9471  0.1598  0.5789
   85CHL1    O3 8699   4.670   3.172   6.745 -0.8766  0.0546  0.1067
   85CHL1   H3' 8700   4.576   3.193   6.735 -1.3029 -2.6265 -2.3589
   85CHL1    C4 8701   4.756   3.079   6.944 -0.5889  0.1994  0.9504
   85CHL1   H4A 8702   4.667   3.015   6.961 -2.0910  2.1243  0.6109
   85CHL1   H4B 8703   4.838   3.028   6.889 -0.1405  0.6471  1.1989
   85CHL1    C5 8704   4.793   3.106   7.082  0.2317  0.4048 -0.2397
   85CHL1    C6 8705   4.914   3.065   7.129 -0.6880  0.5213 -0.5973
   85CHL1    H6 8706   4.978   3.010   7.058 -0.3502  1.8340 -1.3141
   85CHL1    C7 8707   4.967   3.096   7.266  0.0761  0.6591  0.0831
   85CHL1   H7A 8708   5.016   3.008   7.312 -1.0530 -0.6505 -1.1659
   85CHL1   H7B 8709   5.047   3.173   7.258 -0.7793  1.3676 -2.2212
   85CHL1    C8 8710   4.860   3.149   7.365  0.5205  0.9313 -0.1769
   85CHL1    H8 8711   4.807   3.056   7.396  1.9456 -0.5121 -1.9136
   85CHL1   C14 8712   4.928   3.219   7.487 -0.1196  0.2964  0.2589
   85CHL1   H14 8713   4.972   3.314   7.449  1.6277 -1.1268 -1.3750
   85CHL1   C15 8714   5.050   3.163   7.553  0.4205 -0.3763  1.1800
   85CHL1  H15A 8715   5.034   3.056   7.578 -0.9055  0.2958  3.2898
   85CHL1  H15B 8716   5.142   3.154   7.491 -0.7979  3.2940 -1.3223
   85CHL1   C16 8717   5.066   3.244   7.681 -0.2965 -0.0155 -0.3142
   85CHL1  H16A 8718   5.077   3.171   7.764 -1.0178  0.1592 -0.0569
   85CHL1  H16B 8719   5.145   3.322   7.669 -0.0372 -0.4007 -1.1283
   85CHL1   C17 8720   4.932   3.329   7.700 -0.5316 -1.0182 -0.5869
   85CHL1   H17 8721   4.934   3.433   7.663 -2.2705 -0.5961  0.4580
   85CHL1   C13 8722   4.831   3.266   7.598 -0.2891 -0.6283 -0.7578
   85CHL1   C18 8723   4.766   3.135   7.655 -0.6008 -0.5641 -0.5026
   85CHL1  H18A 8724   4.688   3.093   7.589  0.2553 -1.1111 -1.1730
   85CHL1  H18B 8725   4.842   3.066   7.698  1.6426  0.7163 -2.2856
   85CHL1  H18C 8726   4.706   3.159   7.745 -0.4829 -0.9273 -0.3286
   85CHL1   C12 8727   4.723   3.353   7.530  0.5702 -0.3563  0.0914
   85CHL1  H12A 8728   4.648   3.393   7.601 -1.6211  0.9419 -2.8442
   85CHL1  H12B 8729   4.783   3.435   7.486 -0.4581 -0.4077 -1.4385
   85CHL1   C11 8730   4.658   3.298   7.407 -0.0921 -0.2159  0.0575
   85CHL1  H11A 8731   4.592   3.213   7.435 -1.9031  0.9268 -0.6155
   85CHL1  H11B 8732   4.594   3.374   7.357  1.1849  0.2978 -0.8207
   85CHL1    C9 8733   4.764   3.245   7.302 -0.1195  0.2829  0.4321
   85CHL1    H9 8734   4.815   3.333   7.258 -1.5296 -0.0216 -1.8499
   85CHL1   C10 8735   4.698   3.191   7.162 -0.7517  0.8340 -0.2537
   85CHL1   C19 8736   4.573   3.105   7.199 -0.1041  0.5512  0.0316
   85CHL1  H19A 8737   4.601   3.032   7.278 -1.8476 -0.2877 -0.1135
   85CHL1  H19B 8738   4.498   3.168   7.251 -1.1396 -0.1831 -0.5474
   85CHL1  H19C 8739   4.539   3.065   7.101  1.6188 -1.2950  0.1373
   85CHL1    C1 8740   4.649   3.317   7.084  0.3380  0.2954  0.2268
   85CHL1   H1A 8741   4.569   3.359   7.148  0.0729  1.7638 -1.0527
   85CHL1   H1B 8742   4.730   3.392   7.073 -0.2923  0.8778 -0.4531
   85CHL1    C2 8743   4.605   3.284   6.945 -0.4129  0.6274 -0.0951
   85CHL1   H2A 8744   4.597   3.381   6.891  1.1107  1.1746  0.6155
   85CHL1   H2B 8745   4.514   3.221   6.940 -2.9385  4.1069  0.1058
   85CHL1   C20 8746   4.892   3.332   7.849 -0.7784  0.0968 -0.3422
   85CHL1   H20 8747   4.869   3.229   7.885 -2.7691  0.9940  1.0879
   85CHL1   C21 8748   4.767   3.426   7.867 -0.5381 -0.8271  0.7654
   85CHL1  H21A 8749   4.779   3.521   7.811  0.4590 -2.1884 -1.3856
   85CHL1  H21B 8750   4.746   3.455   7.972 -2.2662  2.0423 -0.3371
   85CHL1  H21C 8751   4.674   3.373   7.837 -1.1555 -0.2190  1.6044
   85CHL1   C22 8752   5.005   3.376   7.947 -0.6580 -0.4653 -0.3571
   85CHL1  H22A 8753   5.103   3.336   7.912 -1.1866 -1.1584 -1.0747
   85CHL1  H22B 8754   5.004   3.486   7.936 -3.5789 -0.4621 -0.2928
   85CHL1   C23 8755   4.971   3.341   8.095 -0.8265  0.1463 -0.2086
   85CHL1  H23A 8756   4.875   3.392   8.118 -1.3694 -0.9734  0.0127
   85CHL1  H23B 8757   4.960   3.233   8.118 -0.5826 -0.3414 -2.2963
   85CHL1   C24 8758   5.068   3.411   8.202 -0.0438 -0.1584 -0.3410
   85CHL1  H24A 8759   5.077   3.520   8.180  0.7813 -0.4354 -1.4129
   85CHL1  H24B 8760   5.025   3.387   8.302 -0.8425  1.0003 -0.3884
   85CHL1   C25 8761   5.212   3.351   8.185 -0.5112 -0.0758 -0.1441
   85CHL1   H25 8762   5.250   3.367   8.082 -0.5686  2.2669  0.1891
   85CHL1   C26 8763   5.307   3.423   8.273  0.1719 -0.0271  0.4868
   85CHL1  H26A 8764   5.254   3.435   8.370  0.9228  0.5756  0.8248
   85CHL1  H26B 8765   5.402   3.367   8.286 -0.7315 -1.9621 -1.0377
   85CHL1  H26C 8766   5.318   3.530   8.248 -0.1680 -0.4154 -1.3611
   85CHL1   C27 8767   5.211   3.203   8.226 -0.1209  0.2116  0.4387
   85CHL1  H27A 8768   5.315   3.167   8.224  0.1852  1.1089 -2.6806
   85CHL1  H27B 8769   5.160   3.184   8.323  0.9664  0.7065  1.1133
   85CHL1  H27C 8770   5.147   3.140   8.161  1.0216 -2.4386  1.8244
   86CHL1    C3 8771   6.719   1.150   6.940  0.2814  0.8056  0.5476
   86CHL1    H3 8772   6.747   1.044   6.924 -1.3637  0.2124  1.5658
   86CHL1    O3 8773   6.742   1.223   6.824  0.3808  0.0974  0.3121
   86CHL1   H3' 8774   6.685   1.300   6.823 -0.9563 -0.8517  1.3029
   86CHL1    C4 8775   6.569   1.146   6.963 -0.1615 -0.0391  0.2063
   86CHL1   H4A 8776   6.524   1.247   6.977 -1.0923 -0.2192 -1.4059
   86CHL1   H4B 8777   6.523   1.105   6.870 -0.1414  2.0440 -0.7437
   86CHL1    C5 8778   6.530   1.070   7.087  0.4223  1.1836  0.2430
   86CHL1    C6 8779   6.430   0.976   7.080 -0.0772 -0.3355  0.0611
   86CHL1    H6 8780   6.380   0.944   6.987 -0.9149  0.1852  0.3225
   86CHL1    C7 8781   6.375   0.909   7.206  0.0242  0.4455 -0.2928
   86CHL1   H7A 8782   6.264   0.903   7.210  0.0662 -1.3945 -1.4727
   86CHL1   H7B 8783   6.411   0.804   7.198 -4.3968 -1.1744 -0.0609
   86CHL1    C8 8784   6.427   0.972   7.340  0.3658  0.7803 -1.0905
   86CHL1    H8 8785   6.377   1.069   7.363  1.7248  1.5978 -1.5242
   86CHL1   C14 8786   6.400   0.872   7.443  0.5901  0.2397 -0.3978
   86CHL1   H14 8787   6.457   0.780   7.416  0.4667 -0.1686  0.7058
   86CHL1   C15 8788   6.260   0.821   7.455 -0.0662 -0.5528  0.3735
   86CHL1  H15A 8789   6.186   0.903   7.444  0.0397 -0.4549  0.4072
   86CHL1  H15B 8790   6.233   0.736   7.387  0.1463  1.9309 -2.9408
   86CHL1   C16 8791   6.244   0.780   7.600  0.4507 -0.1787  0.3814
   86CHL1  H16A 8792   6.170   0.844   7.651  0.0558 -1.5359  1.5653
   86CHL1  H16B 8793   6.214   0.673   7.602  2.4915 -0.7810 -0.1973
   86CHL1   C17 8794   6.382   0.803   7.664 -0.7249 -0.9667 -0.2869
   86CHL1   H17 8795   6.446   0.716   7.637  0.1210 -1.6193  3.5683
   86CHL1   C13 8796   6.441   0.921   7.580  0.4218  0.6172 -0.4464
   86CHL1   C18 8797   6.380   1.060   7.613  0.0744 -0.1537  0.0091
   86CHL1  H18A 8798   6.424   1.138   7.548  1.5054 -1.1599 -0.2441
   86CHL1  H18B 8799   6.270   1.061   7.595  0.3254  1.2489 -1.5358
   86CHL1  H18C 8800   6.398   1.086   7.720  0.2333 -1.5398  0.3316
   86CHL1   C12 8801   6.599   0.931   7.580  0.6596 -0.1921  0.2020
   86CHL1  H12A 8802   6.633   0.969   7.679 -0.8239  0.2907  0.5344
   86CHL1  H12B 8803   6.648   0.831   7.571  0.2400 -0.2958 -1.1173
   86CHL1   C11 8804   6.645   1.039   7.473  0.6646 -0.2728 -0.1264
   86CHL1  H11A 8805   6.623   1.144   7.502 -1.0110 -0.9244  1.0138
   86CHL1  H11B 8806   6.754   1.024   7.454  0.3328 -1.9759 -0.7745
   86CHL1    C9 8807   6.577   1.007   7.332  0.0921 -0.0187  0.3249
   86CHL1    H9 8808   6.624   0.912   7.299 -0.3878 -0.1575  0.0326
   86CHL1   C10 8809   6.601   1.112   7.215 -0.5442  0.1109 -0.7481
   86CHL1   C19 8810   6.555   1.254   7.261 -0.4664  0.3477 -0.1044
   86CHL1  H19A 8811   6.581   1.328   7.183  0.5564 -0.6206 -0.6999
   86CHL1  H19B 8812   6.448   1.259   7.291 -0.8920  0.1722 -1.5645
   86CHL1  H19C 8813   6.618   1.283   7.348  0.3209 -1.5277 -0.0237
   86CHL1    C1 8814   6.755   1.118   7.191  0.0986 -0.4701  0.3849
   86CHL1   H1A 8815   6.797   1.163   7.283  1.7779  0.3561 -0.7556
   86CHL1   H1B 8816   6.775   1.009   7.178  2.0252 -0.1355  0.3735
   86CHL1    C2 8817   6.798   1.196   7.063  0.4179 -0.0400 -0.4427
   86CHL1   H2A 8818   6.909   1.188   7.053  0.4993 -0.5372  0.7182
   86CHL1   H2B 8819   6.784   1.305   7.084  1.8441  0.1869 -0.5778
   86CHL1   C20 8820   6.386   0.822   7.817  0.4060 -0.2283 -0.1436
   86CHL1   H20 8821   6.377   0.930   7.845 -1.0831 -0.1911 -0.7588
   86CHL1   C21 8822   6.525   0.770   7.855  0.1270 -0.3720  0.3594
   86CHL1  H21A 8823   6.608   0.836   7.822  1.0859 -1.4667  0.5519
   86CHL1  H21B 8824   6.537   0.663   7.828  0.9936 -0.2388  0.2054
   86CHL1  H21C 8825   6.534   0.770   7.966 -3.3385  0.5444  0.7056
   86CHL1   C22 8826   6.265   0.750   7.880 -0.0158  0.9477 -0.1394
   86CHL1  H22A 8827   6.179   0.816   7.856 -0.2857  1.2107  1.5360
   86CHL1  H22B 8828   6.261   0.647   7.839  2.8566 -0.1968  2.2653
   86CHL1   C23 8829   6.271   0.736   8.035 -0.4200 -0.6376  0.0612
   86CHL1  H23A 8830   6.365   0.686   8.067  1.3607  0.8461 -2.6168
   86CHL1  H23B 8831   6.266   0.841   8.072 -1.2822 -0.1901 -1.2782
   86CHL1   C24 8832   6.135   0.685   8.081  0.1587  0.5299  0.4927
   86CHL1  H24A 8833   6.052   0.719   8.016  0.7853 -0.0684 -0.6289
   86CHL1  H24B 8834   6.133   0.578   8.049  2.1359 -0.4721  3.4373
   86CHL1   C25 8835   6.110   0.683   8.234  0.1218  0.4373  0.3743
   86CHL1   H25 8836   6.128   0.784   8.276 -0.4411  0.2098  1.1739
   86CHL1   C26 8837   5.971   0.630   8.259 -0.1768  0.2770  0.5025
   86CHL1  H26A 8838   5.944   0.604   8.364  1.4191 -0.3493  0.7709
   86CHL1  H26B 8839   5.900   0.701   8.211  1.7959  2.0064  0.0653
   86CHL1  H26C 8840   5.957   0.537   8.200 -0.2084  0.6100 -0.0164
   86CHL1   C27 8841   6.210   0.586   8.294 -0.5864 -0.6223  0.3987
   86CHL1  H27A 8842   6.309   0.633   8.277 -1.2585  0.0156 -2.0204
   86CHL1  H27B 8843   6.190   0.583   8.403 -1.7747  0.4538  0.2142
   86CHL1  H27C 8844   6.204   0.485   8.248 -0.7383 -0.7478  0.6935
   87CHL1    C3 8845   6.752   5.891   6.935 -0.2388 -0.4538  0.1813
   87CHL1    H3 8846   6.847   5.947   6.943 -0.1990 -0.6801  1.3564
   87CHL1    O3 8847   6.731   5.893   6.797  0.0857  0.0018  0.2873
   87CHL1   H3' 8848   6.704   5.983   6.778  2.3624  1.1673  2.3292
   87CHL1    C4 8849   6.750   5.747   6.984 -0.3178 -0.8804 -0.2275
   87CHL1   H4A 8850   6.661   5.690   6.951 -2.3666  1.5224  0.9840
   87CHL1   H4B 8851   6.836   5.692   6.940 -0.1119 -0.2108 -0.6688
   87CHL1    C5 8852   6.760   5.733   7.134  0.0980 -0.4437 -0.5796
   87CHL1    C6 8853   6.861   5.659   7.181 -0.0542  0.2869 -0.6675
   87CHL1    H6 8854   6.934   5.606   7.117  0.1995  0.2371 -0.3379
   87CHL1    C7 8855   6.880   5.642   7.335  0.0965 -0.5508  0.0449
   87CHL1   H7A 8856   6.899   5.536   7.366 -1.3117 -0.2113  2.1390
   87CHL1   H7B 8857   6.971   5.696   7.370  0.0660 -1.6140  1.8940
   87CHL1    C8 8858   6.762   5.687   7.420  0.0118 -0.2553  0.0732
   87CHL1    H8 8859   6.679   5.614   7.407 -0.1511 -0.5279  2.4425
   87CHL1   C14 8860   6.817   5.699   7.562  0.1455 -0.8544 -0.1319
   87CHL1   H14 8861   6.894   5.778   7.553 -1.1750  0.4373 -0.3210
   87CHL1   C15 8862   6.873   5.572   7.630 -0.6307 -0.5141  0.7784
   87CHL1  H15A 8863   6.810   5.482   7.615 -1.3731 -0.0606  1.1129
   87CHL1  H15B 8864   6.980   5.558   7.606 -0.3828  2.8078 -0.3125
   87CHL1   C16 8865   6.873   5.607   7.782  0.5032 -0.0021  0.4698
   87CHL1  H16A 8866   6.838   5.526   7.850 -0.7016  0.5848  0.5679
   87CHL1  H16B 8867   6.979   5.630   7.806  1.1203 -1.3981 -0.8570
   87CHL1   C17 8868   6.793   5.741   7.794  0.6570  0.4227 -0.2277
   87CHL1   H17 8869   6.870   5.819   7.778  1.4524 -0.3217 -0.0750
   87CHL1   C13 8870   6.709   5.741   7.659 -0.1904 -0.3824 -0.0577
   87CHL1   C18 8871   6.599   5.641   7.678  0.1228 -0.8118 -0.0985
   87CHL1  H18A 8872   6.553   5.623   7.578 -0.9059 -0.4347  0.3003
   87CHL1  H18B 8873   6.626   5.542   7.719  1.5786  0.4057  1.9698
   87CHL1  H18C 8874   6.520   5.677   7.747  0.8381 -0.2425  0.4288
   87CHL1   C12 8875   6.656   5.881   7.618 -0.1823 -0.1724 -0.0032
   87CHL1  H12A 8876   6.585   5.930   7.687  0.4364  0.1704  0.3953
   87CHL1  H12B 8877   6.746   5.946   7.617  0.6612 -1.2760  1.3245
   87CHL1   C11 8878   6.607   5.883   7.473  0.8679  0.0672  0.0948
   87CHL1  H11A 8879   6.516   5.823   7.450 -0.0484  1.4432  0.0820
   87CHL1  H11B 8880   6.586   5.984   7.432 -1.8090  0.8734  3.2202
   87CHL1    C9 8881   6.709   5.826   7.374  0.4956  0.9102  0.9669
   87CHL1    H9 8882   6.798   5.891   7.386  0.5566  0.7313  1.5080
   87CHL1   C10 8883   6.666   5.815   7.223  0.2055 -0.2352 -0.0965
   87CHL1   C19 8884   6.527   5.745   7.208  0.3568 -0.1221 -0.4300
   87CHL1  H19A 8885   6.504   5.729   7.100 -0.9022 -0.6370 -0.0899
   87CHL1  H19B 8886   6.515   5.652   7.267  1.1050  1.8341  2.9422
   87CHL1  H19C 8887   6.445   5.808   7.249  0.6545 -1.6796  2.6629
   87CHL1    C1 8888   6.648   5.959   7.162 -0.0026  0.4024 -0.1561
   87CHL1   H1A 8889   6.563   6.013   7.210 -0.4513  0.1010 -0.5967
   87CHL1   H1B 8890   6.740   6.012   7.195  0.7768 -0.2728 -1.2219
   87CHL1    C2 8891   6.640   5.955   7.005  0.5068  0.0921 -0.1680
   87CHL1   H2A 8892   6.633   6.059   6.966 -0.3564 -0.2718 -0.9825
   87CHL1   H2B 8893   6.554   5.895   6.971 -0.1432  0.2949  1.0969
   87CHL1   C20 8894   6.716   5.760   7.926 -0.1063 -0.3850 -0.0869
   87CHL1   H20 8895   6.612   5.720   7.919 -0.8298  0.9930  2.3485
   87CHL1   C21 8896   6.694   5.910   7.966 -0.3467  0.3102 -0.7166
   87CHL1  H21A 8897   6.633   5.963   7.890  0.5573  1.1703 -0.8426
   87CHL1  H21B 8898   6.792   5.962   7.967 -0.1971  0.0202 -0.1087
   87CHL1  H21C 8899   6.648   5.906   8.068  1.2066 -4.4596 -0.0669
   87CHL1   C22 8900   6.778   5.687   8.045 -0.0757  0.3925 -0.3549
   87CHL1  H22A 8901   6.885   5.659   8.036  0.5915  3.6215 -3.4697
   87CHL1  H22B 8902   6.772   5.744   8.140 -1.8736 -0.4356  0.0561
   87CHL1   C23 8903   6.700   5.556   8.079 -0.4549 -0.4988 -0.6235
   87CHL1  H23A 8904   6.592   5.577   8.087  0.1350  1.7726  1.9334
   87CHL1  H23B 8905   6.713   5.498   7.985  2.9632 -0.8768  0.0024
   87CHL1   C24 8906   6.756   5.489   8.207 -0.1336 -0.1044  1.0931
   87CHL1  H24A 8907   6.865   5.469   8.204 -0.2767 -0.6665 -0.2884
   87CHL1  H24B 8908   6.741   5.553   8.297  0.8145 -0.5988  1.6139
   87CHL1   C25 8909   6.691   5.355   8.248  0.3116 -0.3404 -0.0640
   87CHL1   H25 8910   6.685   5.296   8.154  1.5478 -0.7853  0.1317
   87CHL1   C26 8911   6.780   5.283   8.353 -0.1753  0.4103  0.0409
   87CHL1  H26A 8912   6.889   5.299   8.341  0.0449 -0.3513  0.9810
   87CHL1  H26B 8913   6.744   5.328   8.447 -1.6857 -1.4474  0.3922
   87CHL1  H26C 8914   6.762   5.174   8.370 -0.6202  0.4849  0.0655
   87CHL1   C27 8915   6.541   5.362   8.292  0.2420  0.2154 -0.0366
   87CHL1  H27A 8916   6.479   5.411   8.213 -0.0360 -0.6742 -0.3800
   87CHL1  H27B 8917   6.503   5.259   8.304 -0.0051  0.4315  1.0795
   87CHL1  H27C 8918   6.546   5.411   8.391 -0.9599 -0.4279  0.3500
   88CHL1    C3 8919   3.874   4.089   6.833  0.0848 -0.7265 -0.0346
   88CHL1    H3 8920   3.775   4.041   6.849 -0.8363  0.8107 -1.0167
   88CHL1    O3 8921   3.872   4.127   6.691 -0.1914 -0.3786  0.5964
   88CHL1   H3' 8922   3.958   4.163   6.670 -1.5528  2.9931  0.4017
   88CHL1    C4 8923   3.873   4.227   6.905  0.0416 -0.1995  0.1636
   88CHL1   H4A 8924   3.962   4.289   6.882  0.1380 -0.9569 -1.5572
   88CHL1   H4B 8925   3.778   4.265   6.862 -0.9130 -0.5543  1.9319
   88CHL1    C5 8926   3.871   4.205   7.058  0.1895  0.2053  1.1438
   88CHL1    C6 8927   3.773   4.247   7.136  0.3386  0.3631 -0.7185
   88CHL1    H6 8928   3.699   4.315   7.092  1.0421  0.7294 -1.3464
   88CHL1    C7 8929   3.776   4.234   7.285  1.1586  0.2227 -0.2809
   88CHL1   H7A 8930   3.744   4.332   7.328 -0.1395  0.1803 -1.1265
   88CHL1   H7B 8931   3.713   4.152   7.325  1.3807  0.3902  0.4178
   88CHL1    C8 8932   3.916   4.199   7.344  0.2086 -0.0760 -0.0165
   88CHL1    H8 8933   3.978   4.291   7.338  0.5099 -0.0796  2.3931
   88CHL1   C14 8934   3.907   4.150   7.494  0.5888 -0.6431  0.6783
   88CHL1   H14 8935   3.865   4.047   7.489 -0.2218 -0.2590 -0.6505
   88CHL1   C15 8936   3.831   4.234   7.594 -0.6845 -0.0876  0.3877
   88CHL1  H15A 8937   3.873   4.336   7.588 -0.3743 -0.2979 -1.1608
   88CHL1  H15B 8938   3.721   4.244   7.579 -0.3065  2.6583 -0.9087
   88CHL1   C16 8939   3.867   4.180   7.733 -0.4043 -0.5823 -0.3978
   88CHL1  H16A 8940   3.879   4.261   7.808 -0.8714  0.4907 -1.4608
   88CHL1  H16B 8941   3.781   4.112   7.752  0.4356 -1.9315 -1.3257
   88CHL1   C17 8942   3.999   4.097   7.712  0.1543 -0.4659 -0.7694
   88CHL1   H17 8943   3.971   3.990   7.700  2.3526 -1.4272  2.0676
   88CHL1   C13 8944   4.040   4.124   7.565 -0.4832 -0.6122 -0.2035
   88CHL1   C18 8945   4.131   4.250   7.556  0.1259  0.7020 -0.4286
   88CHL1  H18A 8946   4.148   4.290   7.454 -0.4328  1.5931 -0.1746
   88CHL1  H18B 8947   4.085   4.328   7.620 -0.5525  0.4342 -0.5881
   88CHL1  H18C 8948   4.231   4.218   7.594  0.1061 -1.7814 -2.2955
   88CHL1   C12 8949   4.110   4.007   7.481  0.3708 -0.1923 -0.5660
   88CHL1  H12A 8950   4.218   4.000   7.506  0.3977 -0.9208 -0.8843
   88CHL1  H12B 8951   4.051   3.914   7.493 -0.6894  0.8577  2.5897
   88CHL1   C11 8952   4.113   4.046   7.330 -0.2416 -0.0132 -0.0281
   88CHL1  H11A 8953   4.197   4.119   7.324  2.4717 -2.9917  0.7290
   88CHL1  H11B 8954   4.139   3.953   7.276 -1.0103 -1.1421  1.5006
   88CHL1    C9 8955   3.975   4.089   7.265  0.9792 -0.5859  1.0262
   88CHL1    H9 8956   3.904   4.003   7.257  0.0180  0.2607  0.3477
   88CHL1   C10 8957   3.989   4.121   7.111 -0.2552 -0.1797  0.0862
   88CHL1   C19 8958   4.129   4.192   7.101  0.7398  0.3109 -0.0869
   88CHL1  H19A 8959   4.121   4.266   7.183  2.7453  1.3611 -0.8106
   88CHL1  H19B 8960   4.213   4.120   7.114  0.0315 -0.6994 -0.9945
   88CHL1  H19C 8961   4.143   4.249   7.007  3.5555 -0.5304 -0.1977
   88CHL1    C1 8962   3.994   3.991   7.027  0.0969 -0.0274 -0.1819
   88CHL1   H1A 8963   4.082   3.930   7.058  0.5862  0.7643 -0.0173
   88CHL1   H1B 8964   3.909   3.922   7.050  0.5190  0.1500  2.0001
   88CHL1    C2 8965   3.991   3.998   6.876  0.2436  0.7946  0.7634
   88CHL1   H2A 8966   3.971   3.905   6.820 -0.1347  0.6727  1.1030
   88CHL1   H2B 8967   4.078   4.057   6.839 -0.4739 -0.2078 -2.6819
   88CHL1   C20 8968   4.101   4.112   7.825 -0.3164  0.8476 -0.4041
   88CHL1   H20 8969   4.137   4.217   7.823  1.8946  0.1029 -1.0201
   88CHL1   C21 8970   4.225   4.022   7.793 -0.0013 -0.1691 -0.0901
   88CHL1  H21A 8971   4.174   3.928   7.765  1.1882 -0.8287 -0.0428
   88CHL1  H21B 8972   4.291   4.000   7.880 -0.5131  1.6976  0.8189
   88CHL1  H21C 8973   4.284   4.063   7.709  0.8462 -0.3301  0.4278
   88CHL1   C22 8974   4.029   4.079   7.955 -0.0128 -0.1338 -0.4022
   88CHL1  H22A 8975   3.929   4.121   7.982  0.8787  0.7090  1.7279
   88CHL1  H22B 8976   4.020   3.969   7.953 -1.2890 -0.0253 -1.5754
   88CHL1   C23 8977   4.120   4.119   8.072  0.3732 -0.4569  0.1957
   88CHL1  H23A 8978   4.203   4.046   8.080 -0.2394 -1.3416 -1.2967
   88CHL1  H23B 8979   4.167   4.216   8.046  0.6991 -0.4507  0.8087
   88CHL1   C24 8980   4.041   4.122   8.208  1.3972  0.2642  0.4160
   88CHL1  H24A 8981   3.956   4.193   8.202  0.3412 -0.9870  0.1723
   88CHL1  H24B 8982   3.991   4.024   8.226 -0.6661  0.7200 -2.4319
   88CHL1   C25 8983   4.126   4.159   8.328  0.2351 -0.3022  0.2365
   88CHL1   H25 8984   4.206   4.084   8.347  2.4385  2.3903  1.9979
   88CHL1   C26 8985   4.198   4.290   8.303  0.1974  0.1305  0.0287
   88CHL1  H26A 8986   4.282   4.275   8.232  0.3742 -0.2581  0.3209
   88CHL1  H26B 8987   4.120   4.365   8.275  1.0480  1.6398  1.5678
   88CHL1  H26C 8988   4.248   4.328   8.395  1.2072 -4.1840  1.3642
   88CHL1   C27 8989   4.040   4.157   8.458 -0.4570 -0.4135 -0.5881
   88CHL1  H27A 8990   4.023   4.050   8.483  0.3968 -0.5675 -0.6351
   88CHL1  H27B 8991   4.101   4.198   8.541  0.4503 -1.2228 -0.8539
   88CHL1  H27C 8992   3.947   4.218   8.448 -0.4079  0.0529  1.5660
   89CHL1    C3 8993   0.064   0.751   6.922  0.5102 -0.0343  0.0466
   89CHL1    H3 8994   0.104   0.843   6.969  0.9412  0.8630 -2.0212
   89CHL1    O3 8995   0.036   0.765   6.785 -0.0844  0.2980  0.3875
   89CHL1   H3' 8996   0.124   0.775   6.748  0.4751  0.6777  1.7864
   89CHL1    C4 8997   0.159   0.635   6.938  0.3552  0.4898 -0.0269
   89CHL1   H4A 8998   0.105   0.551   6.889 -0.2312 -1.0417  3.1207
   89CHL1   H4B 8999   0.244   0.672   6.877 -0.1331  0.7816 -0.5393
   89CHL1    C5 9000   0.185   0.596   7.081  0.0357 -0.2706  0.0343
   89CHL1    C6 9001   0.313   0.574   7.118  0.5127  0.1167  0.2572
   89CHL1    H6 9002   0.392   0.578   7.042  0.8472  1.5006  0.6561
   89CHL1    C7 9003   0.352   0.543   7.257  0.4969 -0.0716  0.2191
   89CHL1   H7A 9004   0.445   0.482   7.261  1.1316  0.6305 -2.3993
   89CHL1   H7B 9005   0.375   0.643   7.298 -0.3612 -0.3099  1.3133
   89CHL1    C8 9006   0.241   0.504   7.355  0.3757 -0.2249  0.7786
   89CHL1    H8 9007   0.212   0.399   7.333 -2.5066  0.4310  1.1784
   89CHL1   C14 9008   0.273   0.529   7.495 -0.0475 -0.4008 -1.1023
   89CHL1   H14 9009   0.283   0.639   7.512  2.5882 -0.3066 -2.8777
   89CHL1   C15 9010   0.402   0.469   7.550 -0.0650 -0.1349  0.3770
   89CHL1  H15A 9011   0.412   0.366   7.511  0.5568  0.0688 -0.0113
   89CHL1  H15B 9012   0.493   0.526   7.523  1.3601 -2.6997 -0.3915
   89CHL1   C16 9013   0.383   0.445   7.701 -0.0944 -0.2338 -0.4801
   89CHL1  H16A 9014   0.397   0.336   7.716  0.0731 -0.3251 -1.2836
   89CHL1  H16B 9015   0.454   0.507   7.761 -0.1181 -0.2214 -0.4645
   89CHL1   C17 9016   0.243   0.495   7.732  0.2673 -0.4603  0.2539
   89CHL1   H17 9017   0.258   0.605   7.741  1.1666 -0.4065 -1.6404
   89CHL1   C13 9018   0.167   0.473   7.594 -0.9153 -1.0244 -0.5074
   89CHL1   C18 9019   0.140   0.325   7.575  0.4081  0.4378 -0.6245
   89CHL1  H18A 9020   0.238   0.277   7.556 -1.1803 -2.7686 -1.2324
   89CHL1  H18B 9021   0.081   0.297   7.665 -1.2162  2.2914 -1.0669
   89CHL1  H18C 9022   0.072   0.305   7.489 -0.2784 -0.3190  0.0885
   89CHL1   C12 9023   0.036   0.564   7.571 -0.1428  0.3746 -0.4403
   89CHL1  H12A 9024  -0.047   0.539   7.641  0.1550  0.3725 -0.0833
   89CHL1  H12B 9025   0.082   0.664   7.590  0.4138 -0.2775  1.8079
   89CHL1   C11 9026  -0.002   0.564   7.427  0.7986  0.0003  0.1726
   89CHL1  H11A 9027  -0.045   0.463   7.412 -1.3603  1.0701 -1.1344
   89CHL1  H11B 9028  -0.081   0.640   7.407  0.6745  0.2824  1.6571
   89CHL1    C9 9029   0.116   0.592   7.323  0.5406  0.6094  0.7771
   89CHL1    H9 9030   0.151   0.697   7.334 -1.4951  1.5333 -1.2193
   89CHL1   C10 9031   0.072   0.587   7.174 -0.5031 -0.2672 -0.8044
   89CHL1   C19 9032   0.002   0.459   7.155  0.1049  0.5932 -0.2526
   89CHL1  H19A 9033   0.059   0.364   7.169  0.3072  0.6070 -0.9555
   89CHL1  H19B 9034  -0.086   0.449   7.221 -0.0813 -0.8190 -0.6880
   89CHL1  H19C 9035  -0.036   0.444   7.051 -1.2513  2.3544 -0.0194
   89CHL1    C1 9036  -0.037   0.692   7.142  0.6527 -0.2315  0.4268
   89CHL1   H1A 9037  -0.128   0.669   7.200 -0.4377  1.1940 -0.6915
   89CHL1   H1B 9038   0.004   0.786   7.186  0.9530  0.3709 -1.0917
   89CHL1    C2 9039  -0.063   0.725   6.997  0.0607 -0.2419 -0.2285
   89CHL1   H2A 9040  -0.132   0.811   6.989  0.1923  0.1180  2.2566
   89CHL1   H2B 9041  -0.110   0.634   6.954  1.7151 -1.6552  0.8603
   89CHL1   C20 9042   0.174   0.458   7.864  0.1462 -0.6815  0.3373
   89CHL1   H20 9043   0.140   0.354   7.849  0.3384 -0.9001  1.3634
   89CHL1   C21 9044   0.059   0.546   7.897  0.2570 -0.2505  0.7878
   89CHL1  H21A 9045   0.075   0.653   7.871 -0.4143 -0.8180 -2.0956
   89CHL1  H21B 9046   0.020   0.532   8.001  1.2872 -0.2741  1.1723
   89CHL1  H21C 9047  -0.034   0.518   7.843 -1.4374  1.7327  2.5317
   89CHL1   C22 9048   0.276   0.447   7.982  0.1247 -0.0711 -0.1571
   89CHL1  H22A 9049   0.221   0.412   8.072  0.9567  1.8886  1.1453
   89CHL1  H22B 9050   0.357   0.371   7.968 -0.1874 -0.7914  1.7336
   89CHL1   C23 9051   0.348   0.578   8.020  0.7360 -0.3579  0.0175
   89CHL1  H23A 9052   0.383   0.639   7.934 -0.8881 -2.0194 -1.8653
   89CHL1  H23B 9053   0.278   0.639   8.081  0.3525  0.2981 -1.0766
   89CHL1   C24 9054   0.476   0.555   8.096 -0.3642 -0.3254  0.1912
   89CHL1  H24A 9055   0.451   0.487   8.180 -2.1708  1.2608  0.9810
   89CHL1  H24B 9056   0.538   0.491   8.030  0.2872  0.8216 -0.3181
   89CHL1   C25 9057   0.565   0.668   8.151  0.3617 -0.0586  0.0717
   89CHL1   H25 9058   0.618   0.699   8.059 -0.7494 -1.9065 -1.2137
   89CHL1   C26 9059   0.489   0.784   8.194 -0.1791 -0.4765  0.3215
   89CHL1  H26A 9060   0.433   0.829   8.109  1.3244 -2.2458 -1.6359
   89CHL1  H26B 9061   0.428   0.763   8.285 -1.4373  3.6556  0.5356
   89CHL1  H26C 9062   0.555   0.872   8.206  1.1340 -1.2491 -1.1606
   89CHL1   C27 9063   0.657   0.619   8.258 -0.5288 -0.9070  0.2982
   89CHL1  H27A 9064   0.719   0.531   8.230  0.8772 -0.3103  1.4562
   89CHL1  H27B 9065   0.726   0.705   8.276 -0.0733 -1.5871  1.8637
   89CHL1  H27C 9066   0.603   0.602   8.354 -1.6247  2.7492  0.4316
   90CHL1    C3 9067   0.223   2.857   6.820  0.1119 -0.5485 -0.5422
   90CHL1    H3 9068   0.250   2.964   6.825  0.0512 -0.6181  1.7726
   90CHL1    O3 9069   0.215   2.816   6.690  0.7387 -0.3067  0.4674
   90CHL1   H3' 9070   0.213   2.721   6.692 -0.4576 -0.3659 -1.8228
   90CHL1    C4 9071   0.321   2.774   6.901  0.1602 -0.6214  0.7696
   90CHL1   H4A 9072   0.314   2.668   6.866  0.7546 -0.8614  1.3742
   90CHL1   H4B 9073   0.416   2.818   6.864 -0.0332 -1.1017 -0.3163
   90CHL1    C5 9074   0.321   2.786   7.049  0.1735  0.6394 -0.0505
   90CHL1    C6 9075   0.434   2.825   7.115 -0.2111 -0.3587  0.0860
   90CHL1    H6 9076   0.521   2.856   7.056 -1.6921  0.5589 -1.6480
   90CHL1    C7 9077   0.442   2.829   7.267 -0.3788 -0.6204  0.1125
   90CHL1   H7A 9078   0.541   2.790   7.298  0.2120  0.3855 -0.4962
   90CHL1   H7B 9079   0.426   2.935   7.297  2.7906 -0.5385  1.6686
   90CHL1    C8 9080   0.326   2.752   7.334 -0.5288 -0.6492 -0.0700
   90CHL1    H8 9081   0.340   2.642   7.324 -0.1278 -0.5777 -0.3122
   90CHL1   C14 9082   0.317   2.779   7.486  0.3458 -0.3209  0.0584
   90CHL1   H14 9083   0.298   2.888   7.500  0.0052 -0.4576  0.7235
   90CHL1   C15 9084   0.442   2.745   7.566 -0.2256  0.1173  0.8236
   90CHL1  H15A 9085   0.479   2.645   7.536 -1.1199  0.3722 -1.2400
   90CHL1  H15B 9086   0.526   2.815   7.547  0.0703 -0.6895 -1.0038
   90CHL1   C16 9087   0.392   2.756   7.710 -0.1003 -0.0824 -0.1329
   90CHL1  H16A 9088   0.421   2.665   7.767  0.1605  0.4995  0.6753
   90CHL1  H16B 9089   0.424   2.850   7.760 -1.1879  0.2767 -0.1102
   90CHL1   C17 9090   0.238   2.750   7.703  0.7664 -0.0970  0.1166
   90CHL1   H17 9091   0.208   2.855   7.721 -0.3998 -0.5921  1.1813
   90CHL1   C13 9092   0.199   2.709   7.561 -0.5366  0.8166  0.4874
   90CHL1   C18 9093   0.202   2.554   7.560  0.2337  0.9460 -0.7098
   90CHL1  H18A 9094   0.180   2.507   7.462  0.9408  1.7920 -1.2823
   90CHL1  H18B 9095   0.300   2.513   7.593 -2.4108 -3.4769  2.1657
   90CHL1  H18C 9096   0.136   2.513   7.639  1.9555  1.4043  1.0040
   90CHL1   C12 9097   0.071   2.764   7.499 -0.7282 -0.2247  0.4261
   90CHL1  H12A 9098  -0.019   2.716   7.544 -2.4837  1.3362 -1.3486
   90CHL1  H12B 9099   0.078   2.872   7.523 -0.7334 -0.4700  1.5242
   90CHL1   C11 9100   0.064   2.751   7.347  0.1385 -0.0574  0.9527
   90CHL1  H11A 9101   0.060   2.642   7.323  0.0978 -0.1327  1.2927
   90CHL1  H11B 9102  -0.023   2.812   7.316  0.2109  0.3551  1.5491
   90CHL1    C9 9103   0.192   2.798   7.268 -0.2018  0.4732  0.2741
   90CHL1    H9 9104   0.204   2.908   7.277 -2.6577  0.7547  0.4288
   90CHL1   C10 9105   0.190   2.762   7.115  0.0804  0.3531  1.0871
   90CHL1   C19 9106   0.166   2.610   7.096 -0.2838 -0.1933 -0.2851
   90CHL1  H19A 9107   0.061   2.580   7.114  0.3122 -2.8451 -1.0230
   90CHL1  H19B 9108   0.185   2.569   6.994 -0.8363 -1.3389  0.0682
   90CHL1  H19C 9109   0.228   2.551   7.166  2.1880  2.4169 -0.1616
   90CHL1    C1 9110   0.081   2.842   7.039  0.0600 -0.1800  0.4585
   90CHL1   H1A 9111  -0.024   2.819   7.066 -0.3355 -0.4999 -1.2789
   90CHL1   H1B 9112   0.096   2.948   7.069 -2.1657  1.0383 -2.4290
   90CHL1    C2 9113   0.084   2.838   6.885 -0.3944  0.0498  0.3641
   90CHL1   H2A 9114   0.007   2.901   6.835 -0.6871 -2.5058 -2.5717
   90CHL1   H2B 9115   0.058   2.731   6.866  1.2742 -0.1527 -0.8858
   90CHL1   C20 9116   0.167   2.682   7.826  0.7399  0.2220  0.0808
   90CHL1   H20 9117   0.214   2.582   7.839 -0.0090 -0.3368 -1.4793
   90CHL1   C21 9118   0.019   2.678   7.815  0.2810 -0.1812  0.2464
   90CHL1  H21A 9119  -0.022   2.777   7.788 -1.9793 -1.1941 -0.2022
   90CHL1  H21B 9120  -0.019   2.640   7.913 -0.1421 -0.4452 -0.0151
   90CHL1  H21C 9121  -0.024   2.614   7.735 -1.3661  0.6894  0.4038
   90CHL1   C22 9122   0.201   2.761   7.955  0.2130 -0.7579 -0.3336
   90CHL1  H22A 9123   0.300   2.810   7.943  0.5660 -1.1995  0.7181
   90CHL1  H22B 9124   0.136   2.850   7.973  2.9349  1.0506  1.0137
   90CHL1   C23 9125   0.196   2.681   8.087  0.3498  0.4111  0.1153
   90CHL1  H23A 9126   0.090   2.650   8.097  0.1485  0.9240 -0.4000
   90CHL1  H23B 9127   0.250   2.584   8.091  2.0363  1.1169 -3.2477
   90CHL1   C24 9128   0.240   2.763   8.207 -0.1589  0.3639  0.4508
   90CHL1  H24A 9129   0.322   2.828   8.173  1.2777 -1.8870 -0.5034
   90CHL1  H24B 9130   0.163   2.840   8.226  0.3779  0.8944  0.4666
   90CHL1   C25 9131   0.256   2.702   8.347  1.0616  1.0090  0.1517
   90CHL1   H25 9132   0.339   2.628   8.343  0.9276  0.8301  0.6733
   90CHL1   C26 9133   0.309   2.807   8.445  0.3555  0.1362 -0.7116
   90CHL1  H26A 9134   0.233   2.876   8.487  0.7877  0.7757 -0.9664
   90CHL1  H26B 9135   0.349   2.747   8.530 -0.1031  0.9004  0.0476
   90CHL1  H26C 9136   0.397   2.863   8.407  0.1803 -0.0994 -1.4766
   90CHL1   C27 9137   0.132   2.639   8.414  0.8058 -0.5750 -0.4663
   90CHL1  H27A 9138   0.054   2.717   8.431 -1.0542 -2.5652  0.3151
   90CHL1  H27B 9139   0.092   2.554   8.356  0.7261 -0.0844 -1.1331
   90CHL1  H27C 9140   0.167   2.607   8.515 -2.2866 -2.3489  0.0892
   91CHL1    C3 9141   1.458   4.128   7.244  0.2962 -0.5352 -0.4546
   91CHL1    H3 9142   1.565   4.100   7.251 -0.3698 -3.2886 -0.4159
   91CHL1    O3 9143   1.432   4.202   7.121 -0.3634 -0.2816  0.1081
   91CHL1   H3' 9144   1.477   4.149   7.055  0.9155  1.1854 -0.2124
   91CHL1    C4 9145   1.377   4.006   7.229 -0.3276  0.0570 -0.4900
   91CHL1   H4A 9146   1.276   4.029   7.188  0.1639  1.4168 -0.9907
   91CHL1   H4B 9147   1.422   3.941   7.150  0.7395  1.0099 -0.6763
   91CHL1    C5 9148   1.356   3.919   7.349  0.2130  0.9438  0.3254
   91CHL1    C6 9149   1.361   3.788   7.339  0.7512  0.2042 -0.2262
   91CHL1    H6 9150   1.381   3.738   7.243  3.3097  1.8940 -0.6186
   91CHL1    C7 9151   1.344   3.696   7.457  0.2979 -0.2278 -0.1381
   91CHL1   H7A 9152   1.297   3.599   7.431  2.2114 -1.1799 -0.0804
   91CHL1   H7B 9153   1.441   3.664   7.501  0.8740 -1.2290 -2.0768
   91CHL1    C8 9154   1.266   3.769   7.576 -0.1471  0.5848  0.5786
   91CHL1    H8 9155   1.160   3.767   7.542  0.1245  0.0018 -0.2606
   91CHL1   C14 9156   1.280   3.685   7.701 -1.1517 -0.2136  0.0283
   91CHL1   H14 9157   1.389   3.685   7.723 -0.9177 -0.6193 -1.1380
   91CHL1   C15 9158   1.234   3.545   7.695 -0.2703  0.0914 -1.2352
   91CHL1  H15A 9159   1.135   3.535   7.645 -1.5991  0.4112  1.2365
   91CHL1  H15B 9160   1.311   3.487   7.640 -1.5740 -2.8398 -0.0796
   91CHL1   C16 9161   1.219   3.502   7.842  0.2623  0.4046  0.3833
   91CHL1  H16A 9162   1.114   3.466   7.848  0.0267  0.6314 -1.9818
   91CHL1  H16B 9163   1.289   3.423   7.875  0.3457 -0.5661 -2.0679
   91CHL1   C17 9164   1.235   3.629   7.933 -0.1882  0.3485  0.1162
   91CHL1   H17 9165   1.342   3.629   7.961 -0.4486  0.4787  1.1160
   91CHL1   C13 9166   1.204   3.742   7.825  0.0324  0.2141  0.2397
   91CHL1   C18 9167   1.050   3.753   7.808  0.0943  0.4056  0.1177
   91CHL1  H18A 9168   0.999   3.798   7.896  0.7007 -1.8258  1.6595
   91CHL1  H18B 9169   1.028   3.830   7.731  1.2245  1.2416  0.6193
   91CHL1  H18C 9170   0.985   3.665   7.786 -0.4444  0.5122  1.1997
   91CHL1   C12 9171   1.272   3.876   7.861  0.0013 -0.7956  0.1690
   91CHL1  H12A 9172   1.229   3.920   7.954  1.4694 -3.4336  2.1635
   91CHL1  H12B 9173   1.377   3.854   7.892  0.2804 -0.9427 -0.8633
   91CHL1   C11 9174   1.279   3.968   7.737  0.0745  0.0438  0.4087
   91CHL1  H11A 9175   1.180   4.018   7.727 -0.0845 -0.3732 -0.1138
   91CHL1  H11B 9176   1.345   4.057   7.749 -2.2129  1.6926  1.1037
   91CHL1    C9 9177   1.329   3.902   7.603 -0.7183 -0.2387 -0.2235
   91CHL1    H9 9178   1.439   3.892   7.617 -0.4736  1.4806 -0.8630
   91CHL1   C10 9179   1.315   3.996   7.473  0.2835 -0.0808  0.5175
   91CHL1   C19 9180   1.167   4.044   7.453 -0.5907 -0.0783 -0.5994
   91CHL1  H19A 9181   1.099   3.968   7.496 -1.8446  1.5079  0.2866
   91CHL1  H19B 9182   1.143   4.134   7.514 -2.5603 -0.0788 -1.3677
   91CHL1  H19C 9183   1.149   4.074   7.348  1.1618  0.8834 -0.6530
   91CHL1    C1 9184   1.407   4.116   7.495  0.4977 -0.1310  0.3677
   91CHL1   H1A 9185   1.371   4.188   7.572  1.0796 -0.0119  0.5296
   91CHL1   H1B 9186   1.511   4.092   7.524  0.3451 -0.7007  0.4483
   91CHL1    C2 9187   1.414   4.208   7.375  0.0052  0.9614  0.5063
   91CHL1   H2A 9188   1.475   4.296   7.404 -0.6699  0.6642  2.9225
   91CHL1   H2B 9189   1.308   4.237   7.357 -1.6274 -3.2116  2.8379
   91CHL1   C20 9190   1.150   3.624   8.062  0.2915  0.0716 -0.1643
   91CHL1   H20 9191   1.043   3.649   8.043  0.5878  0.3904 -1.4648
   91CHL1   C21 9192   1.203   3.738   8.155 -0.3616  1.3528 -0.1469
   91CHL1  H21A 9193   1.158   3.726   8.256  3.1128  3.1995  1.7373
   91CHL1  H21B 9194   1.174   3.841   8.129 -3.0679  0.3225 -1.3799
   91CHL1  H21C 9195   1.314   3.724   8.154 -0.6515 -1.1280 -0.5641
   91CHL1   C22 9196   1.156   3.492   8.136  0.3032 -0.1150  0.0692
   91CHL1  H22A 9197   1.123   3.415   8.063 -1.3746  1.5089 -0.9232
   91CHL1  H22B 9198   1.255   3.467   8.179  0.3026 -3.2045 -1.5843
   91CHL1   C23 9199   1.064   3.485   8.266 -0.0199 -0.1287  0.2230
   91CHL1  H23A 9200   1.118   3.519   8.358  2.8646 -1.3467 -0.9421
   91CHL1  H23B 9201   0.976   3.546   8.239  0.1376 -0.1318 -0.2976
   91CHL1   C24 9202   0.992   3.357   8.284  0.4050  0.3709 -0.3104
   91CHL1  H24A 9203   0.957   3.337   8.181  4.3585  2.5131 -2.1592
   91CHL1  H24B 9204   1.068   3.282   8.315 -0.4785 -0.5376 -0.3100
   91CHL1   C25 9205   0.876   3.354   8.385 -0.5161  0.5498  0.7527
   91CHL1   H25 9206   0.836   3.251   8.380  0.5592  0.1511  0.0933
   91CHL1   C26 9207   0.922   3.393   8.524  0.2010  0.4312 -0.0477
   91CHL1  H26A 9208   0.998   3.322   8.563 -2.9821 -3.6540 -0.9453
   91CHL1  H26B 9209   0.945   3.501   8.527  2.1745  0.0534 -0.7733
   91CHL1  H26C 9210   0.829   3.374   8.581  2.1705  0.1997  3.1980
   91CHL1   C27 9211   0.757   3.430   8.333 -0.0668  0.5066 -0.1897
   91CHL1  H27A 9212   0.669   3.446   8.399  0.3191  0.0320  0.4470
   91CHL1  H27B 9213   0.781   3.535   8.304 -2.3938  1.0185 -0.4242
   91CHL1  H27C 9214   0.723   3.383   8.238 -2.4897  1.8274 -0.0369
   92CHL1    C3 9215   4.250   5.389   6.964 -0.0643 -0.1321 -0.5298
   92CHL1    H3 9216   4.342   5.326   6.966 -1.1662 -1.8266 -2.1538
   92CHL1    O3 9217   4.215   5.414   6.828  0.1884  0.3035 -0.5648
   92CHL1   H3' 9218   4.153   5.486   6.842  0.7715  0.2957  2.3124
   92CHL1    C4 9219   4.129   5.321   7.028  0.1994  0.8926  0.0475
   92CHL1   H4A 9220   4.048   5.396   7.039 -0.9870 -0.6132  1.7519
   92CHL1   H4B 9221   4.085   5.237   6.969  0.3803  0.5799  0.3569
   92CHL1    C5 9222   4.158   5.271   7.170 -0.1484 -0.3867  0.5758
   92CHL1    C6 9223   4.150   5.139   7.210 -0.1737 -0.3555  0.0216
   92CHL1    H6 9224   4.131   5.059   7.136  0.2107  0.7007 -1.2473
   92CHL1    C7 9225   4.181   5.101   7.353 -0.1357 -0.3909 -0.0873
   92CHL1   H7A 9226   4.096   5.036   7.384 -0.2939 -0.7973 -1.3350
   92CHL1   H7B 9227   4.264   5.028   7.360  0.7607  0.6280 -0.1007
   92CHL1    C8 9228   4.194   5.216   7.452 -0.2088  0.6660  0.6658
   92CHL1    H8 9229   4.092   5.254   7.473 -1.1434 -1.8058  0.7654
   92CHL1   C14 9230   4.259   5.167   7.582  0.0128 -0.0308  0.3776
   92CHL1   H14 9231   4.361   5.138   7.551 -0.4533 -1.0651 -0.2239
   92CHL1   C15 9232   4.198   5.045   7.650 -0.2169  0.1804 -0.2587
   92CHL1  H15A 9233   4.088   5.053   7.663 -0.3525 -0.0045 -1.3014
   92CHL1  H15B 9234   4.213   4.957   7.585  1.3174  0.0914  0.2112
   92CHL1   C16 9235   4.267   5.040   7.780  0.2321 -0.7698 -0.6719
   92CHL1  H16A 9236   4.195   5.007   7.859  3.2965  1.1167  3.0399
   92CHL1  H16B 9237   4.340   4.957   7.789  0.1584 -0.8639 -0.9271
   92CHL1   C17 9238   4.339   5.175   7.802 -0.1358  0.4678  0.5671
   92CHL1   H17 9239   4.445   5.157   7.775 -0.2525 -0.1760  0.5394
   92CHL1   C13 9240   4.288   5.262   7.692 -0.1129 -0.0508  0.1075
   92CHL1   C18 9241   4.158   5.335   7.734 -0.1264  1.2512  1.3205
   92CHL1  H18A 9242   4.132   5.401   7.649  0.2030  0.1569  0.3476
   92CHL1  H18B 9243   4.073   5.268   7.758  1.8269 -0.9107  2.4649
   92CHL1  H18C 9244   4.179   5.398   7.822  2.3832  3.6167 -0.8705
   92CHL1   C12 9245   4.383   5.363   7.635 -0.1384 -0.1950 -0.7313
   92CHL1  H12A 9246   4.408   5.438   7.713  0.3256 -0.0571 -1.0049
   92CHL1  H12B 9247   4.476   5.308   7.607 -0.3300  0.0017 -1.7863
   92CHL1   C11 9248   4.341   5.433   7.496  0.0921 -0.2818 -0.2812
   92CHL1  H11A 9249   4.264   5.508   7.522 -0.0609  0.2796 -2.2724
   92CHL1  H11B 9250   4.429   5.474   7.443 -0.6790  0.7262 -0.7919
   92CHL1    C9 9251   4.282   5.323   7.389 -0.0814 -1.0979 -0.2378
   92CHL1    H9 9252   4.377   5.283   7.348 -0.8248 -2.2434 -0.8676
   92CHL1   C10 9253   4.208   5.385   7.265 -0.0786 -0.6053 -0.3894
   92CHL1   C19 9254   4.085   5.465   7.300  0.4117  0.4238  0.0787
   92CHL1  H19A 9255   4.001   5.399   7.330  0.5623 -0.3889 -1.2564
   92CHL1  H19B 9256   4.085   5.539   7.383 -0.4986  0.3332  0.1640
   92CHL1  H19C 9257   4.048   5.518   7.209  1.4727  1.0690  0.0205
   92CHL1    C1 9258   4.318   5.470   7.182  0.1711 -1.0285 -0.9124
   92CHL1   H1A 9259   4.341   5.558   7.246 -0.8871 -1.0819 -0.4422
   92CHL1   H1B 9260   4.412   5.411   7.175 -0.9352 -2.6504 -2.5320
   92CHL1    C2 9261   4.284   5.511   7.037  0.0732 -0.2039  0.0592
   92CHL1   H2A 9262   4.368   5.567   6.990  0.3681 -0.2595  0.5168
   92CHL1   H2B 9263   4.200   5.584   7.038  0.7775  0.6540 -1.4227
   92CHL1   C20 9264   4.341   5.233   7.945  0.1277  0.1360  0.7974
   92CHL1   H20 9265   4.235   5.265   7.958 -0.4802 -1.5735  0.1074
   92CHL1   C21 9266   4.433   5.354   7.961  1.0264 -0.1809 -0.2425
   92CHL1  H21A 9267   4.393   5.438   7.900  0.9587 -0.8414 -1.1273
   92CHL1  H21B 9268   4.535   5.323   7.929  1.7614  1.6481  0.2680
   92CHL1  H21C 9269   4.450   5.379   8.068  1.2325 -2.1149  0.1883
   92CHL1   C22 9270   4.388   5.131   8.052 -0.2828  0.3854  1.1081
   92CHL1  H22A 9271   4.399   5.184   8.149  0.8760  0.9955  0.6522
   92CHL1  H22B 9272   4.309   5.055   8.069 -0.5501  0.8406  1.9441
   92CHL1   C23 9273   4.528   5.069   8.030 -0.1628  0.5870  0.3071
   92CHL1  H23A 9274   4.547   4.996   7.948 -1.4281 -0.1912  0.7032
   92CHL1  H23B 9275   4.594   5.153   8.000 -1.9171  1.1881 -2.0403
   92CHL1   C24 9276   4.581   5.004   8.154  0.2406 -0.1407  0.0646
   92CHL1  H24A 9277   4.585   5.080   8.235  0.8993 -0.8331  0.6857
   92CHL1  H24B 9278   4.506   4.928   8.182 -1.4034  1.4883  0.2071
   92CHL1   C25 9279   4.716   4.931   8.147  0.3872 -0.0907  0.4956
   92CHL1   H25 9280   4.702   4.849   8.073 -4.0820  0.5711  0.4651
   92CHL1   C26 9281   4.823   5.045   8.105 -0.0535 -0.3025  0.5524
   92CHL1  H26A 9282   4.930   5.016   8.111 -0.3285 -1.0355  2.1874
   92CHL1  H26B 9283   4.806   5.066   7.998 -0.4710 -0.2028  0.6346
   92CHL1  H26C 9284   4.808   5.144   8.153  0.5219 -0.2448  0.6170
   92CHL1   C27 9285   4.760   4.874   8.279  0.0007  0.2257  0.2957
   92CHL1  H27A 9286   4.696   4.787   8.308  0.5140 -0.2993 -0.1295
   92CHL1  H27B 9287   4.867   4.849   8.268 -0.5702 -2.8039  0.9920
   92CHL1  H27C 9288   4.760   4.950   8.360  2.4434 -1.4978  1.9893
   93CHL1    C3 9289   2.497   3.418   6.972  0.1920 -0.1004 -0.2910
   93CHL1    H3 9290   2.520   3.527   6.982  2.7049 -0.7306  1.0765
   93CHL1    O3 9291   2.434   3.403   6.846 -0.3318  0.5583  0.3445
   93CHL1   H3' 9292   2.356   3.455   6.869  1.0508  2.7133  0.2942
   93CHL1    C4 9293   2.622   3.329   6.974  0.2450  0.5171  0.2513
   93CHL1   H4A 9294   2.596   3.224   6.948  1.4923  0.2672 -0.0089
   93CHL1   H4B 9295   2.686   3.358   6.888  0.5317 -0.5490  0.0926
   93CHL1    C5 9296   2.692   3.348   7.107 -0.2326  0.4667  0.7318
   93CHL1    C6 9297   2.821   3.376   7.121 -0.1716  0.0331  0.0102
   93CHL1    H6 9298   2.885   3.384   7.031 -1.3272  1.8899 -0.6767
   93CHL1    C7 9299   2.888   3.395   7.255  0.6525 -0.1122  0.1536
   93CHL1   H7A 9300   2.991   3.353   7.260  0.0996 -1.4200  0.5486
   93CHL1   H7B 9301   2.906   3.503   7.274  1.1806  0.1177 -1.4828
   93CHL1    C8 9302   2.809   3.326   7.368  0.2857 -0.2655 -0.4842
   93CHL1    H8 9303   2.817   3.216   7.357  2.2955 -0.2907  0.8999
   93CHL1   C14 9304   2.867   3.382   7.496  0.5429  0.9322 -0.2397
   93CHL1   H14 9305   2.851   3.491   7.482 -0.3430  1.3482  3.4651
   93CHL1   C15 9306   3.020   3.370   7.516 -0.1234 -0.1536  0.4311
   93CHL1  H15A 9307   3.053   3.270   7.481  0.4927  0.1225  0.2347
   93CHL1  H15B 9308   3.067   3.451   7.457  1.7486 -0.7395  1.0946
   93CHL1   C16 9309   3.043   3.383   7.666  0.1647  0.7042  0.1857
   93CHL1  H16A 9310   3.103   3.301   7.710  2.2037  1.6248 -0.8055
   93CHL1  H16B 9311   3.079   3.478   7.710  2.0496 -0.6106  1.5652
   93CHL1   C17 9312   2.901   3.386   7.733 -0.0999 -0.8003  0.5495
   93CHL1   H17 9313   2.875   3.491   7.755 -2.4859 -0.7211 -2.3316
   93CHL1   C13 9314   2.804   3.327   7.622  0.7920 -0.2642 -0.5444
   93CHL1   C18 9315   2.810   3.173   7.630  0.1774 -0.0088  0.5044
   93CHL1  H18A 9316   2.740   3.151   7.714 -0.3068  2.7720  0.8737
   93CHL1  H18B 9317   2.766   3.126   7.540 -1.7481 -0.2173  1.5286
   93CHL1  H18C 9318   2.911   3.132   7.649 -0.4729 -1.1795  1.5768
   93CHL1   C12 9319   2.664   3.379   7.630  0.5590  0.2613  0.5353
   93CHL1  H12A 9320   2.602   3.344   7.715 -0.6506  0.1971 -0.3602
   93CHL1  H12B 9321   2.670   3.490   7.623  1.5095  0.1924  0.0591
   93CHL1   C11 9322   2.581   3.335   7.504 -0.5262 -0.0192 -0.1350
   93CHL1  H11A 9323   2.563   3.226   7.510 -1.0176 -0.0139 -1.4344
   93CHL1  H11B 9324   2.480   3.380   7.513  0.4494  2.4339 -0.9978
   93CHL1    C9 9325   2.659   3.369   7.366  0.3385 -0.1463  1.1355
   93CHL1    H9 9326   2.667   3.480   7.369  0.7630 -0.1986  2.0918
   93CHL1   C10 9327   2.598   3.334   7.229 -0.3044  0.1104  0.8381
   93CHL1   C19 9328   2.563   3.185   7.246  0.2604  0.1038 -0.4073
   93CHL1  H19A 9329   2.530   3.124   7.159 -0.6566  1.0706 -0.7447
   93CHL1  H19B 9330   2.635   3.126   7.306  0.2437  1.2613  0.7695
   93CHL1  H19C 9331   2.476   3.188   7.315  0.3262 -0.9749 -0.2661
   93CHL1    C1 9332   2.472   3.429   7.220  0.0889  0.0730 -0.7243
   93CHL1   H1A 9333   2.403   3.413   7.306  0.4306 -0.6874 -0.5910
   93CHL1   H1B 9334   2.511   3.533   7.228  1.9434 -0.6327 -0.0810
   93CHL1    C2 9335   2.403   3.403   7.089  1.1296 -0.7980 -0.6233
   93CHL1   H2A 9336   2.324   3.480   7.077 -0.4507 -1.8104  2.7951
   93CHL1   H2B 9337   2.346   3.307   7.089 -0.4324  0.1013 -1.8781
   93CHL1   C20 9338   2.910   3.324   7.875 -0.6525  0.6969 -0.2055
   93CHL1   H20 9339   2.928   3.214   7.869  1.2734  1.0165 -0.7002
   93CHL1   C21 9340   2.776   3.335   7.950  0.4934 -0.1500  0.0458
   93CHL1  H21A 9341   2.751   3.441   7.969  0.4806 -0.0681 -0.4219
   93CHL1  H21B 9342   2.785   3.299   8.055 -1.7790  0.4199  0.4657
   93CHL1  H21C 9343   2.697   3.268   7.908  1.2818 -1.5136  0.7081
   93CHL1   C22 9344   3.022   3.396   7.961  0.0477  0.9086 -0.0954
   93CHL1  H22A 9345   3.122   3.386   7.913 -1.3295 -2.4442 -2.4686
   93CHL1  H22B 9346   2.992   3.503   7.967  0.2365  0.8862  1.6596
   93CHL1   C23 9347   3.046   3.343   8.108  0.2847 -0.2791  0.0413
   93CHL1  H23A 9348   3.123   3.405   8.158 -1.1775  0.1890  1.7512
   93CHL1  H23B 9349   2.954   3.354   8.168  0.3138 -1.3367  0.2919
   93CHL1   C24 9350   3.083   3.192   8.112  0.6934 -0.3230  0.1546
   93CHL1  H24A 9351   3.039   3.132   8.029  0.3185 -0.9117  0.7716
   93CHL1  H24B 9352   3.190   3.187   8.084 -0.0185  0.6092 -2.8978
   93CHL1   C25 9353   3.064   3.134   8.253  0.2804 -0.9313 -0.0348
   93CHL1   H25 9354   2.959   3.137   8.290 -0.3096 -0.7570 -1.6525
   93CHL1   C26 9355   3.095   2.984   8.247 -0.0516 -0.1115  0.0191
   93CHL1  H26A 9356   3.062   2.934   8.341  1.6692 -0.2422  0.5707
   93CHL1  H26B 9357   3.028   2.938   8.171 -1.1899  0.8058  0.4377
   93CHL1  H26C 9358   3.205   2.974   8.240  0.1718  1.2844  1.3129
   93CHL1   C27 9359   3.148   3.193   8.364  0.4595  0.9361 -0.5065
   93CHL1  H27A 9360   3.140   3.303   8.375  0.2215  0.7559  1.3533
   93CHL1  H27B 9361   3.129   3.144   8.462 -0.0978 -0.1822 -1.1633
   93CHL1  H27C 9362   3.254   3.166   8.346  0.4527 -0.1554  0.9797
   94CHL1    C3 9363   5.177   5.646   6.755 -0.0273  0.0638 -0.2030
   94CHL1    H3 9364   5.080   5.593   6.763  0.7150 -1.1433  0.8795
   94CHL1    O3 9365   5.204   5.660   6.618 -0.1352  0.4202  0.0346
   94CHL1   H3' 9366   5.170   5.743   6.583 -0.2705 -0.1585 -1.2296
   94CHL1    C4 9367   5.160   5.790   6.802 -0.2556  0.0585  0.5792
   94CHL1   H4A 9368   5.255   5.844   6.784 -0.9766  0.8193 -0.9558
   94CHL1   H4B 9369   5.084   5.839   6.738 -1.1737 -2.0619  0.0030
   94CHL1    C5 9370   5.123   5.786   6.946 -0.2179  0.3631  0.7216
   94CHL1    C6 9371   5.017   5.852   6.994  0.2249 -0.3779 -0.4756
   94CHL1    H6 9372   4.954   5.908   6.923  1.0644  2.0222  0.6156
   94CHL1    C7 9373   4.979   5.856   7.137  0.1427 -0.6233  0.5719
   94CHL1   H7A 9374   4.947   5.960   7.159 -0.1756 -0.3067 -1.2987
   94CHL1   H7B 9375   4.895   5.787   7.160  0.1902 -0.0420  2.6416
   94CHL1    C8 9376   5.093   5.813   7.232  0.3827 -0.0845 -0.6701
   94CHL1    H8 9377   5.168   5.893   7.221  0.6507 -0.3032 -0.4401
   94CHL1   C14 9378   5.043   5.796   7.374 -0.0603 -0.5661  0.7925
   94CHL1   H14 9379   4.966   5.717   7.369 -1.8815  1.1449  1.3225
   94CHL1   C15 9380   4.975   5.917   7.442 -0.7154  0.1645  0.7242
   94CHL1  H15A 9381   5.025   6.014   7.423  0.7541 -0.7853 -0.4253
   94CHL1  H15B 9382   4.873   5.927   7.400 -0.8264 -1.9982  0.4438
   94CHL1   C16 9383   4.968   5.865   7.585  0.4866  0.9320 -0.2922
   94CHL1  H16A 9384   4.990   5.949   7.655  1.9162  0.7097 -0.4585
   94CHL1  H16B 9385   4.863   5.840   7.612  0.6006 -0.6326 -1.2447
   94CHL1   C17 9386   5.058   5.734   7.608 -0.1791 -0.1734  0.8649
   94CHL1   H17 9387   4.982   5.653   7.605  0.6496 -0.9105 -2.7030
   94CHL1   C13 9388   5.138   5.734   7.476  0.4840 -0.3592  0.7550
   94CHL1   C18 9389   5.255   5.830   7.491 -0.0068  0.2390 -0.3316
   94CHL1  H18A 9390   5.335   5.792   7.557 -0.8769  0.2705  0.7501
   94CHL1  H18B 9391   5.305   5.842   7.393  0.3113  0.4023 -0.1485
   94CHL1  H18C 9392   5.230   5.926   7.542 -0.6627  0.2452 -0.6520
   94CHL1   C12 9393   5.184   5.601   7.422  0.2098 -0.5682 -0.5245
   94CHL1  H12A 9394   5.262   5.559   7.489  1.5936  0.4978 -1.4404
   94CHL1  H12B 9395   5.103   5.525   7.417  1.0672 -1.5782  0.4564
   94CHL1   C11 9396   5.241   5.603   7.278  0.5832 -0.2941 -1.2580
   94CHL1  H11A 9397   5.339   5.656   7.281  1.0900 -0.9788 -4.1388
   94CHL1  H11B 9398   5.260   5.500   7.242 -0.5767 -1.1971  0.6197
   94CHL1    C9 9399   5.151   5.676   7.177  0.7126  0.1880  0.1298
   94CHL1    H9 9400   5.077   5.595   7.161  0.6973  0.3461 -0.6634
   94CHL1   C10 9401   5.218   5.696   7.038  0.3506  0.0323  0.3618
   94CHL1   C19 9402   5.351   5.775   7.052  0.3782  0.7494 -0.0945
   94CHL1  H19A 9403   5.346   5.874   7.102 -0.2615 -0.2969  1.9356
   94CHL1  H19B 9404   5.421   5.714   7.114 -1.1693 -1.6148 -0.6167
   94CHL1  H19C 9405   5.397   5.787   6.951 -2.0990 -0.1672 -1.3577
   94CHL1    C1 9406   5.246   5.554   6.978 -0.4913  0.0932  0.2098
   94CHL1   H1A 9407   5.336   5.518   7.031 -1.6368 -0.2062  2.0188
   94CHL1   H1B 9408   5.161   5.483   6.990  0.5184 -0.8505  1.9179
   94CHL1    C2 9409   5.281   5.570   6.834  0.8891  0.6539 -0.2229
   94CHL1   H2A 9410   5.310   5.470   6.796 -0.1004  0.8892 -1.6216
   94CHL1   H2B 9411   5.370   5.637   6.829  0.8477  0.9414  2.0750
   94CHL1   C20 9412   5.125   5.736   7.745 -0.4163 -0.0751 -1.1634
   94CHL1   H20 9413   5.198   5.821   7.746 -0.6353  0.0997 -0.3978
   94CHL1   C21 9414   5.215   5.611   7.749  0.2948 -0.1152  0.1815
   94CHL1  H21A 9415   5.233   5.587   7.856  2.8719  1.7863  0.2300
   94CHL1  H21B 9416   5.307   5.642   7.695  0.4216 -2.2686 -0.8568
   94CHL1  H21C 9417   5.162   5.520   7.713  1.7013 -1.7640  2.2100
   94CHL1   C22 9418   5.032   5.736   7.868 -0.1128 -0.4479 -0.0309
   94CHL1  H22A 9419   5.091   5.746   7.962 -1.5713  0.8022  0.7586
   94CHL1  H22B 9420   4.975   5.831   7.863 -0.2180 -0.5156 -0.1222
   94CHL1   C23 9421   4.925   5.622   7.881 -0.4866  0.8080  0.4545
   94CHL1  H23A 9422   4.870   5.636   7.785 -0.8985  2.3631  0.8877
   94CHL1  H23B 9423   4.971   5.522   7.892 -0.7140  0.7686  1.1227
   94CHL1   C24 9424   4.818   5.628   7.988  0.7486 -1.0484 -0.0533
   94CHL1  H24A 9425   4.765   5.726   7.981 -1.3506 -2.1279  0.1678
   94CHL1  H24B 9426   4.747   5.543   7.981 -1.5566  0.6427  1.8417
   94CHL1   C25 9427   4.872   5.610   8.131 -0.1958 -0.1961  0.0107
   94CHL1   H25 9428   4.970   5.662   8.125 -1.2197  1.6492 -0.9133
   94CHL1   C26 9429   4.769   5.672   8.236 -0.4869 -0.1215  0.0396
   94CHL1  H26A 9430   4.668   5.627   8.234 -0.3630 -0.5001  1.4169
   94CHL1  H26B 9431   4.808   5.662   8.340  1.0180  3.5356 -0.0939
   94CHL1  H26C 9432   4.756   5.781   8.216  1.3945  0.0764 -0.2084
   94CHL1   C27 9433   4.908   5.462   8.166  0.4797 -0.2501  0.3444
   94CHL1  H27A 9434   4.971   5.422   8.084  0.2221  0.7120 -0.3233
   94CHL1  H27B 9435   4.949   5.449   8.268  1.5229 -3.4550 -0.4056
   94CHL1  H27C 9436   4.806   5.418   8.155 -0.7089  2.7495 -1.3005
   95CHL1    C3 9437   4.618   5.082   6.591 -0.4184 -0.3138 -0.1714
   95CHL1    H3 9438   4.727   5.062   6.599 -0.8724 -3.0889 -0.4488
   95CHL1    O3 9439   4.605   5.136   6.463  0.1196  0.3607 -0.2677
   95CHL1   H3' 9440   4.612   5.231   6.474  1.7191  0.1183  1.0933
   95CHL1    C4 9441   4.533   4.957   6.604  0.2043  0.2880 -0.1112
   95CHL1   H4A 9442   4.425   4.972   6.586  0.2010  2.2551  1.3585
   95CHL1   H4B 9443   4.565   4.881   6.529  0.8113  3.4239 -3.1660
   95CHL1    C5 9444   4.551   4.905   6.744  0.0351 -0.2837 -0.2853
   95CHL1    C6 9445   4.601   4.780   6.760  0.0136 -0.6854  0.2216
   95CHL1    H6 9446   4.610   4.716   6.671  0.6244  0.0065 -0.2209
   95CHL1    C7 9447   4.606   4.706   6.890 -0.5282  0.1332 -0.3543
   95CHL1   H7A 9448   4.556   4.609   6.872 -0.4242  0.6179 -3.6987
   95CHL1   H7B 9449   4.711   4.692   6.923 -1.2681  0.4195  2.2427
   95CHL1    C8 9450   4.539   4.788   7.007 -0.4868  0.4987  0.4956
   95CHL1    H8 9451   4.429   4.776   6.998 -0.3396 -0.2629 -0.3729
   95CHL1   C14 9452   4.595   4.739   7.141 -0.2188  0.2339 -0.2584
   95CHL1   H14 9453   4.703   4.767   7.137 -1.1048  4.3894  1.5604
   95CHL1   C15 9454   4.596   4.585   7.161 -0.3565  0.7310  0.7307
   95CHL1  H15A 9455   4.501   4.546   7.119 -0.0441  0.0478  0.6488
   95CHL1  H15B 9456   4.678   4.548   7.096  0.1788 -1.4476  2.5731
   95CHL1   C16 9457   4.608   4.564   7.314  0.4263 -0.7003 -0.1074
   95CHL1  H16A 9458   4.523   4.513   7.363  0.6133  1.2564  2.3840
   95CHL1  H16B 9459   4.701   4.508   7.338  0.2396 -0.3868  1.3878
   95CHL1   C17 9460   4.621   4.707   7.368  0.3792  0.0808  0.3477
   95CHL1   H17 9461   4.728   4.735   7.362  0.6954 -1.3071 -0.8737
   95CHL1   C13 9462   4.545   4.795   7.272 -0.1388  0.5768 -0.1046
   95CHL1   C18 9463   4.391   4.779   7.275 -0.1441 -0.2132  0.8609
   95CHL1  H18A 9464   4.352   4.806   7.375 -2.2369  0.5072 -0.1256
   95CHL1  H18B 9465   4.341   4.849   7.205  0.9158  0.7527  1.0684
   95CHL1  H18C 9466   4.369   4.672   7.254  0.0381 -0.3779  1.5063
   95CHL1   C12 9467   4.587   4.947   7.265 -0.3668  0.6406 -1.0372
   95CHL1  H12A 9468   4.541   5.003   7.349 -0.9072 -0.5966 -0.5113
   95CHL1  H12B 9469   4.698   4.941   7.272 -0.5022 -1.2733 -0.4884
   95CHL1   C11 9470   4.554   5.017   7.129  0.3412 -0.7987 -0.3699
   95CHL1  H11A 9471   4.443   5.027   7.129  0.4103 -0.0470 -1.2681
   95CHL1  H11B 9472   4.610   5.112   7.128  0.0409 -0.5629  2.0663
   95CHL1    C9 9473   4.586   4.933   6.994 -0.0039 -0.4261 -0.0920
   95CHL1    H9 9474   4.697   4.934   6.984  0.1577  2.0352  1.5555
   95CHL1   C10 9475   4.525   4.998   6.866 -0.8135  0.1900  0.0856
   95CHL1   C19 9476   4.375   5.026   6.876  0.3400  0.0705 -0.2125
   95CHL1  H19A 9477   4.354   5.110   6.945  2.2454  1.6615 -1.5383
   95CHL1  H19B 9478   4.331   5.052   6.777 -2.1006  0.9337  1.0619
   95CHL1  H19C 9479   4.325   4.936   6.919  0.9937 -0.2506 -0.1290
   95CHL1    C1 9480   4.592   5.133   6.842 -0.2300 -0.2226  0.5038
   95CHL1   H1A 9481   4.550   5.201   6.919  0.9803 -1.0621  1.9355
   95CHL1   H1B 9482   4.700   5.132   6.870 -0.7442  0.8808  2.6234
   95CHL1    C2 9483   4.576   5.186   6.695  0.0062 -0.0472  0.4109
   95CHL1   H2A 9484   4.645   5.273   6.688 -0.4356  0.2728  0.0093
   95CHL1   H2B 9485   4.471   5.222   6.687  0.2015  0.9058  1.8910
   95CHL1   C20 9486   4.572   4.706   7.519 -0.0273 -0.2237  0.3073
   95CHL1   H20 9487   4.462   4.689   7.524 -1.0481  4.9261 -1.4502
   95CHL1   C21 9488   4.588   4.844   7.595 -0.0145  0.0271  0.6843
   95CHL1  H21A 9489   4.541   4.930   7.542 -0.6640 -0.2947  0.7247
   95CHL1  H21B 9490   4.696   4.862   7.614  0.8352 -2.1416 -1.9075
   95CHL1  H21C 9491   4.535   4.841   7.693 -1.2893  3.5424  0.1955
   95CHL1   C22 9492   4.634   4.579   7.591  0.0209 -0.6971 -0.1986
   95CHL1  H22A 9493   4.606   4.483   7.542 -0.7753  2.4861 -6.5347
   95CHL1  H22B 9494   4.745   4.581   7.591  0.1019  0.3017  4.1267
   95CHL1   C23 9495   4.602   4.566   7.748 -0.4618  1.1120 -0.0358
   95CHL1  H23A 9496   4.648   4.642   7.815  2.4860 -0.3018 -0.3789
   95CHL1  H23B 9497   4.492   4.576   7.763 -0.8703 -1.8502 -0.6090
   95CHL1   C24 9498   4.640   4.426   7.801  0.5668  0.2109  0.7021
   95CHL1  H24A 9499   4.615   4.345   7.730  0.2183 -0.2753  1.3725
   95CHL1  H24B 9500   4.749   4.415   7.822  0.9959  2.7543 -0.0908
   95CHL1   C25 9501   4.572   4.386   7.931  0.1997  0.1243  0.4236
   95CHL1   H25 9502   4.462   4.396   7.919  0.3225  0.4536 -0.4688
   95CHL1   C26 9503   4.608   4.242   7.975  0.3261 -0.0474  0.7382
   95CHL1  H26A 9504   4.718   4.223   7.977  0.2458 -0.5434  0.6774
   95CHL1  H26B 9505   4.575   4.222   8.079 -0.6786 -0.5720  0.3254
   95CHL1  H26C 9506   4.560   4.172   7.903  3.2317 -1.1328 -0.2350
   95CHL1   C27 9507   4.611   4.490   8.045 -0.0405 -0.3806  0.0349
   95CHL1  H27A 9508   4.720   4.490   8.062 -0.2437  0.8652  1.4465
   95CHL1  H27B 9509   4.595   4.599   8.032  1.2399  0.0394  1.7293
   95CHL1  H27C 9510   4.555   4.449   8.133  0.4138 -3.9848 -1.2779
   96CHL1    C3 9511   5.052   4.615   6.649  0.6999  0.7223 -0.2813
   96CHL1    H3 9512   5.092   4.516   6.615  1.3118 -0.0487  2.5703
   96CHL1    O3 9513   5.036   4.699   6.539  0.0776  0.2062 -0.2672
   96CHL1   H3' 9514   5.086   4.779   6.557 -0.3758  0.4420 -0.0444
   96CHL1    C4 9515   4.916   4.603   6.733  0.0834  0.5986 -0.7521
   96CHL1   H4A 9516   4.897   4.712   6.747 -2.5857  0.0782 -0.1638
   96CHL1   H4B 9517   4.822   4.583   6.678  0.0372  0.2329 -0.5404
   96CHL1    C5 9518   4.939   4.530   6.864 -0.7561  0.4321 -0.1936
   96CHL1    C6 9519   4.873   4.419   6.893 -0.1877  0.1881  0.4251
   96CHL1    H6 9520   4.803   4.375   6.821  3.1402 -2.3727 -1.3860
   96CHL1    C7 9521   4.895   4.342   7.020 -0.2890  0.1437  0.0846
   96CHL1   H7A 9522   4.798   4.317   7.068 -0.5598  0.4402 -0.3099
   96CHL1   H7B 9523   4.949   4.248   6.997  1.5474  1.3815 -0.7220
   96CHL1    C8 9524   4.976   4.417   7.127 -0.1210 -0.2825 -0.8509
   96CHL1    H8 9525   4.906   4.492   7.169  1.4633  2.2147 -2.5512
   96CHL1   C14 9526   5.023   4.317   7.238  0.1779  0.5693 -1.0067
   96CHL1   H14 9527   5.105   4.253   7.200  0.1910  0.0505 -0.1154
   96CHL1   C15 9528   4.919   4.228   7.293  0.4802  0.1685  0.4126
   96CHL1  H15A 9529   4.822   4.277   7.317  1.2114  1.9653 -0.1727
   96CHL1  H15B 9530   4.914   4.146   7.218  1.3841  2.5246 -2.3575
   96CHL1   C16 9531   4.983   4.175   7.422 -0.0735  0.2088 -0.2501
   96CHL1  H16A 9532   4.910   4.193   7.504  0.4908 -0.4318  0.3987
   96CHL1  H16B 9533   4.996   4.064   7.422  0.3044  0.2524 -0.2397
   96CHL1   C17 9534   5.105   4.265   7.458  0.3260  0.2725 -0.0396
   96CHL1   H17 9535   5.196   4.210   7.426  2.5932  2.7480  1.9114
   96CHL1   C13 9536   5.079   4.388   7.361  0.3591  0.0081  0.0019
   96CHL1   C18 9537   4.974   4.487   7.416 -0.8336 -0.0112  0.0244
   96CHL1  H18A 9538   5.022   4.533   7.506 -0.2913  1.8194 -1.1790
   96CHL1  H18B 9539   4.954   4.567   7.341  2.9805  0.0570 -1.0255
   96CHL1  H18C 9540   4.886   4.428   7.449  1.2410 -4.2328 -1.7367
   96CHL1   C12 9541   5.202   4.457   7.310 -0.5768 -0.4517 -0.1919
   96CHL1  H12A 9542   5.261   4.521   7.379  0.6282 -1.5499 -0.1951
   96CHL1  H12B 9543   5.272   4.376   7.282 -1.7722 -1.7385  0.4360
   96CHL1   C11 9544   5.178   4.555   7.193  0.0227 -0.7392  0.2579
   96CHL1  H11A 9545   5.126   4.642   7.239  2.2190 -0.2030  1.8020
   96CHL1  H11B 9546   5.279   4.591   7.163  0.1440  1.4073  3.0049
   96CHL1    C9 9547   5.092   4.494   7.072 -0.2102 -0.4263 -0.1638
   96CHL1    H9 9548   5.153   4.415   7.021  0.1080 -1.3544  1.6338
   96CHL1   C10 9549   5.054   4.584   6.953 -0.3536  0.0989  0.0562
   96CHL1   C19 9550   5.011   4.724   7.010 -0.1865 -0.4356 -0.0025
   96CHL1  H19A 9551   4.947   4.707   7.099 -0.1476 -0.6986 -0.0233
   96CHL1  H19B 9552   5.105   4.774   7.042  0.8154 -0.9834 -1.9950
   96CHL1  H19C 9553   4.966   4.794   6.936  0.7377  2.2794  1.9620
   96CHL1    C1 9554   5.182   4.604   6.866 -0.3122 -0.2039  0.5256
   96CHL1   H1A 9555   5.255   4.658   6.930  0.1577 -0.6553  0.3649
   96CHL1   H1B 9556   5.219   4.503   6.839  0.1732  0.2183 -0.3852
   96CHL1    C2 9557   5.167   4.676   6.735 -0.2480  0.2923 -0.3230
   96CHL1   H2A 9558   5.265   4.683   6.684 -1.1021 -0.2726 -2.1024
   96CHL1   H2B 9559   5.127   4.778   6.756  1.2869  0.3437  2.5856
   96CHL1   C20 9560   5.128   4.290   7.610 -0.8766  0.7362 -0.6247
   96CHL1   H20 9561   5.036   4.326   7.660 -0.1501  1.3611  0.2906
   96CHL1   C21 9562   5.239   4.390   7.639  0.0621 -0.7489 -0.0688
   96CHL1  H21A 9563   5.264   4.392   7.747  1.4567 -1.2699 -0.3719
   96CHL1  H21B 9564   5.207   4.492   7.607 -1.4395 -0.8415  1.0979
   96CHL1  H21C 9565   5.330   4.359   7.584 -0.1485  1.0184 -1.4938
   96CHL1   C22 9566   5.156   4.148   7.676  0.2595 -0.3372 -0.3526
   96CHL1  H22A 9567   5.081   4.073   7.644 -0.9939  0.7754 -0.0733
   96CHL1  H22B 9568   5.259   4.114   7.653  0.1413 -0.0371 -1.3427
   96CHL1   C23 9569   5.151   4.160   7.830 -0.0022 -0.6828 -0.6091
   96CHL1  H23A 9570   5.234   4.224   7.868 -0.9133 -0.6554  1.4083
   96CHL1  H23B 9571   5.053   4.206   7.855 -0.0633 -0.8060 -0.6221
   96CHL1   C24 9572   5.157   4.015   7.902  0.2487 -0.6270  0.9369
   96CHL1  H24A 9573   5.061   3.962   7.883 -0.3250  0.4804  0.6813
   96CHL1  H24B 9574   5.227   3.951   7.844  1.2324 -0.6723  2.1703
   96CHL1   C25 9575   5.205   4.019   8.048  0.7204  1.2170  0.1960
   96CHL1   H25 9576   5.310   4.056   8.047  1.1739  0.0138  1.1513
   96CHL1   C26 9577   5.103   4.086   8.141 -0.3095 -0.0372  0.4944
   96CHL1  H26A 9578   5.021   4.016   8.165 -0.0889 -0.2068  0.7554
   96CHL1  H26B 9579   5.148   4.117   8.237 -0.7322 -3.6036  1.9134
   96CHL1  H26C 9580   5.069   4.174   8.082 -3.6353 -1.1497  0.6553
   96CHL1   C27 9581   5.214   3.873   8.096  0.7183  0.2548 -0.1610
   96CHL1  H27A 9582   5.256   3.863   8.198  2.8148  0.1233 -1.0026
   96CHL1  H27B 9583   5.132   3.800   8.075 -1.3614  1.6471  2.8647
   96CHL1  H27C 9584   5.288   3.826   8.027  0.8892 -2.4778  1.8187
   97OSM      N 9585   3.034   6.321  11.234  0.0376  0.0260  0.0267
   97OSM    C15 9586   2.915   6.417  11.233  0.0019 -0.6863 -0.3905
   97OSM   H15A 9587   2.907   6.461  11.332  1.8143 -0.9398 -0.1268
   97OSM   H15B 9588   2.822   6.368  11.207 -0.2850 -0.3033 -0.0971
   97OSM   H15C 9589   2.932   6.501  11.167  1.3690 -0.3748  0.3530
   97OSM    C14 9590   3.164   6.396  11.248 -0.6470 -0.1201 -0.0631
   97OSM   H14A 9591   3.171   6.465  11.165 -0.4533  0.8495  0.7520
   97OSM   H14B 9592   3.250   6.330  11.243 -0.2060  0.5319 -1.4829
   97OSM   H14C 9593   3.163   6.453  11.340  1.2147 -0.1104 -0.0275
   97OSM    C13 9594   3.020   6.230  11.355 -0.3746  0.2124  0.3211
   97OSM   H13A 9595   3.030   6.293  11.443  2.9893  1.2315 -0.7116
   97OSM   H13B 9596   3.102   6.162  11.368  0.9046  1.1011 -2.6569
   97OSM   H13C 9597   2.926   6.179  11.345 -1.1645  1.7625 -0.3853
   97OSM    C12 9598   3.028   6.240  11.101  0.5202 -0.0525  0.0073
   97OSM   H12A 9599   3.060   6.311  11.026 -0.2021  0.6598  0.3736
   97OSM   H12B 9600   2.924   6.216  11.080  1.1030 -0.4795 -2.5647
   97OSM    C11 9601   3.109   6.104  11.075  0.3090  0.8826 -0.1258
   97OSM   H11A 9602   3.213   6.142  11.082  1.2457 -1.3594 -1.3728
   97OSM   H11B 9603   3.092   6.067  10.972 -0.2991 -0.2111  0.3579
   97OSM      P 9604   2.945   5.927  11.180 -0.1888  0.4126 -0.3075
   97OSM    O13 9605   2.965   5.805  11.261  0.5558  0.3332  0.4571
   97OSM    O14 9606   2.841   6.026  11.204 -0.1334  0.0931  0.1096
   97OSM    O11 9607   2.942   5.884  11.034 -0.1625 -0.6167  0.4504
   97OSM    O12 9608   3.088   6.000  11.176 -0.2817  0.6666 -0.7653
   97OSM    C1S 9609   2.816   5.852  10.972  0.6763  0.0422 -0.0308
   97OSM    H1S 9610   2.731   5.918  11.002  2.3376  2.7949 -1.1716
   97OSM    H1T 9611   2.777   5.755  11.009 -1.1542  1.5074  2.0308
   97OSM     NF 9612   2.693   5.861  10.754  0.5926 -0.1261  0.3894
   97OSM    HNF 9613   2.659   5.779  10.710  2.2744 -0.2012 -0.8124
   97OSM    C2S 9614   2.828   5.864  10.817  0.3127  0.5615  0.2730
   97OSM    H2S 9615   2.867   5.964  10.789  0.6567  1.5617  4.1058
   97OSM    C3S 9616   2.925   5.758  10.760  0.3992  0.2580  0.2398
   97OSM    H3S 9617   2.892   5.657  10.793  0.2372 -0.1301 -1.0440
   97OSM     O3 9618   3.060   5.770  10.808 -0.1348  0.2169 -0.0495
   97OSM    HO3 9619   3.035   5.822  10.885 -0.8459 -0.1663 -0.0152
   97OSM    C4S 9620   2.919   5.760  10.609 -0.1902 -0.4927  0.2034
   97OSM    H4S 9621   2.822   5.717  10.578 -0.2714 -0.4738  0.4301
   97OSM    C5S 9622   3.006   5.815  10.513  0.6642  0.4252  0.2520
   97OSM    H5S 9623   3.093   5.878  10.537  1.5713 -0.5160 -0.5235
   97OSM    C6S 9624   2.979   5.805  10.360  0.3100 -0.7888 -0.0712
   97OSM    H6S 9625   2.911   5.718  10.345 -0.7740 -0.1141  0.8472
   97OSM    H6T 9626   3.072   5.776  10.307  1.5308  2.7774  0.0377
   97OSM    C7S 9627   2.925   5.937  10.302  0.4645  0.0842 -0.6862
   97OSM    H7S 9628   2.998   6.018  10.319  1.0475 -0.5888  0.1218
   97OSM    H7T 9629   2.830   5.958  10.356 -0.9057 -0.9174 -2.6738
   97OSM    C8S 9630   2.888   5.928  10.149  0.1329 -0.0590 -0.4862
   97OSM    H8S 9631   2.874   6.036  10.130  0.8763  0.0670 -0.3406
   97OSM    H8T 9632   2.791   5.874  10.149 -0.2864  0.6998 -0.1256
   97OSM    C9S 9633   2.995   5.871  10.060  0.1336 -0.2266  0.4721
   97OSM    H9S 9634   3.013   5.762  10.073  1.6132  0.1373  1.6668
   97OSM    H9T 9635   3.089   5.921  10.093  0.0239  0.0319  0.3917
   97OSM   C10S 9636   2.960   5.906   9.913 -0.7002 -0.4122 -0.5625
   97OSM   H10S 9637   3.054   5.889   9.856  0.3426  0.8781  0.7582
   97OSM   H10T 9638   2.930   6.012   9.900  2.4090  0.7022  1.0448
   97OSM   C11S 9639   2.844   5.822   9.853 -0.3894 -0.4345  0.5770
   97OSM   H11S 9640   2.769   5.797   9.930 -0.6248  2.2720  1.2762
   97OSM   H11T 9641   2.894   5.728   9.820 -0.7888 -0.3736 -0.2166
   97OSM   C12S 9642   2.788   5.867   9.716  0.1855  0.2720  0.6139
   97OSM   H12S 9643   2.730   5.961   9.723 -1.3093 -0.6408  0.8169
   97OSM   H12T 9644   2.714   5.793   9.679  1.2267 -0.0091 -0.9551
   97OSM   C13S 9645   2.898   5.882   9.612 -0.2196  0.5138  0.2208
   97OSM   H13S 9646   2.964   5.793   9.620 -1.4264 -0.6461 -2.3059
   97OSM   H13T 9647   2.967   5.968   9.624  1.8943 -1.1748  0.4157
   97OSM   C14S 9648   2.842   5.888   9.467 -0.4828 -0.1104  0.0289
   97OSM   H14S 9649   2.776   5.976   9.452 -0.7699 -0.1810  0.8591
   97OSM   H14T 9650   2.774   5.805   9.438  0.3379 -0.7746 -0.0086
   97OSM   C15S 9651   2.951   5.920   9.361 -0.8325  0.2747 -0.5580
   97OSM   H15S 9652   3.012   5.827   9.358 -0.8077  0.1872  1.8932
   97OSM   H15T 9653   3.009   6.006   9.401 -0.0600 -1.0397  1.1781
   97OSM   C16S 9654   2.886   5.946   9.225  0.3667  0.3321  0.7063
   97OSM   H16S 9655   2.823   6.037   9.231 -0.0067  0.3094 -2.1854
   97OSM   H16T 9656   2.829   5.861   9.182  1.4618  0.9847 -2.1509
   97OSM   C17S 9657   2.997   5.979   9.127  0.0061 -0.5568 -1.0892
   97OSM   H17S 9658   3.067   5.894   9.112  0.8074  0.3951 -2.8330
   97OSM   H17T 9659   3.052   6.063   9.175  0.7921 -1.9309  0.4604
   97OSM   C18S 9660   2.943   6.030   8.987 -0.2819  0.4497  0.0833
   97OSM   H18S 9661   3.025   6.070   8.924  0.8743 -0.3449  1.0703
   97OSM   H18T 9662   2.878   6.118   9.007  0.4475  0.6364  1.7160
   97OSM   H18U 9663   2.884   5.958   8.926  1.3999 -0.8611 -0.0061
   97OSM    C1F 9664   2.613   5.963  10.772  0.1228  0.0527  0.1764
   97OSM     OF 9665   2.650   6.071  10.810  0.5882 -0.3174  0.2787
   97OSM    C2F 9666   2.468   5.945  10.750  0.2360 -0.2123 -0.0349
   97OSM    H2F 9667   2.417   5.954  10.848 -1.2376 -2.4450 -0.5764
   97OSM    H2G 9668   2.444   5.842  10.715 -3.3584  0.8713 -0.8839
   97OSM    C3F 9669   2.402   6.061  10.657 -0.9336 -0.4638 -0.7240
   97OSM    H3F 9670   2.454   6.158  10.673  0.3245 -1.3820  0.8880
   97OSM    H3G 9671   2.300   6.086  10.694 -0.7555 -1.6303  0.6006
   97OSM    C4F 9672   2.403   6.034  10.505  0.7252 -0.2643 -0.6218
   97OSM    H4F 9673   2.507   6.016  10.472  0.8883 -1.4576  0.5433
   97OSM    H4G 9674   2.360   6.124  10.456  1.6569  0.8924  0.6488
   97OSM    C5F 9675   2.330   5.903  10.452  0.1331 -0.4702 -0.1150
   97OSM    H5F 9676   2.224   5.911  10.486  0.0714  1.8419 -0.7987
   97OSM    H5G 9677   2.367   5.814  10.507  0.2293 -0.8576 -0.7987
   97OSM    C6F 9678   2.323   5.881  10.298 -0.0532 -0.4791  0.1957
   97OSM    H6F 9679   2.262   5.964  10.255 -3.3940 -1.4201  2.9401
   97OSM    H6G 9680   2.258   5.793  10.279 -0.1030 -0.1315 -1.3234
   97OSM    C7F 9681   2.458   5.868  10.228 -0.2718 -0.3462 -0.5253
   97OSM    H7F 9682   2.517   5.782  10.267 -0.0521  0.0026 -0.0912
   97OSM    H7G 9683   2.516   5.958  10.254  0.7593 -0.7802 -1.3051
   97OSM    C8F 9684   2.444   5.857  10.080  0.1772 -0.0278 -0.0699
   97OSM    H8F 9685   2.371   5.779  10.052  0.8872 -1.3326  1.5920
   97OSM    H8G 9686   2.542   5.816  10.048 -0.4849 -0.0974 -2.0657
   97OSM    C9F 9687   2.402   5.992  10.019  0.5523 -0.1701 -0.2974
   97OSM    H9F 9688   2.387   6.078  10.086 -0.3701 -0.4247 -0.1660
   97OSM   C10F 9689   2.365   6.005   9.895  0.0168  0.6785 -0.4462
   97OSM   H10F 9690   2.350   6.105   9.852 -0.1496  0.8701  0.0460
   97OSM   C11F 9691   2.367   5.886   9.794  0.2080  1.0414  0.2974
   97OSM   H11F 9692   2.262   5.855   9.780  1.3744 -2.2868 -1.6359
   97OSM   H11G 9693   2.429   5.801   9.830  1.9988  1.2948 -2.1230
   97OSM   C12F 9694   2.421   5.935   9.666 -0.3191 -0.0953  0.2760
   97OSM   H12F 9695   2.430   5.845   9.602  0.0960  0.3182 -0.2589
   97OSM   H12G 9696   2.524   5.977   9.675 -0.2168 -0.5264  1.1225
   97OSM   C13F 9697   2.330   6.035   9.597 -0.2556  0.1923  0.8384
   97OSM   H13F 9698   2.287   6.116   9.660 -2.4265 -0.0716 -0.2694
   97OSM   H13G 9699   2.238   5.988   9.555  0.8521  0.9526 -2.6075
   97OSM   C14F 9700   2.396   6.101   9.476  0.3026 -0.1380  0.7099
   97OSM   H14F 9701   2.477   6.170   9.507  0.1794  0.3718 -0.0887
   97OSM   H14G 9702   2.315   6.166   9.437 -0.3935 -2.1236 -1.2578
   97OSM   C15F 9703   2.431   5.994   9.367  0.4517  0.1087 -0.0778
   97OSM   H15F 9704   2.354   5.915   9.358 -0.6872  0.9502  1.8218
   97OSM   H15G 9705   2.530   5.955   9.400  0.5812  2.2600  2.2894
   97OSM   C16F 9706   2.448   6.064   9.232 -0.1870  0.6926 -0.6081
   97OSM   H16F 9707   2.522   6.145   9.251  0.5338 -0.5898  2.4178
   97OSM   H16G 9708   2.350   6.106   9.203 -0.1851  1.3982  0.3573
   97OSM   C17F 9709   2.484   5.966   9.127 -0.2342 -0.4926  1.1503
   97OSM   H17F 9710   2.410   5.883   9.124 -0.1952 -0.4637 -3.3671
   97OSM   H17G 9711   2.584   5.923   9.153  0.6748  0.5341 -0.5244
   97OSM   C18F 9712   2.524   6.019   8.991 -0.5016 -0.2909  0.6298
   97OSM   H18F 9713   2.539   5.935   8.920 -2.2855  1.7284 -2.2484
   97OSM   H18G 9714   2.616   6.081   8.987 -0.2221 -0.8187 -1.5369
   97OSM   H18H 9715   2.442   6.087   8.957  0.1937  0.4538  0.4347
   98OSM      N 9716   2.440   5.855  11.304  0.7185 -0.4068 -0.0536
   98OSM    C15 9717   2.435   5.803  11.443  0.5105 -0.0352 -0.3350
   98OSM   H15A 9718   2.505   5.860  11.501 -2.1997  0.3500  2.6681
   98OSM   H15B 9719   2.475   5.703  11.431  0.5376 -0.3319  2.0014
   98OSM   H15C 9720   2.341   5.800  11.497 -0.4308  1.4920 -1.8390
   98OSM    C14 9721   2.388   5.998  11.303  0.5114 -0.0385 -0.1465
   98OSM   H14A 9722   2.282   6.011  11.321  0.4404 -1.7137  0.7957
   98OSM   H14B 9723   2.392   6.029  11.200 -2.0334  0.9247  0.0192
   98OSM   H14C 9724   2.444   6.077  11.350 -0.6813  1.9358 -1.9404
   98OSM    C13 9725   2.578   5.836  11.249  0.5968 -0.2610  0.3219
   98OSM   H13A 9726   2.629   5.931  11.248  0.8074 -0.3745  0.3250
   98OSM   H13B 9727   2.570   5.799  11.148 -2.1017  0.6976  0.1317
   98OSM   H13C 9728   2.638   5.771  11.310  0.9273 -0.1573  0.1056
   98OSM    C12 9729   2.343   5.769  11.226  0.6551 -0.1221  0.2332
   98OSM   H12A 9730   2.244   5.790  11.266  0.0342 -1.7107 -0.4314
   98OSM   H12B 9731   2.367   5.664  11.236 -1.2023 -0.5636  0.1796
   98OSM    C11 9732   2.330   5.811  11.075 -0.1219  0.1910  0.5532
   98OSM   H11A 9733   2.326   5.921  11.060  2.5683  0.5111  1.8747
   98OSM   H11B 9734   2.229   5.786  11.036 -0.0551 -3.3913  2.4960
   98OSM      P 9735   2.424   5.610  10.936  0.7079  0.1798 -0.0815
   98OSM    O13 9736   2.541   5.581  10.851  0.1411 -0.6256  0.5768
   98OSM    O14 9737   2.412   5.524  11.053  0.2218 -0.5404 -0.2783
   98OSM    O11 9738   2.296   5.594  10.850  0.4873 -0.1441  0.0383
   98OSM    O12 9739   2.431   5.761  10.986  0.2485 -0.4821 -0.1660
   98OSM    C1S 9740   2.287   5.607  10.708 -0.6243 -0.0356  0.3507
   98OSM    H1S 9741   2.378   5.635  10.652 -0.4802 -1.0964  0.0309
   98OSM    H1T 9742   2.222   5.694  10.685  0.0890  1.0385  2.3251
   98OSM     NF 9743   2.228   5.514  10.502 -0.6780  0.6979 -0.9928
   98OSM    HNF 9744   2.146   5.554  10.462  0.6187  0.8309 -3.5706
   98OSM    C2S 9745   2.215   5.486  10.647  0.1708 -0.6528  0.1015
   98OSM    H2S 9746   2.263   5.390  10.676 -0.2887 -0.7290  0.6191
   98OSM    C3S 9747   2.071   5.485  10.706  0.0730  0.4351 -0.0341
   98OSM    H3S 9748   2.029   5.588  10.707 -0.4625  0.2316 -0.7112
   98OSM     O3 9749   2.068   5.449  10.845  0.5157  0.3106  0.0583
   98OSM    HO3 9750   2.156   5.471  10.878  1.2316  1.6007 -2.5731
   98OSM    C4S 9751   1.980   5.407  10.618 -0.1976  0.4815  0.4743
   98OSM    H4S 9752   1.913   5.469  10.556  0.6019  0.2021 -0.6644
   98OSM    C5S 9753   1.968   5.274  10.601  0.0078  0.0624 -0.0178
   98OSM    H5S 9754   2.027   5.204  10.662  0.3886  0.8317  0.5081
   98OSM    C6S 9755   1.878   5.200  10.506 -0.3733  0.6859 -0.5638
   98OSM    H6S 9756   1.788   5.153  10.553 -0.1311 -0.7666 -1.4984
   98OSM    H6T 9757   1.927   5.111  10.460 -0.6429  0.0792  0.3093
   98OSM    C7S 9758   1.823   5.283  10.392  0.4903  0.5952  0.3042
   98OSM    H7S 9759   1.763   5.369  10.428  1.7876  1.4846  0.3671
   98OSM    H7T 9760   1.765   5.213  10.328  0.8267  0.4478  0.1536
   98OSM    C8S 9761   1.929   5.337  10.294 -0.6154  0.3225 -0.3877
   98OSM    H8S 9762   1.989   5.248  10.268  1.1555  1.7938 -1.4554
   98OSM    H8T 9763   1.990   5.418  10.340  1.0007 -1.1486  0.1344
   98OSM    C9S 9764   1.873   5.392  10.171 -0.4195  1.1060 -0.8729
   98OSM    H9S 9765   1.783   5.455  10.185 -0.0497  1.2743  0.8566
   98OSM    H9T 9766   1.844   5.307  10.105  1.8871 -0.0323 -0.4708
   98OSM   C10S 9767   1.987   5.473  10.097  0.2127 -0.3190 -0.0908
   98OSM   H10S 9768   2.067   5.407  10.056  0.9539 -0.5623  1.7139
   98OSM   H10T 9769   2.033   5.544  10.169 -1.1722  1.8168 -1.2526
   98OSM   C11S 9770   1.938   5.560   9.982  0.0151 -0.3719 -0.7751
   98OSM   H11S 9771   1.855   5.627  10.017 -0.5965 -2.5401  2.1315
   98OSM   H11T 9772   1.891   5.484   9.916  2.3362 -3.1180  0.6662
   98OSM   C12S 9773   2.049   5.628   9.896 -0.2127  0.0098  0.5166
   98OSM   H12S 9774   2.124   5.547   9.881 -0.5952 -0.3804  0.7074
   98OSM   H12T 9775   2.105   5.707   9.951  0.6191  0.2685 -0.6570
   98OSM   C13S 9776   2.003   5.686   9.759  0.0444  0.1399 -0.5666
   98OSM   H13S 9777   2.102   5.712   9.715 -0.3445  2.0383 -0.3411
   98OSM   H13T 9778   1.939   5.774   9.781 -0.9355 -0.9965  1.3068
   98OSM   C14S 9779   1.919   5.591   9.664 -0.8204  0.0318 -0.1018
   98OSM   H14S 9780   1.817   5.579   9.707 -0.6739  2.3423  0.9576
   98OSM   H14T 9781   1.975   5.496   9.664  1.0048  1.0776 -1.0317
   98OSM   C15S 9782   1.898   5.655   9.523  0.1268  0.2770  0.1720
   98OSM   H15S 9783   1.995   5.690   9.483 -0.3442 -0.8982 -2.0771
   98OSM   H15T 9784   1.817   5.731   9.528 -0.3071 -0.2688  1.9128
   98OSM   C16S 9785   1.865   5.542   9.421  0.6251  0.0986  0.1949
   98OSM   H16S 9786   1.761   5.512   9.443 -0.2267  1.2483 -2.1245
   98OSM   H16T 9787   1.931   5.453   9.428  0.8220  0.0197 -2.2051
   98OSM   C17S 9788   1.857   5.603   9.280 -0.4975  0.0720  0.1294
   98OSM   H17S 9789   1.958   5.644   9.260 -1.0082  1.9634  1.2205
   98OSM   H17T 9790   1.797   5.696   9.288  1.0477  1.0462  0.7677
   98OSM   C18S 9791   1.806   5.510   9.169  0.4265 -0.0533  0.2940
   98OSM   H18S 9792   1.856   5.529   9.072  0.0434 -0.9728 -0.0884
   98OSM   H18T 9793   1.695   5.508   9.160  0.3937  1.7256  0.1624
   98OSM   H18U 9794   1.829   5.405   9.195  0.3272  0.0379  0.7573
   98OSM    C1F 9795   2.335   5.477  10.432 -0.2262 -0.5779 -0.2769
   98OSM     OF 9796   2.433   5.434  10.487 -0.0366 -0.4481 -0.0636
   98OSM    C2F 9797   2.334   5.497  10.289 -0.2854 -0.5616  0.2852
   98OSM    H2F 9798   2.341   5.607  10.271 -1.2886 -0.6399 -0.6854
   98OSM    H2G 9799   2.241   5.457  10.243  0.4619  0.4349 -2.2313
   98OSM    C3F 9800   2.465   5.452  10.216 -0.0386  0.4382  0.2955
   98OSM    H3F 9801   2.511   5.357  10.247  0.5358 -0.3332 -2.7487
   98OSM    H3G 9802   2.537   5.529  10.250  1.5774 -0.7492 -0.3766
   98OSM    C4F 9803   2.463   5.462  10.064  0.5881  0.2297 -0.3410
   98OSM    H4F 9804   2.565   5.435  10.029  0.2709 -1.0927 -0.2855
   98OSM    H4G 9805   2.455   5.570  10.037  0.9959  0.4704  0.4865
   98OSM    C5F 9806   2.349   5.388   9.987  0.8373  0.4715  0.3175
   98OSM    H5F 9807   2.257   5.447  10.010 -0.8797 -2.7203  2.1162
   98OSM    H5G 9808   2.337   5.286  10.030  1.3314  0.7341  1.0935
   98OSM    C6F 9809   2.372   5.381   9.837  0.5020 -0.4743 -0.0016
   98OSM    H6F 9810   2.275   5.350   9.794  0.2835  0.9800 -0.6052
   98OSM    H6G 9811   2.453   5.312   9.807  1.4005  0.4970  0.1640
   98OSM    C7F 9812   2.401   5.516   9.766  0.2305  0.2744  0.8628
   98OSM    H7F 9813   2.512   5.528   9.760  0.2042  0.0225 -0.4052
   98OSM    H7G 9814   2.358   5.604   9.817 -0.7466  0.3506 -0.0863
   98OSM    C8F 9815   2.348   5.519   9.625  0.4760  0.1692 -0.2631
   98OSM    H8F 9816   2.357   5.620   9.580 -1.7474  0.1787 -0.7400
   98OSM    H8G 9817   2.240   5.495   9.634  0.6136 -0.8669 -1.1920
   98OSM    C9F 9818   2.414   5.411   9.538 -0.4094  0.3461 -0.0679
   98OSM    H9F 9819   2.372   5.310   9.547 -0.1629  0.2165 -0.3404
   98OSM   C10F 9820   2.508   5.425   9.445  0.3720 -0.5377  0.1918
   98OSM   H10F 9821   2.540   5.337   9.387 -2.2323 -0.0893 -1.9967
   98OSM   C11F 9822   2.564   5.553   9.394  1.0343  0.1783 -0.2697
   98OSM   H11F 9823   2.675   5.547   9.391  1.0379 -0.8890  1.4214
   98OSM   H11G 9824   2.546   5.642   9.459  1.7436  0.5861 -0.6266
   98OSM   C12F 9825   2.528   5.581   9.248 -0.7617  0.1335  0.3820
   98OSM   H12F 9826   2.563   5.499   9.181  0.5062 -0.6305  1.9606
   98OSM   H12G 9827   2.567   5.682   9.224 -2.6278  1.3063  2.1756
   98OSM   C13F 9828   2.372   5.594   9.231  0.3691 -0.1522  0.4157
   98OSM   H13F 9829   2.338   5.685   9.284  0.7978 -0.0663  0.5424
   98OSM   H13G 9830   2.319   5.508   9.278  1.2632 -0.5974  0.6098
   98OSM   C14F 9831   2.335   5.622   9.079 -0.4048  0.1622  0.3367
   98OSM   H14F 9832   2.374   5.532   9.026 -0.8564 -0.1597  0.5434
   98OSM   H14G 9833   2.402   5.707   9.055 -0.3820 -0.2983 -1.2618
   98OSM   C15F 9834   2.185   5.643   9.068 -0.3600  0.3173  0.2412
   98OSM   H15F 9835   2.158   5.728   9.134 -3.3535 -0.5052  0.1501
   98OSM   H15G 9836   2.123   5.555   9.096 -0.5953 -0.3335 -2.1718
   98OSM   C16F 9837   2.135   5.655   8.921 -0.0860  0.6480 -0.3217
   98OSM   H16F 9838   2.025   5.668   8.928  0.0637  1.2393  1.1414
   98OSM   H16G 9839   2.171   5.557   8.883 -0.8896  0.8928 -1.7332
   98OSM   C17F 9840   2.188   5.787   8.856 -0.0549 -0.2390 -0.2606
   98OSM   H17F 9841   2.148   5.793   8.752 -1.1974  2.5591  0.3017
   98OSM   H17G 9842   2.297   5.780   8.837 -0.1325  0.3702 -0.9612
   98OSM   C18F 9843   2.163   5.918   8.920  0.0208 -0.0168 -0.7529
   98OSM   H18F 9844   2.209   5.987   8.846 -0.6490  1.1065 -0.1472
   98OSM   H18G 9845   2.197   5.927   9.026 -0.7449  3.0518 -0.7231
   98OSM   H18H 9846   2.053   5.933   8.925  0.0560 -0.1437  0.8540
   99OSM      N 9847   3.802   5.806  11.129  0.1204  0.2681 -0.7921
   99OSM    C15 9848   3.808   5.693  11.223  0.3703  0.2373 -0.2060
   99OSM   H15A 9849   3.718   5.633  11.219  0.7947 -0.4179 -0.0519
   99OSM   H15B 9850   3.803   5.723  11.327 -2.0130  2.0911 -0.8273
   99OSM   H15C 9851   3.891   5.626  11.204  0.4502 -0.7487  3.2759
   99OSM    C14 9852   3.674   5.894  11.158  0.5544  0.3841  0.3793
   99OSM   H14A 9853   3.660   5.978  11.092 -3.0856 -1.7477 -1.7517
   99OSM   H14B 9854   3.680   5.928  11.260 -0.4234 -0.1763  0.6321
   99OSM   H14C 9855   3.584   5.836  11.144  1.0631 -0.3165 -0.0247
   99OSM    C13 9856   3.915   5.895  11.150 -0.5607  0.4258  0.0963
   99OSM   H13A 9857   3.938   5.917  11.253  0.6231  0.0414 -0.0787
   99OSM   H13B 9858   3.907   5.986  11.092 -1.0512 -0.0310 -0.5639
   99OSM   H13C 9859   4.006   5.852  11.111 -1.9753 -0.1525 -2.6982
   99OSM    C12 9860   3.793   5.758  10.986 -0.3084 -0.4974  0.4239
   99OSM   H12A 9861   3.817   5.839  10.918  1.5355 -0.7137  0.7942
   99OSM   H12B 9862   3.691   5.743  10.954  0.8531 -0.1351 -3.8504
   99OSM    C11 9863   3.879   5.625  10.957 -0.3014  0.2752  0.4759
   99OSM   H11A 9864   3.877   5.604  10.848  0.8146  1.4613  0.2177
   99OSM   H11B 9865   3.824   5.536  10.994 -0.3645 -1.5953 -3.8462
   99OSM      P 9866   4.123   5.715  10.935 -0.1074  0.1304  0.5754
   99OSM    O13 9867   4.197   5.784  11.047  0.1286 -0.0581  0.9385
   99OSM    O14 9868   4.199   5.629  10.844 -0.2370 -0.1307 -0.0440
   99OSM    O11 9869   4.046   5.816  10.850 -0.5169 -0.5508  0.2158
   99OSM    O12 9870   4.011   5.629  11.003 -0.7171 -0.0900  0.0884
   99OSM    C1S 9871   4.114   5.926  10.782  0.1696 -0.0223 -0.2090
   99OSM    H1S 9872   4.219   5.942  10.816 -0.0779  0.3527  0.3882
   99OSM    H1T 9873   4.055   6.018  10.805 -2.9662 -1.4512 -2.2280
   99OSM     NF 9874   4.205   6.010  10.561  0.0521 -0.1444  0.1508
   99OSM    HNF 9875   4.160   6.081  10.508  1.7901  1.4321  0.7389
   99OSM    C2S 9876   4.122   5.909  10.625  0.2669 -0.4138  0.2422
   99OSM    H2S 9877   4.171   5.811  10.604 -1.2638 -0.8159 -1.5817
   99OSM    C3S 9878   3.977   5.900  10.570  0.2290  0.4075  0.7685
   99OSM    H3S 9879   3.927   5.998  10.585  0.2544  0.7365 -1.1954
   99OSM     O3 9880   3.897   5.796  10.624  0.8160 -0.2266  0.2304
   99OSM    HO3 9881   3.951   5.761  10.695 -0.6350 -2.0497  0.4686
   99OSM    C4S 9882   3.991   5.876  10.419  0.4451 -0.5348  0.1225
   99OSM    H4S 9883   3.995   5.959  10.348 -0.2441 -0.8792 -0.3264
   99OSM    C5S 9884   3.999   5.754  10.359 -0.2789  0.3953 -0.0527
   99OSM    H5S 9885   3.983   5.661  10.415 -2.0441  0.9343  0.3681
   99OSM    C6S 9886   4.003   5.735  10.212 -0.0403 -0.5103 -0.2988
   99OSM    H6S 9887   4.071   5.647  10.211  0.6257  0.0099 -0.9227
   99OSM    H6T 9888   4.050   5.814  10.150 -1.9283  0.8767 -0.0117
   99OSM    C7S 9889   3.877   5.687  10.148 -0.2327  0.9845 -0.2888
   99OSM    H7S 9890   3.854   5.586  10.187 -3.2960  1.0316 -1.7891
   99OSM    H7T 9891   3.882   5.685  10.037  4.3882 -1.7393 -0.1627
   99OSM    C8S 9892   3.746   5.759  10.183  0.3323 -0.8987  0.6584
   99OSM    H8S 9893   3.727   5.771  10.292  1.6146 -1.5232  0.9574
   99OSM    H8T 9894   3.654   5.712  10.141  0.8889  1.4645 -3.5002
   99OSM    C9S 9895   3.735   5.907  10.139 -0.3274  0.3082 -0.0066
   99OSM    H9S 9896   3.797   5.977  10.199  0.3370 -1.4300  1.3742
   99OSM    H9T 9897   3.631   5.944  10.154 -0.5758  0.0907 -1.1603
   99OSM   C10S 9898   3.782   5.935   9.995 -0.4914 -0.0099 -0.0441
   99OSM   H10S 9899   3.766   5.839   9.942  1.4923  0.4277 -1.5376
   99OSM   H10T 9900   3.891   5.956   9.987 -0.8983  1.9078 -0.8400
   99OSM   C11S 9901   3.696   6.033   9.908  0.8082  0.3615 -0.0301
   99OSM   H11S 9902   3.702   6.133   9.956 -1.5955  0.3591  0.3374
   99OSM   H11T 9903   3.603   5.972   9.918  0.7457  0.4987  0.2343
   99OSM   C12S 9904   3.725   6.035   9.761  0.4882 -0.0244  1.0271
   99OSM   H12S 9905   3.664   6.100   9.696  0.7443 -0.9064 -0.1208
   99OSM   H12T 9906   3.831   6.069   9.753  0.1023  0.6809 -1.8379
   99OSM   C13S 9907   3.719   5.892   9.691 -0.4168  0.5489  0.0241
   99OSM   H13S 9908   3.628   5.839   9.725 -1.7609  1.6245 -1.8320
   99OSM   H13T 9909   3.811   5.837   9.722 -1.7993 -1.5086  0.5878
   99OSM   C14S 9910   3.703   5.879   9.540 -0.3473 -0.4946 -0.3894
   99OSM   H14S 9911   3.626   5.949   9.501 -0.9351 -1.4847 -1.0296
   99OSM   H14T 9912   3.663   5.777   9.527 -1.1957  0.1109 -2.8167
   99OSM   C15S 9913   3.843   5.898   9.473  0.0783 -0.6737 -0.3597
   99OSM   H15S 9914   3.925   5.856   9.535  0.0252 -1.3134 -0.7221
   99OSM   H15T 9915   3.870   6.005   9.458 -2.4463  0.4181  2.2348
   99OSM   C16S 9916   3.832   5.830   9.335  0.2914 -0.3800 -0.4299
   99OSM   H16S 9917   3.733   5.848   9.289  1.6137  1.4015 -2.6856
   99OSM   H16T 9918   3.839   5.725   9.370 -2.1899 -0.3156  0.3641
   99OSM   C17S 9919   3.944   5.859   9.234  0.1055 -0.8551  0.0992
   99OSM   H17S 9920   3.938   5.783   9.153 -1.7501 -1.3555  0.6824
   99OSM   H17T 9921   4.045   5.858   9.281  0.9025  1.0047 -1.4811
   99OSM   C18S 9922   3.911   6.003   9.175 -0.2790 -0.2105 -1.4659
   99OSM   H18S 9923   3.981   6.024   9.092  0.2542  1.6890 -0.5805
   99OSM   H18T 9924   3.933   6.086   9.246  0.7843 -1.6563 -0.0498
   99OSM   H18U 9925   3.805   6.010   9.142 -0.8051 -3.9585 -0.8592
   99OSM    C1F 9926   4.340   6.022  10.567  0.9206 -0.0469 -1.1664
   99OSM     OF 9927   4.413   5.951  10.635  0.2187  0.0556  0.0066
   99OSM    C2F 9928   4.397   6.128  10.480  0.4165  0.9798  0.1527
   99OSM    H2F 9929   4.392   6.227  10.529 -4.4029  1.0723 -0.3027
   99OSM    H2G 9930   4.346   6.131  10.381  1.3209 -0.4827 -0.3845
   99OSM    C3F 9931   4.549   6.113  10.466  0.3239 -0.4395 -0.6085
   99OSM    H3F 9932   4.597   6.116  10.566  1.7519  0.0731 -1.2911
   99OSM    H3G 9933   4.570   6.011  10.429  1.6518  0.3129 -2.0016
   99OSM    C4F 9934   4.626   6.220  10.384  0.5684 -0.1813 -0.6477
   99OSM    H4F 9935   4.736   6.200  10.382  0.2843 -2.9144  4.3418
   99OSM    H4G 9936   4.621   6.317  10.438 -0.2468 -1.4752  1.6726
   99OSM    C5F 9937   4.586   6.233  10.233 -0.1598 -0.2645 -0.3401
   99OSM    H5F 9938   4.631   6.324  10.188 -0.8729 -0.8707 -2.3599
   99OSM    H5G 9939   4.477   6.249  10.214 -0.0960  1.1782  0.4023
   99OSM    C6F 9940   4.640   6.119  10.151  0.0036 -0.4026 -0.0816
   99OSM    H6F 9941   4.607   6.025  10.200 -0.0505 -0.4508 -0.2099
   99OSM    H6G 9942   4.749   6.111  10.166  0.0723  1.3078  0.4736
   99OSM    C7F 9943   4.596   6.125  10.006 -0.5153 -0.5385  0.0902
   99OSM    H7F 9944   4.638   6.037   9.954 -0.7628 -0.7567  0.2587
   99OSM    H7G 9945   4.647   6.216   9.967  1.0319 -0.4688  2.2259
   99OSM    C8F 9946   4.445   6.121   9.979  0.3064 -0.2298  0.2384
   99OSM    H8F 9947   4.425   6.123   9.870  0.1939 -0.4445  0.2563
   99OSM    H8G 9948   4.401   6.219  10.009  0.4002 -0.6304  1.7274
   99OSM    C9F 9949   4.373   6.002  10.045  0.1631 -0.6478 -0.5542
   99OSM    H9F 9950   4.368   6.014  10.154  2.6370 -0.5600 -0.4290
   99OSM   C10F 9951   4.328   5.884   9.996 -0.5300  0.0193  1.0450
   99OSM   H10F 9952   4.271   5.814  10.059  0.4569 -0.4304  1.4399
   99OSM   C11F 9953   4.349   5.835   9.851  0.3482  0.1730 -0.4560
   99OSM   H11F 9954   4.414   5.745   9.855 -0.1670 -0.2173 -0.6640
   99OSM   H11G 9955   4.396   5.913   9.787  1.4581 -0.2142 -0.1111
   99OSM   C12F 9956   4.210   5.789   9.801  0.2030  0.4081  0.5822
   99OSM   H12F 9957   4.228   5.791   9.691  2.7009 -0.7359  0.9220
   99OSM   H12G 9958   4.129   5.863   9.819  0.8932  0.9098  1.7177
   99OSM   C13F 9959   4.176   5.648   9.830  0.1130  0.4028  0.0411
   99OSM   H13F 9960   4.140   5.640   9.934 -0.7723 -0.5859 -0.3270
   99OSM   H13G 9961   4.268   5.585   9.826  0.5553  0.8872  2.2339
   99OSM   C14F 9962   4.050   5.602   9.751  0.0214  0.3073  0.4713
   99OSM   H14F 9963   3.967   5.673   9.773 -1.4602 -0.8525 -1.2516
   99OSM   H14G 9964   4.015   5.508   9.798  1.0526 -0.3683 -0.1060
   99OSM   C15F 9965   4.069   5.583   9.600 -0.4450 -0.1066  0.0165
   99OSM   H15F 9966   4.171   5.540   9.585 -1.0881 -1.2447 -1.1193
   99OSM   H15G 9967   4.064   5.677   9.540  4.5641 -0.4589 -1.2468
   99OSM   C16F 9968   3.975   5.480   9.540  0.0129  0.3696  0.3911
   99OSM   H16F 9969   3.875   5.529   9.542 -0.8083 -1.0033 -3.1330
   99OSM   H16G 9970   3.963   5.387   9.599 -0.6234 -0.4771 -1.0427
   99OSM   C17F 9971   4.019   5.443   9.403  0.5308  0.1111 -0.5854
   99OSM   H17F 9972   4.114   5.388   9.388  0.5410  0.1588 -0.6984
   99OSM   H17G 9973   4.025   5.544   9.357  0.5030 -0.0772 -0.9976
   99OSM   C18F 9974   3.911   5.360   9.327  0.3157 -0.3967 -1.2059
   99OSM   H18F 9975   3.893   5.267   9.384  1.4890 -0.4853 -0.9725
   99OSM   H18G 9976   3.948   5.336   9.225 -0.4114  0.8731 -1.7861
   99OSM   H18H 9977   3.819   5.422   9.318  1.0171  0.6940 -0.9480
  100OSM      N 9978   6.700   0.380  11.073  0.3259 -0.6637  0.7134
  100OSM    C15 9979   6.622   0.436  11.186 -0.5243 -0.0241  0.0426
  100OSM   H15A 9980   6.518   0.450  11.157 -0.6623  0.5358  0.7969
  100OSM   H15B 9981   6.644   0.536  11.221  0.3308 -0.3909  0.5585
  100OSM   H15C 9982   6.625   0.367  11.269  1.2541 -0.8767 -0.7260
  100OSM    C14 9983   6.688   0.471  10.950  0.0483 -0.4797  0.5043
  100OSM   H14A 9984   6.588   0.494  10.916  1.1034  0.4467 -2.0851
  100OSM   H14B 9985   6.740   0.427  10.867 -2.4609  0.4716 -1.6664
  100OSM   H14C 9986   6.725   0.572  10.965  1.3018 -0.5471 -1.9811
  100OSM    C13 9987   6.841   0.367  11.112  0.3381  0.1691 -0.2179
  100OSM   H13A 9988   6.884   0.465  11.120 -1.4875  0.9088  0.8925
  100OSM   H13B 9989   6.885   0.308  11.033 -0.0306 -1.8351  1.0228
  100OSM   H13C 9990   6.860   0.315  11.205 -0.1230  0.2083 -0.0976
  100OSM    C12 9991   6.646   0.240  11.041 -0.0919  0.3615  0.8427
  100OSM   H12A 9992   6.539   0.246  11.051 -0.3637 -2.8317  0.3342
  100OSM   H12B 9993   6.679   0.175  11.121 -1.9338 -1.3037  0.2957
  100OSM    C11 9994   6.686   0.171  10.906 -0.5494  0.5191  0.1041
  100OSM   H11A 9995   6.657   0.232  10.817  1.8269  2.8145  0.8428
  100OSM   H11B 9996   6.628   0.077  10.897 -0.7226  0.4834  1.4932
  100OSM      P 9997   6.914   0.026  10.869  0.1245  0.1276  0.3479
  100OSM    O13 9998   7.034   0.032  10.951  0.5414  0.7737 -0.0271
  100OSM    O14 9999   6.829  -0.097  10.874  0.5859 -0.1638  0.0086
  100OSM    O1110000   6.960   0.053  10.722 -0.5341  0.4894  0.1315
  100OSM    O1210001   6.831   0.154  10.898 -0.4734 -0.2949  0.1490
  100OSM    C1S10002   6.895  -0.010  10.607 -0.1290 -0.5090 -0.0268
  100OSM    H1S10003   6.856  -0.113  10.622 -0.3021  0.0116  3.4403
  100OSM    H1T10004   6.967  -0.009  10.523  3.4275 -0.9708  2.8941
  100OSM     NF10005   6.724   0.022  10.427  0.1384  0.0169 -0.4301
  100OSM    HNF10006   6.758   0.073  10.348  0.0372  0.9919  0.1364
  100OSM    C2S10007   6.775   0.081  10.553 -0.5547  0.4445 -0.3133
  100OSM    H2S10008   6.693   0.077  10.628 -1.1739  2.3980 -0.8514
  100OSM    C3S10009   6.818   0.227  10.535  0.1910  0.0706  0.6640
  100OSM    H3S10010   6.894   0.239  10.455 -0.3858 -0.8761 -0.0345
  100OSM     O310011   6.856   0.293  10.656 -0.3256  0.1011  0.0958
  100OSM    HO310012   6.868   0.222  10.718 -2.3083 -0.8043 -0.4920
  100OSM    C4S10013   6.698   0.310  10.478 -0.0920  0.2927 -0.2700
  100OSM    H4S10014   6.606   0.284  10.533  0.2605 -1.1310 -0.3288
  100OSM    C5S10015   6.699   0.401  10.381 -0.2464 -0.1273  0.1872
  100OSM    H5S10016   6.795   0.438  10.342 -0.8950  0.6816 -0.6549
  100OSM    C6S10017   6.568   0.479  10.349  0.1034  0.1842  0.2211
  100OSM    H6S10018   6.605   0.584  10.356 -0.6111  0.3572  1.3805
  100OSM    H6T10019   6.489   0.467  10.426  0.8988 -0.7405  0.9090
  100OSM    C7S10020   6.510   0.451  10.211 -0.8142 -0.1249  0.0656
  100OSM    H7S10021   6.460   0.352  10.201 -1.1359 -0.0572  0.9037
  100OSM    H7T10022   6.598   0.459  10.144  0.1452  0.0320  1.3320
  100OSM    C8S10023   6.417   0.565  10.167 -0.4424 -0.0796  0.0667
  100OSM    H8S10024   6.470   0.663  10.171 -1.8557  0.7793 -1.5227
  100OSM    H8T10025   6.337   0.559  10.244 -1.7543  1.2422 -1.1603
  100OSM    C9S10026   6.327   0.562  10.045  0.0776 -0.4584 -0.1079
  100OSM    H9S10027   6.273   0.658  10.033 -0.7136 -0.7705  0.8636
  100OSM    H9T10028   6.252   0.480  10.051  0.1611 -0.5675 -0.5252
  100OSM   C10S10029   6.419   0.557   9.917 -0.0675  0.8078 -0.1977
  100OSM   H10S10030   6.476   0.462   9.913  1.4557  1.7339 -1.0859
  100OSM   H10T10031   6.500   0.632   9.925  1.0639 -0.2759 -1.2675
  100OSM   C11S10032   6.349   0.587   9.782  0.5028 -0.1423  1.2057
  100OSM   H11S10033   6.317   0.693   9.770  2.3914  0.0160 -3.7170
  100OSM   H11T10034   6.258   0.526   9.797  1.0429 -1.4820 -0.7232
  100OSM   C12S10035   6.419   0.550   9.657 -0.4094  0.2075  0.2766
  100OSM   H12S10036   6.440   0.441   9.653  1.6735  0.4791  2.6521
  100OSM   H12T10037   6.519   0.597   9.651  0.1266 -1.1742 -2.6019
  100OSM   C13S10038   6.340   0.590   9.531 -0.4028  0.0462  0.3583
  100OSM   H13S10039   6.306   0.695   9.543 -0.4244  0.0383  0.3666
  100OSM   H13T10040   6.251   0.524   9.524 -0.6181  0.1860  1.7621
  100OSM   C14S10041   6.432   0.576   9.415 -0.5107 -0.1694  0.4342
  100OSM   H14S10042   6.459   0.468   9.407 -2.1532 -0.7022  1.7867
  100OSM   H14T10043   6.517   0.645   9.428 -0.2034 -1.0169  3.1538
  100OSM   C15S10044   6.357   0.619   9.289 -1.2832 -0.1534  0.1382
  100OSM   H15S10045   6.296   0.711   9.286 -0.9897  0.0209 -0.7863
  100OSM   H15T10046   6.280   0.545   9.259 -1.4814 -0.8358  2.2809
  100OSM   C16S10047   6.456   0.618   9.176  0.2532  0.6244 -0.5177
  100OSM   H16S10048   6.390   0.603   9.088  1.3325  2.5945 -1.6797
  100OSM   H16T10049   6.528   0.534   9.186 -1.5587 -0.5953  3.3111
  100OSM   C17S10050   6.529   0.753   9.156  0.1098  0.8442 -0.0043
  100OSM   H17S10051   6.586   0.770   9.250  0.1411 -1.6119  0.4644
  100OSM   H17T10052   6.444   0.825   9.153  0.4292  1.2651  0.9594
  100OSM   C18S10053   6.623   0.763   9.035  0.6443  0.3594 -0.4977
  100OSM   H18S10054   6.565   0.786   8.943 -1.0474 -0.0966  0.4525
  100OSM   H18T10055   6.676   0.665   9.026 -0.5459 -0.2920 -0.4883
  100OSM   H18U10056   6.703   0.840   9.041  1.5657 -0.6467  0.4700
  100OSM    C1F10057   6.682  -0.107  10.422  0.1519 -0.2478  0.2213
  100OSM     OF10058   6.636  -0.165  10.516 -0.3519  0.7223 -0.7576
  100OSM    C2F10059   6.686  -0.166  10.281  0.5208 -0.0929  0.1546
  100OSM    H2F10060   6.789  -0.162  10.240  0.5463  1.6450  0.3383
  100OSM    H2G10061   6.620  -0.106  10.214  1.0664  1.6413  1.1375
  100OSM    C3F10062   6.621  -0.308  10.279  0.0773 -0.3192  0.2597
  100OSM    H3F10063   6.524  -0.296  10.332 -0.4453  0.6617 -0.9024
  100OSM    H3G10064   6.691  -0.369  10.341 -2.0620 -0.2042  2.8841
  100OSM    C4F10065   6.602  -0.376  10.147 -0.0232  0.5371 -0.0421
  100OSM    H4F10066   6.586  -0.485  10.161 -0.4171  0.6716  0.5901
  100OSM    H4G10067   6.696  -0.355  10.092 -0.7698  2.3487 -0.6643
  100OSM    C5F10068   6.504  -0.315  10.049  1.2962 -0.7245  0.2522
  100OSM    H5F10069   6.530  -0.208  10.040 -0.6244 -0.0951  1.8022
  100OSM    H5G10070   6.399  -0.326  10.083  1.5424 -0.8837  0.9659
  100OSM    C6F10071   6.523  -0.380   9.913  0.4082  0.1835 -0.1003
  100OSM    H6F10072   6.513  -0.490   9.905 -0.9414  0.3334 -0.6366
  100OSM    H6G10073   6.621  -0.356   9.866  0.5743 -0.2837  0.0067
  100OSM    C7F10074   6.413  -0.324   9.815 -0.1716 -0.3064 -0.8056
  100OSM    H7F10075   6.427  -0.214   9.800  2.3530 -0.4980 -0.0601
  100OSM    H7G10076   6.311  -0.332   9.859  0.8827  0.5481  1.9327
  100OSM    C8F10077   6.409  -0.406   9.681 -0.4228  0.3805 -0.7636
  100OSM    H8F10078   6.377  -0.510   9.705 -0.2358  0.6194  0.5706
  100OSM    H8G10079   6.509  -0.417   9.635 -0.6796 -1.3295 -0.9449
  100OSM    C9F10080   6.303  -0.343   9.592  0.4521  0.4208  0.9313
  100OSM    H9F10081   6.237  -0.270   9.640  1.2901  3.0613 -1.7438
  100OSM   C10F10082   6.291  -0.367   9.463  0.1477 -0.1837 -0.3347
  100OSM   H10F10083   6.224  -0.297   9.411  0.2776  1.4235  1.5907
  100OSM   C11F10084   6.362  -0.459   9.369 -0.1586  0.1976 -0.2306
  100OSM   H11F10085   6.298  -0.521   9.303 -0.8665  0.3346  0.3201
  100OSM   H11G10086   6.421  -0.525   9.436 -0.0101  2.2994  1.7740
  100OSM   C12F10087   6.464  -0.388   9.276 -0.1235  0.9658 -0.8753
  100OSM   H12F10088   6.557  -0.446   9.257  0.1266  0.3220  2.1476
  100OSM   H12G10089   6.494  -0.292   9.322 -1.3074  0.6808  0.5406
  100OSM   C13F10090   6.390  -0.355   9.149 -0.4819 -0.0255  0.1535
  100OSM   H13F10091   6.289  -0.310   9.163 -0.0332  0.2826  2.5036
  100OSM   H13G10092   6.380  -0.452   9.095 -0.0941 -0.2016  0.4005
  100OSM   C14F10093   6.474  -0.269   9.047  0.4710 -0.7914  0.0359
  100OSM   H14F10094   6.569  -0.326   9.051  0.8928 -0.1429 -0.6071
  100OSM   H14G10095   6.493  -0.166   9.083  2.3928 -0.5805 -1.5121
  100OSM   C15F10096   6.432  -0.276   8.899 -0.2131 -0.5168  0.3198
  100OSM   H15F10097   6.336  -0.221   8.898 -0.6020 -1.1962  0.0023
  100OSM   H15G10098   6.401  -0.380   8.875 -1.1788 -1.0631  3.6720
  100OSM   C16F10099   6.527  -0.204   8.793 -0.1018  0.7032  0.1756
  100OSM   H16F10100   6.629  -0.247   8.801 -0.8334 -0.9618  0.7239
  100OSM   H16G10101   6.531  -0.094   8.813 -1.7247  1.0392 -1.2440
  100OSM   C17F10102   6.474  -0.218   8.651  0.2631 -0.1284 -0.0700
  100OSM   H17F10103   6.377  -0.164   8.645 -1.2010 -2.6000  0.6855
  100OSM   H17G10104   6.447  -0.323   8.629 -0.6469 -0.1794  1.2203
  100OSM   C18F10105   6.581  -0.158   8.557  0.0306 -0.0490  0.4151
  100OSM   H18F10106   6.539  -0.172   8.455 -0.6169  2.3833  0.3243
  100OSM   H18G10107   6.679  -0.211   8.564  1.4581  2.5310  0.8490
  100OSM   H18H10108   6.599  -0.052   8.584  0.4275  0.1391 -0.5629
  101OSM      N10109   1.913   6.780  10.919 -0.6671  0.0937 -0.0878
  101OSM    C1510110   1.777   6.827  10.911  0.5354  0.2118 -0.0978
  101OSM   H15A10111   1.734   6.769  10.831 -2.9440  3.6059 -0.8703
  101OSM   H15B10112   1.767   6.931  10.881 -1.8069  0.3518  1.0328
  101OSM   H15C10113   1.715   6.800  10.995  0.5189  1.6000  0.3594
  101OSM    C1410114   1.978   6.873  11.015  0.1953 -0.0877 -0.2287
  101OSM   H14A10115   1.941   6.864  11.116 -0.9634 -1.2881 -0.7490
  101OSM   H14B10116   1.976   6.977  10.983 -2.2558 -0.5240 -1.6305
  101OSM   H14C10117   2.080   6.837  11.014 -0.2942 -1.4959 -0.0460
  101OSM    C1310118   1.915   6.637  10.963 -0.6969  0.2350 -0.2102
  101OSM   H13A10119   1.882   6.637  11.066  3.1485 -0.0466  1.0671
  101OSM   H13B10120   2.016   6.607  10.944 -1.8685 -2.4703 -2.4093
  101OSM   H13C10121   1.840   6.579  10.911 -0.0889  0.5203 -1.4188
  101OSM    C1210122   1.973   6.794  10.776 -0.0767  0.1704  0.2391
  101OSM   H12A10123   1.972   6.900  10.754 -2.4184  0.0522 -0.4172
  101OSM   H12B10124   1.899   6.747  10.713 -0.4011 -0.5683  1.1624
  101OSM    C1110125   2.116   6.741  10.750  0.8556 -0.7202  0.3245
  101OSM   H11A10126   2.170   6.785  10.664  0.2655 -1.0641 -0.2225
  101OSM   H11B10127   2.094   6.633  10.732 -0.6277 -0.4041  0.1841
  101OSM      P10128   2.309   6.668  10.916 -0.2090  0.0938  0.0783
  101OSM    O1310129   2.390   6.752  11.002  0.4451 -0.3214  0.1058
  101OSM    O1410130   2.241   6.553  10.974  0.2912 -0.3498  0.0132
  101OSM    O1110131   2.378   6.629  10.777 -0.4926  0.4184 -0.6323
  101OSM    O1210132   2.197   6.764  10.861  0.4964  0.0147  0.0674
  101OSM    C1S10133   2.467   6.723  10.717 -0.3124 -0.3791 -0.3553
  101OSM    H1S10134   2.527   6.789  10.782 -2.5424  0.6210  0.7497
  101OSM    H1T10135   2.403   6.792  10.657 -1.1668  0.3603  1.3945
  101OSM     NF10136   2.672   6.747  10.578 -0.2436  0.1030  0.0456
  101OSM    HNF10137   2.656   6.801  10.496 -0.1698  1.3347  0.8159
  101OSM    C2S10138   2.563   6.653  10.616 -0.0657 -0.3413  0.3503
  101OSM    H2S10139   2.610   6.562  10.660 -1.6127 -0.9932  0.6821
  101OSM    C3S10140   2.477   6.609  10.492  0.0037 -0.2331  0.1771
  101OSM    H3S10141   2.435   6.705  10.456 -1.5040 -0.5329  1.0957
  101OSM     O310142   2.358   6.539  10.526 -0.4630  0.5738 -0.7590
  101OSM    HO310143   2.353   6.554  10.620  1.2262 -1.3291 -0.3469
  101OSM    C4S10144   2.563   6.536  10.397 -1.2048 -0.7323 -0.1793
  101OSM    H4S10145   2.629   6.592  10.330 -0.2052 -1.5747  0.0910
  101OSM    C5S10146   2.563   6.397  10.382  0.9822 -1.0591 -0.1509
  101OSM    H5S10147   2.514   6.334  10.457 -0.2959  0.5684  0.4156
  101OSM    C6S10148   2.641   6.310  10.288  0.3468 -0.6366 -0.4846
  101OSM    H6S10149   2.584   6.216  10.274 -0.4283 -0.3430  0.6248
  101OSM    H6T10150   2.734   6.283  10.341 -0.9085 -2.7873  0.6916
  101OSM    C7S10151   2.672   6.389  10.160 -0.8398  0.9276 -0.0931
  101OSM    H7S10152   2.734   6.480  10.173 -0.5900  1.0549 -1.9840
  101OSM    H7T10153   2.569   6.419  10.129 -1.5100 -0.4052  0.7884
  101OSM    C8S10154   2.713   6.296  10.046 -1.1257 -0.4912  0.4427
  101OSM    H8S10155   2.651   6.204  10.057 -0.5200 -0.7815  1.4932
  101OSM    H8T10156   2.821   6.273  10.059 -1.2069 -0.6093  0.9437
  101OSM    C9S10157   2.692   6.354   9.904  0.1417  0.0405 -0.3916
  101OSM    H9S10158   2.745   6.451   9.894 -0.0907  0.5663  3.0808
  101OSM    H9T10159   2.585   6.384   9.892  0.4173  0.6217 -1.4445
  101OSM   C10S10160   2.731   6.265   9.782 -0.2206  0.1497 -0.0960
  101OSM   H10S10161   2.659   6.182   9.765 -0.0016  0.1449 -1.0552
  101OSM   H10T10162   2.831   6.220   9.802 -0.8312 -0.5491  1.4352
  101OSM   C11S10163   2.746   6.346   9.649 -0.5885  0.1013  0.5011
  101OSM   H11S10164   2.819   6.427   9.667 -1.2414  0.8215 -0.0684
  101OSM   H11T10165   2.651   6.398   9.625  0.3664  2.5019  1.8501
  101OSM   C12S10166   2.778   6.256   9.534 -0.2460 -1.0213  0.1498
  101OSM   H12S10167   2.687   6.196   9.510 -0.7845  0.3491 -1.3147
  101OSM   H12T10168   2.859   6.183   9.555  1.7188  1.1155  0.1084
  101OSM   C13S10169   2.822   6.337   9.405 -0.0091  0.5024  0.4088
  101OSM   H13S10170   2.853   6.273   9.320 -2.5507  0.5695 -0.6032
  101OSM   H13T10171   2.908   6.404   9.430  0.8000  0.0924 -1.1949
  101OSM   C14S10172   2.704   6.421   9.347 -0.1807  0.9194  0.7305
  101OSM   H14S10173   2.652   6.465   9.434 -1.9200 -0.3278  0.3554
  101OSM   H14T10174   2.644   6.337   9.304  0.1529  0.9904  0.1150
  101OSM   C15S10175   2.751   6.524   9.244  0.1569  0.5652  0.2717
  101OSM   H15S10176   2.696   6.510   9.149  3.0624 -0.0117 -1.3648
  101OSM   H15T10177   2.861   6.518   9.237  0.4379  0.7586  3.6988
  101OSM   C16S10178   2.714   6.666   9.298  0.0438  0.0409 -0.2770
  101OSM   H16S10179   2.771   6.692   9.389 -1.4632 -1.0689  1.0204
  101OSM   H16T10180   2.606   6.664   9.325 -0.5404  2.7071 -2.2614
  101OSM   C17S10181   2.753   6.766   9.191  0.0073  0.0932 -0.6048
  101OSM   H17S10182   2.690   6.857   9.187 -2.2189 -1.5100 -3.3047
  101OSM   H17T10183   2.732   6.713   9.096  0.4035  1.0650 -1.2278
  101OSM   C18S10184   2.905   6.804   9.203 -1.1876  0.1940 -0.1065
  101OSM   H18S10185   2.973   6.720   9.177 -0.4001  0.8608 -0.2235
  101OSM   H18T10186   2.913   6.844   9.306 -0.5499  1.7007 -0.7165
  101OSM   H18U10187   2.922   6.883   9.126  0.2996  0.3925  0.4129
  101OSM    C1F10188   2.775   6.775  10.665 -0.8530  0.3807 -0.1671
  101OSM     OF10189   2.792   6.708  10.768  0.6894 -0.3279 -0.2658
  101OSM    C2F10190   2.868   6.882  10.633 -0.5183  0.2410 -0.2458
  101OSM    H2F10191   2.853   6.961  10.709  1.0045  1.0730 -0.7841
  101OSM    H2G10192   2.847   6.924  10.532  1.0402  0.1930 -0.6133
  101OSM    C3F10193   3.009   6.828  10.639  0.6943  0.3525 -0.5432
  101OSM    H3F10194   3.018   6.723  10.603  5.6395  1.1832 -2.0686
  101OSM    H3G10195   3.049   6.830  10.742 -0.3296 -0.9493 -0.1092
  101OSM    C4F10196   3.108   6.907  10.556  0.1256  0.9965 -0.0670
  101OSM    H4F10197   3.127   7.004  10.606  0.9939  1.8073 -1.9262
  101OSM    H4G10198   3.058   6.944  10.463 -0.8135  1.5264  0.6418
  101OSM    C5F10199   3.251   6.848  10.528 -0.9324  0.8724 -0.3538
  101OSM    H5F10200   3.237   6.752  10.475  1.2392 -0.3577  1.1878
  101OSM    H5G10201   3.297   6.820  10.626 -1.2148 -1.1183 -0.7561
  101OSM    C6F10202   3.349   6.938  10.453  0.5615  0.0441  0.1537
  101OSM    H6F10203   3.348   7.036  10.507 -1.7183  1.0556 -1.6637
  101OSM    H6G10204   3.445   6.883  10.464  0.5677 -0.5656 -2.5278
  101OSM    C7F10205   3.315   6.958  10.311  0.1203  0.3519 -0.5973
  101OSM    H7F10206   3.218   7.010  10.298  0.2501  0.3604 -1.6350
  101OSM    H7G10207   3.295   6.856  10.273  1.0556  0.3409 -1.0741
  101OSM    C8F10208   3.414   7.031  10.228 -0.8926 -0.4923 -0.3954
  101OSM    H8F10209   3.461   7.109  10.292  2.6288 -1.8865 -1.1454
  101OSM    H8G10210   3.365   7.086  10.146 -0.9492 -2.5609 -1.7842
  101OSM    C9F10211   3.515   6.927  10.172  0.4230 -0.3357 -0.8523
  101OSM    H9F10212   3.570   6.881  10.255 -0.1817  0.0586 -0.2309
  101OSM   C10F10213   3.547   6.923  10.040 -0.0114 -0.2178  0.2187
  101OSM   H10F10214   3.621   6.855   9.995 -0.8925 -0.8572 -0.2815
  101OSM   C11F10215   3.478   7.010   9.937 -0.4557 -0.5831  0.4020
  101OSM   H11F10216   3.518   7.114   9.937 -1.4829 -0.1513 -2.6504
  101OSM   H11G10217   3.369   7.011   9.958 -0.9379 -0.9478 -1.9826
  101OSM   C12F10218   3.494   6.949   9.795  0.6367  0.6173 -0.5693
  101OSM   H12F10219   3.454   6.845   9.785 -1.6298  1.7428 -4.0335
  101OSM   H12G10220   3.602   6.958   9.771  1.3972 -2.9733  1.0348
  101OSM   C13F10221   3.420   7.032   9.692 -0.0029  0.4212 -0.3816
  101OSM   H13F10222   3.426   7.143   9.697 -0.2653  0.3155  3.3198
  101OSM   H13G10223   3.311   7.009   9.698  0.2944 -0.4131  2.1449
  101OSM   C14F10224   3.476   6.995   9.548 -0.5647  0.5774  0.1382
  101OSM   H14F10225   3.400   7.021   9.471  0.7642  0.7554 -1.1505
  101OSM   H14G10226   3.506   6.891   9.527 -0.7153  0.6198 -0.3018
  101OSM   C15F10227   3.589   7.085   9.515 -0.2554  0.1077  0.1486
  101OSM   H15F10228   3.653   7.096   9.606 -0.5258  0.3962  0.3031
  101OSM   H15G10229   3.552   7.187   9.493  1.0578  1.0873  2.2225
  101OSM   C16F10230   3.680   7.037   9.402  0.0921 -0.7829 -0.1205
  101OSM   H16F10231   3.698   6.928   9.414 -1.5668 -1.5331 -3.7394
  101OSM   H16G10232   3.779   7.088   9.396  0.3296 -1.4149 -2.1004
  101OSM   C17F10233   3.607   7.052   9.265  0.7377  0.1514 -0.1300
  101OSM   H17F10234   3.592   7.157   9.233  0.7642  0.4398  0.8087
  101OSM   H17G10235   3.513   6.993   9.256  0.2315  1.0421 -0.6922
  101OSM   C18F10236   3.693   6.987   9.150  0.6988 -0.7820 -0.4576
  101OSM   H18F10237   3.694   6.881   9.183 -0.8793 -0.3554  1.0755
  101OSM   H18G10238   3.794   7.032   9.147  0.9679 -1.4482 -1.6743
  101OSM   H18H10239   3.645   7.006   9.052 -1.0063  0.3544  0.5493
  102OSM      N10240   4.908   2.323  11.008 -0.0545  0.2619  0.5230
  102OSM    C1510241   5.044   2.376  10.979  0.1965 -0.3236  0.3221
  102OSM   H15A10242   5.058   2.475  11.020 -0.3951  0.5030 -1.4243
  102OSM   H15B10243   5.066   2.378  10.873  0.4823  1.7654  0.4067
  102OSM   H15C10244   5.112   2.309  11.029 -1.5547 -2.3634  0.0796
  102OSM    C1410245   4.900   2.179  10.960  0.0918  0.5865  0.7510
  102OSM   H14A10246   4.979   2.108  10.981  0.6526  1.3566  1.2726
  102OSM   H14B10247   4.896   2.174  10.852 -1.0052 -1.5147  0.8641
  102OSM   H14C10248   4.806   2.132  10.986 -0.7334  1.4691 -0.5863
  102OSM    C1310249   4.889   2.338  11.153 -0.1944  0.2893  0.5253
  102OSM   H13A10250   4.947   2.422  11.187 -1.6567  1.3098  0.5316
  102OSM   H13B10251   4.933   2.254  11.205 -1.7827 -0.6614  0.3717
  102OSM   H13C10252   4.786   2.343  11.185 -0.1852  1.9305  0.3338
  102OSM    C1210253   4.798   2.400  10.933  0.0683 -0.5107 -0.7013
  102OSM   H12A10254   4.792   2.499  10.977  0.0714 -0.0246 -1.7928
  102OSM   H12B10255   4.701   2.363  10.963 -0.3093  1.7610  1.0530
  102OSM    C1110256   4.816   2.416  10.779  1.0966 -0.3556 -0.0447
  102OSM   H11A10257   4.920   2.454  10.768  0.8325 -0.4176 -3.3219
  102OSM   H11B10258   4.747   2.492  10.737  0.1352 -1.2855 -0.1801
  102OSM      P10259   4.680   2.216  10.669 -0.2106  0.1165  0.1452
  102OSM    O1310260   4.719   2.071  10.663  0.3755  0.2875  0.0361
  102OSM    O1410261   4.562   2.252  10.752 -0.5730 -0.0881 -0.3249
  102OSM    O1110262   4.662   2.265  10.521  0.0709  0.4349 -0.1123
  102OSM    O1210263   4.805   2.292  10.710  0.0957  0.0464  0.0461
  102OSM    C1S10264   4.778   2.265  10.429  0.0799 -0.4628  0.2846
  102OSM    H1S10265   4.825   2.165  10.420  0.5859  0.0334 -3.1038
  102OSM    H1T10266   4.850   2.344  10.461 -1.2620  0.3061  1.4283
  102OSM     NF10267   4.856   2.240  10.195  0.5648  0.9320 -0.1622
  102OSM    HNF10268   4.911   2.301  10.138  1.7068  0.7258  0.7072
  102OSM    C2S10269   4.751   2.299  10.283 -0.0310  0.5063 -0.4165
  102OSM    H2S10270   4.657   2.248  10.254 -0.4275  1.4451 -0.8244
  102OSM    C3S10271   4.732   2.453  10.264 -0.7079 -0.5510 -0.6107
  102OSM    H3S10272   4.828   2.507  10.280 -0.5854 -0.0886 -2.7030
  102OSM     O310273   4.646   2.504  10.364  0.0115 -0.0863  0.3089
  102OSM    HO310274   4.632   2.422  10.411 -2.1792  0.8721  1.4428
  102OSM    C4S10275   4.693   2.489  10.124  0.1435 -0.7474 -0.1416
  102OSM    H4S10276   4.782   2.512  10.064  0.5494 -2.9122 -0.3759
  102OSM    C5S10277   4.567   2.507  10.078 -0.0622  0.0101 -0.2413
  102OSM    H5S10278   4.484   2.492  10.149 -0.9285  0.4027 -1.1608
  102OSM    C6S10279   4.546   2.550   9.936  0.3451 -0.2245 -0.5774
  102OSM    H6S10280   4.552   2.660   9.922 -0.9114 -0.2169 -1.1939
  102OSM    H6T10281   4.436   2.544   9.917 -0.0154  0.7452  1.0258
  102OSM    C7S10282   4.622   2.473   9.824 -0.4737  0.1846  0.2011
  102OSM    H7S10283   4.607   2.366   9.848 -0.6379  0.5821  1.9252
  102OSM    H7T10284   4.730   2.496   9.832 -0.3766  0.5420 -1.8031
  102OSM    C8S10285   4.560   2.505   9.689  0.2598 -0.2264 -0.0080
  102OSM    H8S10286   4.451   2.525   9.700  0.4554  0.0910  1.3737
  102OSM    H8T10287   4.572   2.416   9.624  1.2166  0.2773 -0.5418
  102OSM    C9S10288   4.638   2.616   9.616  0.0270  0.1480 -0.9340
  102OSM    H9S10289   4.741   2.577   9.599  0.2689  0.6011 -0.5490
  102OSM    H9T10290   4.656   2.699   9.688 -0.0209 -0.5929 -0.0650
  102OSM   C10S10291   4.565   2.661   9.486  0.3231  0.3538 -0.1634
  102OSM   H10S10292   4.594   2.766   9.465  1.9112  0.2985  1.6362
  102OSM   H10T10293   4.455   2.658   9.503  0.7159  1.9975  2.9884
  102OSM   C11S10294   4.606   2.551   9.372 -1.0553 -0.3765 -0.5561
  102OSM   H11S10295   4.565   2.453   9.401 -1.4209 -0.3581 -0.9994
  102OSM   H11T10296   4.717   2.551   9.375 -1.0254 -1.7992 -1.2618
  102OSM   C12S10297   4.549   2.586   9.234  0.0782  0.3530  0.3191
  102OSM   H12S10298   4.562   2.693   9.208  1.0027 -0.4649 -2.8327
  102OSM   H12T10299   4.439   2.568   9.235  0.2086 -0.5246 -0.3592
  102OSM   C13S10300   4.616   2.499   9.134  0.2297 -0.1301  0.1415
  102OSM   H13S10301   4.591   2.392   9.153  0.3212 -0.0113  0.9711
  102OSM   H13T10302   4.725   2.499   9.153  0.1911 -0.3864  0.3647
  102OSM   C14S10303   4.569   2.534   8.994 -0.3268 -0.0803 -0.3224
  102OSM   H14S10304   4.562   2.642   8.969  2.0454  0.2541  0.3719
  102OSM   H14T10305   4.463   2.498   8.993 -0.1647 -0.5405 -1.0137
  102OSM   C15S10306   4.645   2.458   8.878 -0.0959 -0.2530  1.4378
  102OSM   H15S10307   4.632   2.348   8.883 -0.9773 -0.2506 -0.5488
  102OSM   H15T10308   4.753   2.478   8.897  0.2266 -0.7543  0.2146
  102OSM   C16S10309   4.598   2.494   8.732  0.2523  0.1222  0.3689
  102OSM   H16S10310   4.669   2.457   8.655 -1.3693  1.8060 -2.0175
  102OSM   H16T10311   4.589   2.605   8.726 -0.6028 -0.0931 -4.2469
  102OSM   C17S10312   4.458   2.448   8.694 -0.1145 -0.0816 -0.6828
  102OSM   H17S10313   4.382   2.462   8.774 -0.7370 -0.7937 -1.1483
  102OSM   H17T10314   4.475   2.339   8.684  1.5075 -0.2591  3.2260
  102OSM   C18S10315   4.408   2.495   8.556  0.4283 -0.2980  0.0407
  102OSM   H18S10316   4.307   2.454   8.533  0.5566 -0.2911 -0.5395
  102OSM   H18T10317   4.466   2.455   8.471 -0.3308 -0.4469 -0.4116
  102OSM   H18U10318   4.405   2.606   8.558  0.3898 -0.2772 -0.8610
  102OSM    C1F10319   4.879   2.112  10.170 -0.4296 -0.2695 -0.8387
  102OSM     OF10320   4.795   2.030  10.214  0.2977  0.0356 -0.1027
  102OSM    C2F10321   5.005   2.074  10.097  0.2682  0.5268  0.4458
  102OSM    H2F10322   5.057   2.010  10.172 -0.3347  1.5843  1.7647
  102OSM    H2G10323   5.071   2.163  10.089  1.2231 -0.3657 -2.2772
  102OSM    C3F10324   4.978   1.995   9.965 -0.5576  0.2148 -0.1292
  102OSM    H3F10325   4.935   1.895   9.986 -1.0728  0.7116  1.2634
  102OSM    H3G10326   5.069   1.992   9.902 -0.3241 -0.0693  0.2176
  102OSM    C4F10327   4.891   2.073   9.871 -0.1846  0.2518 -0.2217
  102OSM    H4F10328   4.941   2.170   9.850  0.5323 -0.1673 -0.4789
  102OSM    H4G10329   4.788   2.099   9.903  0.5486  0.7653  1.8545
  102OSM    C5F10330   4.875   1.993   9.736 -0.1973 -0.6836  0.7091
  102OSM    H5F10331   4.795   1.917   9.750  0.6256 -1.3271  1.9691
  102OSM    H5G10332   4.976   1.962   9.700 -0.7829 -0.4547 -1.2080
  102OSM    C6F10333   4.829   2.089   9.620 -0.1471 -0.7681 -1.1537
  102OSM    H6F10334   4.924   2.125   9.576  1.9146 -3.3925  0.9284
  102OSM    H6G10335   4.782   2.175   9.672  0.2649 -1.4107  0.3160
  102OSM    C7F10336   4.733   2.024   9.521  0.1298 -0.4453 -0.3279
  102OSM    H7F10337   4.649   1.983   9.580  0.8404  0.7040  1.5359
  102OSM    H7G10338   4.788   1.944   9.468  2.4265  2.2530 -2.2002
  102OSM    C8F10339   4.663   2.113   9.411  0.4411 -0.1252  0.7314
  102OSM    H8F10340   4.606   2.188   9.470 -2.4111 -2.4586  1.0201
  102OSM    H8G10341   4.583   2.057   9.359  2.2328  0.5113 -2.8640
  102OSM    C9F10342   4.758   2.171   9.316  0.7083  0.1724  0.1676
  102OSM    H9F10343   4.826   2.238   9.370  0.2766  0.4452  0.3717
  102OSM   C10F10344   4.764   2.158   9.188 -0.0007  0.6532  0.4466
  102OSM   H10F10345   4.842   2.206   9.127  1.1313 -1.0943  0.4968
  102OSM   C11F10346   4.664   2.079   9.108 -0.4779 -0.4707 -0.1820
  102OSM   H11F10347   4.630   2.132   9.016 -2.4384 -0.4203  0.5443
  102OSM   H11G10348   4.571   2.061   9.165 -0.2343 -0.1222  0.3317
  102OSM   C12F10349   4.741   1.937   9.085 -0.8927 -0.3069  0.2440
  102OSM   H12F10350   4.660   1.867   9.057 -0.6286 -0.1096 -1.0661
  102OSM   H12G10351   4.786   1.892   9.176 -0.8209  0.6522  0.6950
  102OSM   C13F10352   4.855   1.948   8.979  0.2750  0.0834  0.5144
  102OSM   H13F10353   4.932   1.870   8.996 -1.5485 -1.7323  0.5950
  102OSM   H13G10354   4.890   2.053   8.992  1.5420 -0.3075  0.2448
  102OSM   C14F10355   4.801   1.935   8.839 -0.1292 -0.6586 -0.7926
  102OSM   H14F10356   4.722   2.013   8.830  0.1841 -0.0786  1.1493
  102OSM   H14G10357   4.760   1.832   8.837 -0.1221 -0.6729 -0.2727
  102OSM   C15F10358   4.898   1.968   8.729  0.2568  0.4034  0.5501
  102OSM   H15F10359   4.860   1.952   8.626  0.1649 -0.6791  0.7497
  102OSM   H15G10360   4.973   1.886   8.723 -1.3816 -1.0740 -0.1885
  102OSM   C16F10361   4.956   2.109   8.740  0.6068 -1.0277  0.5107
  102OSM   H16F10362   5.039   2.116   8.813  0.8498 -1.7177  0.3125
  102OSM   H16G10363   4.876   2.176   8.777  0.0947 -1.3234 -0.0505
  102OSM   C17F10364   5.009   2.157   8.604  0.2627 -0.4976 -0.2753
  102OSM   H17F10365   5.044   2.262   8.612  0.4425 -0.6753  1.5000
  102OSM   H17G10366   4.938   2.147   8.519  2.2546 -2.4576 -1.8077
  102OSM   C18F10367   5.124   2.075   8.562  0.3051 -0.3792  0.6387
  102OSM   H18F10368   5.186   2.139   8.496  0.2518  0.6316  1.5570
  102OSM   H18G10369   5.096   1.987   8.501 -0.3494  0.4412 -0.2700
  102OSM   H18H10370   5.188   2.052   8.650  0.7626  0.7077  0.5912
  103OSM      N10371   4.103   4.769  11.284 -0.0624 -0.0883 -0.7974
  103OSM    C1510372   4.116   4.898  11.355 -0.1310 -0.2019  0.1542
  103OSM   H15A10373   4.018   4.935  11.381 -0.8072 -2.1121  0.4132
  103OSM   H15B10374   4.181   4.967  11.302  0.2035 -0.5247  0.1435
  103OSM   H15C10375   4.151   4.885  11.456  1.6949  0.3513 -0.3794
  103OSM    C1410376   4.245   4.710  11.289 -0.3752 -0.3969 -0.4288
  103OSM   H14A10377   4.302   4.787  11.238  0.5441 -0.7177  0.1079
  103OSM   H14B10378   4.252   4.621  11.229 -0.9564 -2.3797  2.3700
  103OSM   H14C10379   4.280   4.674  11.384 -0.6538 -2.2928 -1.0203
  103OSM    C1310380   4.010   4.675  11.352 -0.0472 -1.1194 -0.0683
  103OSM   H13A10381   3.998   4.582  11.299 -0.7215 -0.3144 -1.3500
  103OSM   H13B10382   3.912   4.716  11.372  1.4926  1.4091  2.9726
  103OSM   H13C10383   4.043   4.649  11.452  1.5284  0.7334 -0.0635
  103OSM    C1210384   4.067   4.782  11.141 -0.2191 -0.5576  0.1218
  103OSM   H12A10385   4.058   4.687  11.089 -1.7217 -0.1985 -0.2910
  103OSM   H12B10386   4.149   4.829  11.089 -0.3261 -0.8732 -0.3354
  103OSM    C1110387   3.942   4.858  11.101 -0.9757  0.8026 -0.3905
  103OSM   H11A10388   3.950   4.966  11.126 -1.5303  0.9362 -0.7810
  103OSM   H11B10389   3.851   4.818  11.151 -0.0837  0.0098  0.6409
  103OSM      P10390   4.009   4.937  10.860 -0.1604  0.3395  0.2212
  103OSM    O1310391   4.147   4.958  10.910  0.3827  0.1681 -0.2817
  103OSM    O1410392   3.997   4.881  10.725 -0.4331  0.3305 -0.0809
  103OSM    O1110393   3.933   5.072  10.860 -0.2681 -0.2667 -0.7098
  103OSM    O1210394   3.931   4.842  10.963 -0.3973 -0.3188  0.0959
  103OSM    C1S10395   3.921   5.149  10.740 -0.2329  0.5138  0.3609
  103OSM    H1S10396   3.973   5.112  10.649  0.6143 -1.7173  1.7214
  103OSM    H1T10397   3.968   5.248  10.759 -0.4917  1.0938 -1.9085
  103OSM     NF10398   3.776   5.273  10.586  0.0100 -0.2210 -0.4116
  103OSM    HNF10399   3.781   5.372  10.599 -1.6610 -0.2316  0.3751
  103OSM    C2S10400   3.781   5.197  10.710 -0.1295  0.4129 -0.9530
  103OSM    H2S10401   3.718   5.106  10.697  0.3790  0.0392 -0.7789
  103OSM    C3S10402   3.723   5.271  10.837  0.2310 -0.0835 -0.3326
  103OSM    H3S10403   3.794   5.354  10.857  2.1098 -1.9312  0.8251
  103OSM     O310404   3.715   5.196  10.965 -0.0808 -0.6314  0.1358
  103OSM    HO310405   3.756   5.113  10.942  1.5699  0.5412 -1.2411
  103OSM    C4S10406   3.581   5.325  10.808 -0.3329  0.2118 -0.4949
  103OSM    H4S10407   3.500   5.256  10.781 -1.2022  0.9498  0.1699
  103OSM    C5S10408   3.544   5.455  10.791 -0.2590 -0.2380  0.8156
  103OSM    H5S10409   3.622   5.532  10.799 -0.0020 -0.4086 -0.0538
  103OSM    C6S10410   3.408   5.500  10.754 -0.1974 -0.6875  0.8257
  103OSM    H6S10411   3.352   5.526  10.847 -2.1599 -0.9794 -0.2546
  103OSM    H6T10412   3.363   5.415  10.699  1.7877  0.3379 -2.4799
  103OSM    C7S10413   3.416   5.628  10.670 -0.1238 -0.1431  0.6696
  103OSM    H7S10414   3.448   5.720  10.724 -0.8544 -0.0874  1.0222
  103OSM    H7T10415   3.310   5.642  10.637 -0.3658 -2.6005  0.3341
  103OSM    C8S10416   3.490   5.634  10.531 -0.0175  0.1608 -0.2682
  103OSM    H8S10417   3.595   5.602  10.546 -0.1470  0.2009  0.7707
  103OSM    H8T10418   3.498   5.740  10.498  1.5872  0.4926  1.1133
  103OSM    C9S10419   3.430   5.545  10.420  0.3773  0.5822 -0.1243
  103OSM    H9S10420   3.417   5.442  10.458 -2.4854  1.4743  1.4333
  103OSM    H9T10421   3.501   5.559  10.335  1.8060 -0.6967  0.8415
  103OSM   C10S10422   3.291   5.590  10.375 -0.2353  0.6135 -0.1764
  103OSM   H10S10423   3.271   5.699  10.378 -0.2376  0.7018 -2.5370
  103OSM   H10T10424   3.226   5.541  10.450  0.0355  0.8511  0.2120
  103OSM   C11S10425   3.250   5.551  10.232 -0.0009 -0.4107  0.5031
  103OSM   H11S10426   3.140   5.556  10.222 -0.1714  0.0065  2.4987
  103OSM   H11T10427   3.288   5.447  10.221  0.9927 -0.1595  1.4499
  103OSM   C12S10428   3.312   5.647  10.126  0.0866 -0.0335 -0.4852
  103OSM   H12S10429   3.422   5.639  10.139  0.3619  1.1956 -1.8793
  103OSM   H12T10430   3.271   5.748  10.150 -0.0200 -0.3893  0.8564
  103OSM   C13S10431   3.261   5.598   9.990  0.8188 -0.1392 -0.7233
  103OSM   H13S10432   3.151   5.590   9.994  0.8134  0.6773  1.3642
  103OSM   H13T10433   3.293   5.494   9.967 -0.5434 -0.6055 -0.5127
  103OSM   C14S10434   3.294   5.702   9.879  0.5167  0.6488  0.4220
  103OSM   H14S10435   3.405   5.704   9.876  0.5531 -0.8929  0.4566
  103OSM   H14T10436   3.258   5.802   9.910  0.0459  0.5847  0.0774
  103OSM   C15S10437   3.234   5.657   9.751  0.3412  0.1601  0.0631
  103OSM   H15S10438   3.128   5.688   9.740 -0.8666 -2.9833  2.0262
  103OSM   H15T10439   3.231   5.546   9.748  1.5724  0.0221  2.6469
  103OSM   C16S10440   3.322   5.708   9.627 -0.1155  0.1709  0.6266
  103OSM   H16S10441   3.408   5.638   9.628 -1.7471 -1.9010 -0.3171
  103OSM   H16T10442   3.357   5.810   9.651  2.1634 -0.7146  1.1850
  103OSM   C17S10443   3.247   5.689   9.498  0.0745 -0.1680 -0.1284
  103OSM   H17S10444   3.144   5.728   9.509 -0.4596 -1.6504  0.1713
  103OSM   H17T10445   3.253   5.581   9.474  0.9595  0.0089 -0.7416
  103OSM   C18S10446   3.321   5.758   9.385 -0.4404  0.0286  0.7718
  103OSM   H18S10447   3.309   5.865   9.410 -0.0487  0.7376 -1.8918
  103OSM   H18T10448   3.267   5.740   9.289 -0.5045  1.4073  0.5413
  103OSM   H18U10449   3.427   5.727   9.390  0.4014  2.2291 -2.2155
  103OSM    C1F10450   3.771   5.220  10.472 -0.4446  0.1071  0.5246
  103OSM     OF10451   3.766   5.097  10.463 -0.1240 -0.5400  1.2959
  103OSM    C2F10452   3.778   5.308  10.354  0.8826 -0.6265 -0.2581
  103OSM    H2F10453   3.883   5.320  10.319  1.1916 -2.8510 -0.1811
  103OSM    H2G10454   3.751   5.410  10.389  0.6869 -1.3542  1.7446
  103OSM    C3F10455   3.683   5.266  10.238 -0.4694 -0.7032  0.2225
  103OSM    H3F10456   3.582   5.261  10.284 -0.5720  0.1232  0.0954
  103OSM    H3G10457   3.696   5.165  10.194 -2.4444 -0.7848 -0.1970
  103OSM    C4F10458   3.689   5.368  10.120  0.2241  0.4825 -0.0578
  103OSM    H4F10459   3.798   5.357  10.105  0.2508 -0.6393  0.8279
  103OSM    H4G10460   3.661   5.474  10.138 -2.4277 -0.4593  1.7319
  103OSM    C5F10461   3.597   5.324  10.001 -0.6099 -0.6528 -0.3451
  103OSM    H5F10462   3.496   5.369  10.014  0.3285  2.1820 -2.3994
  103OSM    H5G10463   3.584   5.214   9.996 -0.2591 -0.6045 -2.7666
  103OSM    C6F10464   3.648   5.378   9.866  0.2380  0.3607 -0.1628
  103OSM    H6F10465   3.733   5.323   9.821 -0.4738 -1.7212  0.9852
  103OSM    H6G10466   3.655   5.488   9.877  0.0278  0.1944  1.8566
  103OSM    C7F10467   3.544   5.362   9.756  0.0288  0.3434 -0.0930
  103OSM    H7F10468   3.572   5.434   9.675 -1.5768 -0.4085 -1.3463
  103OSM    H7G10469   3.441   5.378   9.795  0.6241  2.6999  0.6104
  103OSM    C8F10470   3.551   5.222   9.688  0.8556 -0.0728  0.2436
  103OSM    H8F10471   3.559   5.146   9.768  1.6546  1.2168  1.4303
  103OSM    H8G10472   3.652   5.217   9.641  1.2240  0.3501  0.9720
  103OSM    C9F10473   3.442   5.198   9.585 -0.5598  0.5531  0.0899
  103OSM    H9F10474   3.365   5.123   9.608 -2.3250  2.4206  0.4624
  103OSM   C10F10475   3.445   5.250   9.465  0.3839  0.2821 -0.4583
  103OSM   H10F10476   3.368   5.211   9.396 -1.8358  1.0455  1.4953
  103OSM   C11F10477   3.541   5.355   9.412 -0.3031 -0.6270  0.1404
  103OSM   H11F10478   3.649   5.331   9.398 -0.2424  0.0297 -0.5745
  103OSM   H11G10479   3.524   5.438   9.484  0.0015 -0.6390  0.2324
  103OSM   C12F10480   3.491   5.412   9.278 -0.5617  0.0404  0.4166
  103OSM   H12F10481   3.528   5.517   9.270 -0.2202  0.0711  2.1116
  103OSM   H12G10482   3.383   5.436   9.269 -0.5549 -0.1899 -0.3028
  103OSM   C13F10483   3.529   5.328   9.154  0.1820  0.7054 -0.0321
  103OSM   H13F10484   3.498   5.221   9.152 -2.3055  1.3762  0.8288
  103OSM   H13G10485   3.639   5.326   9.146  0.1169 -1.3694 -0.7684
  103OSM   C14F10486   3.465   5.379   9.031 -0.6732  0.4959 -1.1855
  103OSM   H14F10487   3.467   5.490   9.029  1.4069  0.4847 -1.3055
  103OSM   H14G10488   3.357   5.355   9.022 -1.1307  1.6739  0.9588
  103OSM   C15F10489   3.528   5.325   8.903 -0.0927  0.3933  0.0628
  103OSM   H15F10490   3.543   5.216   8.917  3.1380  0.6382 -1.1820
  103OSM   H15G10491   3.629   5.369   8.886  1.1373 -1.4205  2.3560
  103OSM   C16F10492   3.441   5.353   8.780  0.3825  0.2349 -0.7536
  103OSM   H16F10493   3.425   5.463   8.776 -4.2210 -0.3699 -1.1556
  103OSM   H16G10494   3.344   5.308   8.811 -0.4423  0.2949 -3.1353
  103OSM   C17F10495   3.492   5.280   8.662 -0.0714  0.3320  0.0524
  103OSM   H17F10496   3.415   5.305   8.585  1.5121 -0.5082 -1.8405
  103OSM   H17G10497   3.493   5.171   8.683 -1.5720  0.4994  1.0834
  103OSM   C18F10498   3.624   5.328   8.601 -0.1355 -0.5861 -0.2539
  103OSM   H18F10499   3.640   5.438   8.593 -1.0238 -0.4049  0.3765
  103OSM   H18G10500   3.640   5.300   8.494  1.2411  0.2181 -0.2646
  103OSM   H18H10501   3.712   5.291   8.657 -1.7765  0.5624  3.2553
  104OSM      N10502   5.260   4.768  11.070 -0.1484  0.7028 -0.3313
  104OSM    C1510503   5.151   4.809  11.160  0.1383  0.0527 -0.8490
  104OSM   H15A10504   5.190   4.801  11.260 -0.3183  0.9577 -0.5908
  104OSM   H15B10505   5.058   4.756  11.148  1.7133 -2.4338 -2.8017
  104OSM   H15C10506   5.140   4.916  11.166  2.7737  0.2659  0.8214
  104OSM    C1410507   5.215   4.808  10.936  0.2556  0.8640  0.0801
  104OSM   H14A10508   5.293   4.789  10.865  0.8265  0.9117  0.6885
  104OSM   H14B10509   5.184   4.912  10.933  0.5598  0.9599  0.2553
  104OSM   H14C10510   5.132   4.751  10.897  0.5124  1.5354 -1.4900
  104OSM    C1310511   5.383   4.847  11.097  0.4306  0.3546 -0.1652
  104OSM   H13A10512   5.451   4.855  11.013 -0.3474 -0.9304 -0.9294
  104OSM   H13B10513   5.436   4.793  11.174 -0.2094  1.0261  0.7555
  104OSM   H13C10514   5.360   4.950  11.121 -1.7084  0.0850 -0.9386
  104OSM    C1210515   5.273   4.617  11.086  0.4616  0.3768  0.5946
  104OSM   H12A10516   5.191   4.574  11.030  0.5364 -0.6573  1.2759
  104OSM   H12B10517   5.263   4.581  11.187  0.6201  2.3416  1.3334
  104OSM    C1110518   5.399   4.542  11.041  0.4226 -0.0092  0.1801
  104OSM   H11A10519   5.383   4.437  11.074 -0.7606  0.0524 -0.1483
  104OSM   H11B10520   5.484   4.574  11.105 -0.4028 -0.1226  1.3477
  104OSM      P10521   5.543   4.625  10.836  0.1828 -0.1530 -0.5669
  104OSM    O1310522   5.518   4.770  10.832 -0.6113 -0.5057 -0.1705
  104OSM    O1410523   5.676   4.577  10.893  0.0910  0.2098  0.0317
  104OSM    O1110524   5.522   4.566  10.689  0.3415 -0.2104  0.0626
  104OSM    O1210525   5.428   4.556  10.906 -0.5001  0.4121  0.6917
  104OSM    C1S10526   5.401   4.600  10.619  0.8343  0.9518 -0.2603
  104OSM    H1S10527   5.368   4.702  10.646  1.3786  0.9085  0.5885
  104OSM    H1T10528   5.330   4.520  10.652  2.4710  0.1750  1.4994
  104OSM     NF10529   5.301   4.642  10.392 -0.2788  0.2707 -0.0132
  104OSM    HNF10530   5.242   4.587  10.334 -2.5525  1.8268  0.7277
  104OSM    C2S10531   5.412   4.585  10.461 -0.6311 -0.7214  0.4805
  104OSM    H2S10532   5.504   4.644  10.439  0.0416 -1.8058  0.3769
  104OSM    C3S10533   5.445   4.439  10.420 -0.2920 -0.7097  0.0376
  104OSM    H3S10534   5.368   4.373  10.467 -0.8712  1.2108  1.8500
  104OSM     O310535   5.576   4.402  10.469  0.1570  0.4995  0.3241
  104OSM    HO310536   5.589   4.467  10.539 -1.1945 -1.3655  2.3420
  104OSM    C4S10537   5.433   4.413  10.276  0.1958 -0.1900  0.1353
  104OSM    H4S10538   5.359   4.337  10.244  1.6178 -1.1121 -1.0127
  104OSM    C5S10539   5.498   4.486  10.181 -0.7151 -0.4394 -0.1320
  104OSM    H5S10540   5.581   4.547  10.219 -0.2110 -1.6012  0.6563
  104OSM    C6S10541   5.490   4.475  10.035  0.3169  0.3093 -0.6869
  104OSM    H6S10542   5.525   4.372  10.011  0.8138  0.1711  0.5937
  104OSM    H6T10543   5.560   4.547   9.989 -0.8864  1.1231 -1.2624
  104OSM    C7S10544   5.352   4.507   9.982 -0.1695 -0.1019  1.0407
  104OSM    H7S10545   5.321   4.607  10.020 -2.3292 -0.1066 -0.5860
  104OSM    H7T10546   5.292   4.429  10.032 -1.1154 -1.3391 -1.9396
  104OSM    C8S10547   5.322   4.487   9.829  0.1394  0.0544  0.5124
  104OSM    H8S10548   5.358   4.572   9.767 -0.4653 -0.7703 -0.9989
  104OSM    H8T10549   5.213   4.486   9.808  0.1056 -0.6843  0.7146
  104OSM    C9S10550   5.390   4.354   9.783 -0.4170 -0.3329 -0.3557
  104OSM    H9S10551   5.369   4.275   9.859 -0.1861  1.5316  1.6755
  104OSM    H9T10552   5.498   4.380   9.783 -0.4318 -0.2470 -1.1674
  104OSM   C10S10553   5.348   4.302   9.649  0.3742 -0.3422  0.2956
  104OSM   H10S10554   5.239   4.281   9.644  0.1997  1.0774 -3.2862
  104OSM   H10T10555   5.412   4.212   9.633  0.9007  0.1875 -0.6358
  104OSM   C11S10556   5.387   4.398   9.537 -0.4755  0.3037  0.4201
  104OSM   H11S10557   5.495   4.414   9.554  0.0273 -0.8637 -1.5057
  104OSM   H11T10558   5.333   4.495   9.549 -0.8889  0.1532 -0.1887
  104OSM   C12S10559   5.361   4.325   9.405  0.6247  0.7414 -0.1310
  104OSM   H12S10560   5.251   4.329   9.386  0.9303 -0.5610 -2.4125
  104OSM   H12T10561   5.399   4.221   9.399  0.9925  0.8247  0.7833
  104OSM   C13S10562   5.425   4.400   9.286  0.0226  0.2789  0.2024
  104OSM   H13S10563   5.535   4.400   9.301 -0.0835 -1.6237  1.1896
  104OSM   H13T10564   5.397   4.506   9.301  1.7634  0.7514  0.2594
  104OSM   C14S10565   5.380   4.336   9.155  0.3943  0.1712  0.0065
  104OSM   H14S10566   5.273   4.359   9.171  0.7853  1.0914  1.4449
  104OSM   H14T10567   5.391   4.225   9.151 -3.0760 -0.2386  0.1848
  104OSM   C15S10568   5.438   4.398   9.032  0.0205  0.1339 -0.5142
  104OSM   H15S10569   5.548   4.387   9.038  0.0973  1.7711  2.0296
  104OSM   H15T10570   5.431   4.509   9.040  0.2676  0.2497 -1.8004
  104OSM   C16S10571   5.384   4.367   8.893  0.3579 -0.1439 -0.4246
  104OSM   H16S10572   5.354   4.260   8.886 -0.9902  0.2260 -0.5233
  104OSM   H16T10573   5.464   4.378   8.817  1.3685  0.3440  0.6925
  104OSM   C17S10574   5.265   4.452   8.855  0.4585  0.5458  0.1662
  104OSM   H17S10575   5.308   4.552   8.834  1.5797 -0.1076 -0.6984
  104OSM   H17T10576   5.189   4.456   8.936 -2.0688  1.1470 -2.1731
  104OSM   C18S10577   5.189   4.420   8.730 -0.1068  0.0324 -0.4414
  104OSM   H18S10578   5.133   4.329   8.762 -1.0950  1.0586  0.7632
  104OSM   H18T10579   5.261   4.391   8.650 -0.0448  0.2867 -0.4770
  104OSM   H18U10580   5.125   4.502   8.691 -1.1629  0.5467  2.2818
  104OSM    C1F10581   5.278   4.773  10.391  0.8261  0.6553  0.3202
  104OSM     OF10582   5.327   4.849  10.472  0.0696  0.0523 -0.0174
  104OSM    C2F10583   5.187   4.822  10.280 -0.5519 -0.4133  0.8060
  104OSM    H2F10584   5.085   4.782  10.300 -0.0058 -1.6565  1.1914
  104OSM    H2G10585   5.227   4.788  10.182 -1.7265 -1.1615  0.5606
  104OSM    C3F10586   5.185   4.971  10.294  0.9474  0.4267  0.0482
  104OSM    H3F10587   5.283   5.017  10.269  1.7026 -1.8060 -1.3247
  104OSM    H3G10588   5.158   5.001  10.397 -0.2777  0.1287 -0.1719
  104OSM    C4F10589   5.086   5.046  10.193 -0.2146 -0.1936 -0.9414
  104OSM    H4F10590   5.121   5.149  10.172 -2.3740  0.4195 -1.7071
  104OSM    H4G10591   4.991   5.058  10.248  1.2299 -2.4373  2.1927
  104OSM    C5F10592   5.072   4.970  10.058 -0.2361 -0.5052  0.5159
  104OSM    H5F10593   5.000   5.025   9.993 -0.8190 -1.1949  0.5625
  104OSM    H5G10594   5.027   4.869  10.073  1.1439 -1.0455  1.1357
  104OSM    C6F10595   5.210   4.977   9.979 -0.0173 -0.1341 -0.0590
  104OSM    H6F10596   5.293   4.961  10.052 -2.0584  2.3567  2.9443
  104OSM    H6G10597   5.220   5.084   9.951 -4.3201  0.2906 -0.2735
  104OSM    C7F10598   5.201   4.885   9.858 -0.1492  0.4442 -0.1581
  104OSM    H7F10599   5.108   4.911   9.804 -2.2434 -1.1725  2.5904
  104OSM    H7G10600   5.193   4.779   9.889 -0.3637 -0.1216 -2.0907
  104OSM    C8F10601   5.320   4.922   9.762 -0.0927  0.2495 -0.3874
  104OSM    H8F10602   5.331   4.831   9.699 -3.6914  0.1589 -0.9877
  104OSM    H8G10603   5.407   4.929   9.830 -0.6562  0.9077  0.2652
  104OSM    C9F10604   5.310   5.049   9.685 -0.1892  0.0820  0.6098
  104OSM    H9F10605   5.355   5.135   9.738 -1.5295  0.2700  1.4657
  104OSM   C10F10606   5.279   5.060   9.552 -0.3198  0.5136 -0.3970
  104OSM   H10F10607   5.278   5.159   9.505 -0.6464  0.8077  0.2242
  104OSM   C11F10608   5.237   4.946   9.460 -0.3117  0.2740 -0.7474
  104OSM   H11F10609   5.132   4.968   9.431 -0.8462  0.6044  1.3680
  104OSM   H11G10610   5.251   4.847   9.508  1.2039  0.7336 -0.1787
  104OSM   C12F10611   5.301   4.939   9.323  0.3563  0.1185  0.2983
  104OSM   H12F10612   5.411   4.948   9.337  0.4204 -0.8753  0.4657
  104OSM   H12G10613   5.267   5.027   9.264  0.8803 -0.9384 -1.6264
  104OSM   C13F10614   5.280   4.808   9.248  0.3649  0.8796 -0.0500
  104OSM   H13F10615   5.172   4.794   9.224  0.1263 -1.8240  2.2248
  104OSM   H13G10616   5.317   4.723   9.310  1.8224  0.1171 -1.9213
  104OSM   C14F10617   5.350   4.787   9.115 -0.6557 -0.3979 -0.3141
  104OSM   H14F10618   5.327   4.686   9.076  0.3322 -0.3773 -0.9811
  104OSM   H14G10619   5.460   4.794   9.131 -0.5390  1.1495 -1.5882
  104OSM   C15F10620   5.320   4.903   9.026 -1.2983  0.1517 -0.2224
  104OSM   H15F10621   5.347   5.000   9.073 -0.6903 -0.2203  0.2028
  104OSM   H15G10622   5.209   4.909   9.018 -1.3419 -1.0735 -0.7373
  104OSM   C16F10623   5.377   4.901   8.885 -0.1263  0.4188 -0.1041
  104OSM   H16F10624   5.334   4.815   8.829 -0.2659 -0.2304  0.9814
  104OSM   H16G10625   5.487   4.883   8.887 -0.2466 -0.3569 -0.1806
  104OSM   C17F10626   5.343   5.025   8.806 -0.3959 -0.1161  0.2723
  104OSM   H17F10627   5.367   5.113   8.869 -0.9693 -1.5660  2.5868
  104OSM   H17G10628   5.236   5.024   8.780 -0.7890  0.4307  1.8151
  104OSM   C18F10629   5.417   5.023   8.673  0.1366  0.1903  0.1882
  104OSM   H18F10630   5.512   5.077   8.688  0.4799 -0.9427  2.2027
  104OSM   H18G10631   5.356   5.066   8.591 -0.9847 -0.8199  0.4613
  104OSM   H18H10632   5.454   4.921   8.648 -1.2573 -0.3056  0.0958
  105OSM      N10633   1.929   1.014  11.092 -0.0805  0.0047 -0.0000
  105OSM    C1510634   2.006   1.114  11.169 -0.2427 -0.3428 -0.1216
  105OSM   H15A10635   2.100   1.137  11.122 -0.0697  1.2812  0.9853
  105OSM   H15B10636   2.023   1.089  11.273 -3.9857  0.1206  0.7033
  105OSM   H15C10637   1.948   1.205  11.172 -0.5448 -0.4829 -1.3248
  105OSM    C1410638   1.815   0.971  11.170 -0.2258  0.4731  0.4105
  105OSM   H14A10639   1.763   0.902  11.105 -0.5531  0.0705  1.0823
  105OSM   H14B10640   1.742   1.049  11.190 -1.2525 -0.6977  1.3362
  105OSM   H14C10641   1.854   0.924  11.260 -0.3014  1.1597  0.8050
  105OSM    C1310642   1.889   1.076  10.966  0.4265 -0.0344  0.0901
  105OSM   H13A10643   1.795   1.129  10.968  0.6131  0.2469  1.5256
  105OSM   H13B10644   1.888   0.999  10.890 -0.9195 -1.4136  1.4784
  105OSM   H13C10645   1.961   1.149  10.932  1.1429 -0.7241  0.1125
  105OSM    C1210646   2.031   0.898  11.087  0.0785  0.0270 -0.3783
  105OSM   H12A10647   2.083   0.885  11.181 -1.0254 -2.6561 -0.0945
  105OSM   H12B10648   2.109   0.932  11.022 -0.5961 -1.8017 -2.1988
  105OSM    C1110649   1.981   0.772  11.024 -0.6792  1.1981 -0.0419
  105OSM   H11A10650   1.887   0.737  11.074 -1.3745  1.1613 -1.3536
  105OSM   H11B10651   2.051   0.690  11.051 -0.1142  1.3744 -0.9589
  105OSM      P10652   2.065   0.729  10.787 -0.0823  0.3495  0.2005
  105OSM    O1310653   2.187   0.819  10.794 -0.3288  0.3202 -0.2610
  105OSM    O1410654   2.083   0.585  10.810 -0.1838 -0.0319  0.4955
  105OSM    O1110655   2.000   0.731  10.643 -0.0011 -0.4843 -0.1340
  105OSM    O1210656   1.947   0.786  10.881 -0.2766  0.3721  0.1504
  105OSM    C1S10657   1.896   0.808  10.597 -0.1427  0.1492 -0.3783
  105OSM    H1S10658   1.907   0.914  10.626  0.2156  0.0513 -0.1587
  105OSM    H1T10659   1.801   0.770  10.639 -0.1525 -0.7206 -1.1539
  105OSM     NF10660   1.777   0.882  10.395  0.2828  0.7054 -0.4005
  105OSM    HNF10661   1.682   0.859  10.414  1.0584 -0.9515  1.6865
  105OSM    C2S10662   1.877   0.787  10.442 -0.6612  0.3020 -0.7009
  105OSM    H2S10663   1.970   0.813  10.387 -0.2693  0.1828 -0.1087
  105OSM    C3S10664   1.833   0.648  10.408  0.0982 -0.3249 -0.2307
  105OSM    H3S10665   1.731   0.632  10.450 -1.9340  0.4478 -4.5535
  105OSM     O310666   1.909   0.538  10.461 -0.9734  0.0829 -0.5449
  105OSM    HO310667   1.967   0.578  10.526 -0.1489 -6.0281  2.9564
  105OSM    C4S10668   1.834   0.639  10.250 -0.1706  0.0598 -0.1838
  105OSM    H4S10669   1.933   0.654  10.203 -0.1187  0.3618  0.0176
  105OSM    C5S10670   1.718   0.621  10.180  0.8428  0.1913 -0.0480
  105OSM    H5S10671   1.621   0.613  10.231  0.6117 -1.7391 -0.7426
  105OSM    C6S10672   1.698   0.632  10.029 -0.3574  0.5248 -1.2045
  105OSM    H6S10673   1.617   0.703  10.004 -0.1578  1.0517 -0.3913
  105OSM    H6T10674   1.681   0.528   9.992  0.1415 -0.4251  1.1480
  105OSM    C7S10675   1.824   0.684   9.953  0.0062  0.1656  0.0641
  105OSM    H7S10676   1.909   0.616   9.972 -0.1896 -0.4720 -1.2462
  105OSM    H7T10677   1.860   0.782   9.992  1.1708 -0.8247  1.5186
  105OSM    C8S10678   1.783   0.682   9.800  0.1077  0.4871 -0.6023
  105OSM    H8S10679   1.723   0.774   9.783  0.8156  1.0506 -0.0800
  105OSM    H8T10680   1.726   0.594   9.763  0.2051  0.9368 -1.8493
  105OSM    C9S10681   1.914   0.675   9.717  0.0863  0.1006 -0.0359
  105OSM    H9S10682   1.971   0.591   9.763  4.1258  2.1380 -1.0493
  105OSM    H9T10683   1.973   0.768   9.730 -0.1401  0.0245  1.6102
  105OSM   C10S10684   1.874   0.652   9.567  0.2990 -0.0838  0.1453
  105OSM   H10S10685   1.840   0.741   9.511 -0.4043  0.3597  1.2632
  105OSM   H10T10686   1.782   0.589   9.567  1.4663 -1.8524  1.9456
  105OSM   C11S10687   1.989   0.583   9.484  0.5149  0.4002 -0.0849
  105OSM   H11S10688   1.995   0.478   9.518 -2.4093 -0.1683 -1.1913
  105OSM   H11T10689   2.087   0.631   9.505  0.7794  0.3794 -1.2414
  105OSM   C12S10690   1.957   0.580   9.337 -0.4104 -0.1893 -0.4123
  105OSM   H12S10691   1.920   0.678   9.299  0.2797  0.9778  1.8369
  105OSM   H12T10692   1.867   0.516   9.320  0.9228 -2.4902  1.0086
  105OSM   C13S10693   2.069   0.536   9.245 -0.5315 -0.2344 -0.0955
  105OSM   H13S10694   2.100   0.430   9.260 -0.8603 -0.2230  0.7179
  105OSM   H13T10695   2.156   0.602   9.268 -0.6018 -0.1700 -0.0161
  105OSM   C14S10696   2.036   0.559   9.098  0.3796 -0.1488 -0.3129
  105OSM   H14S10697   2.050   0.665   9.067 -1.8240  0.4315  0.6120
  105OSM   H14T10698   1.931   0.530   9.077  1.0585 -3.2465  0.3256
  105OSM   C15S10699   2.117   0.473   8.993  0.7000 -0.2629  0.0998
  105OSM   H15S10700   2.105   0.370   9.033 -1.8032  0.1832  0.5990
  105OSM   H15T10701   2.219   0.516   9.002 -0.0953  1.4185  1.4045
  105OSM   C16S10702   2.066   0.502   8.858 -0.2243  1.2879  0.1806
  105OSM   H16S10703   1.983   0.575   8.861  0.0803  1.5947  1.4120
  105OSM   H16T10704   2.031   0.409   8.807 -0.0376  0.3044  1.8096
  105OSM   C17S10705   2.171   0.544   8.765 -0.1397 -0.1535 -1.1223
  105OSM   H17S10706   2.245   0.462   8.774  0.1807  0.3816  1.4978
  105OSM   H17T10707   2.214   0.642   8.796 -0.1581 -1.3003  2.7462
  105OSM   C18S10708   2.114   0.560   8.622 -0.0542  0.5079  0.4190
  105OSM   H18S10709   2.200   0.575   8.554  0.8291  0.1477  1.4339
  105OSM   H18T10710   2.048   0.649   8.618 -1.0065 -0.2630 -1.5411
  105OSM   H18U10711   2.046   0.474   8.601  2.7531 -1.8301  0.5250
  105OSM    C1F10712   1.805   1.010  10.375  0.7911  0.2351 -0.4148
  105OSM     OF10713   1.920   1.060  10.390  0.2507  0.0057 -0.1759
  105OSM    C2F10714   1.693   1.099  10.337  0.2934  0.0686  0.6685
  105OSM    H2F10715   1.676   1.165  10.425 -0.6109  1.9011 -0.8426
  105OSM    H2G10716   1.603   1.039  10.311  1.6117 -0.3587 -3.1441
  105OSM    C3F10717   1.730   1.185  10.209 -0.1171 -0.1041 -0.4069
  105OSM    H3F10718   1.830   1.224  10.238 -0.0413  0.0031 -0.8114
  105OSM    H3G10719   1.669   1.276  10.192 -1.6459 -1.2627 -1.2142
  105OSM    C4F10720   1.744   1.104  10.084 -0.2200 -0.0777  1.0504
  105OSM    H4F10721   1.655   1.038  10.082 -0.6599  0.4975  1.5125
  105OSM    H4G10722   1.833   1.038  10.098  0.6241  0.8705  0.2493
  105OSM    C5F10723   1.759   1.189   9.952  0.0647 -0.0649  0.1662
  105OSM    H5F10724   1.852   1.248   9.965 -1.5277  2.7154 -0.5875
  105OSM    H5G10725   1.672   1.253   9.927 -1.5500 -1.7697  1.2211
  105OSM    C6F10726   1.790   1.093   9.833  0.3057  0.1162 -0.3354
  105OSM    H6F10727   1.724   1.005   9.845 -0.1682  0.4042 -0.8603
  105OSM    H6G10728   1.887   1.046   9.863 -0.9347 -2.1107  0.2935
  105OSM    C7F10729   1.793   1.163   9.699 -0.0239  0.2529 -0.4945
  105OSM    H7F10730   1.848   1.260   9.701 -0.1245  0.3532 -2.1767
  105OSM    H7G10731   1.684   1.184   9.687 -0.4595 -2.1597 -1.0738
  105OSM    C8F10732   1.829   1.074   9.575  0.0053  0.0190  0.4992
  105OSM    H8F10733   1.767   0.982   9.580 -0.8238  0.6326  1.5730
  105OSM    H8G10734   1.936   1.047   9.579  0.1515  0.1939 -1.3964
  105OSM    C9F10735   1.786   1.145   9.446 -0.1035 -0.0846 -0.4195
  105OSM    H9F10736   1.702   1.213   9.465  0.0396  0.6403 -2.3309
  105OSM   C10F10737   1.839   1.117   9.324 -0.0564 -0.4704  0.8615
  105OSM   H10F10738   1.806   1.176   9.237  3.7789  2.0230  0.9692
  105OSM   C11F10739   1.949   1.013   9.295 -0.8417  0.6020 -0.4183
  105OSM   H11F10740   1.905   0.928   9.240  1.0820  0.1392 -1.2986
  105OSM   H11G10741   2.002   0.982   9.388  4.4214  1.7002 -2.8473
  105OSM   C12F10742   2.055   1.077   9.209  0.3525  1.2608 -0.0019
  105OSM   H12F10743   2.137   1.106   9.278 -0.8237 -0.1791  2.0326
  105OSM   H12G10744   2.021   1.158   9.140  1.0896  1.5900  0.0067
  105OSM   C13F10745   2.134   0.981   9.114  0.2267  0.2918 -0.3480
  105OSM   H13F10746   2.067   0.912   9.058  1.2794 -0.6818 -0.4369
  105OSM   H13G10747   2.212   0.922   9.167 -0.6670  0.5283  1.2746
  105OSM   C14F10748   2.214   1.048   8.998  0.4794  0.0318  0.7442
  105OSM   H14F10749   2.302   0.986   8.970  0.6903  0.3049  0.7986
  105OSM   H14G10750   2.250   1.143   9.042 -0.9336  1.1300 -0.4388
  105OSM   C15F10751   2.136   1.074   8.866 -0.7319  0.2196 -0.4644
  105OSM   H15F10752   2.030   1.096   8.892 -0.9030 -0.8150 -0.2653
  105OSM   H15G10753   2.132   0.973   8.819 -0.9632  0.4528 -0.9469
  105OSM   C16F10754   2.210   1.175   8.776 -0.6112 -0.2086 -0.0581
  105OSM   H16F10755   2.158   1.183   8.679 -1.4655 -1.4866  0.2821
  105OSM   H16G10756   2.311   1.137   8.749 -1.0964  0.0818 -2.3616
  105OSM   C17F10757   2.220   1.315   8.841 -0.4286  0.0622  0.2840
  105OSM   H17F10758   2.299   1.317   8.919  0.2906 -0.3267 -0.4184
  105OSM   H17G10759   2.119   1.341   8.878 -0.4264  0.2581  0.1542
  105OSM   C18F10760   2.272   1.415   8.733 -0.1975 -0.3121  0.4973
  105OSM   H18F10761   2.201   1.421   8.648  0.8100  0.3728 -0.3002
  105OSM   H18G10762   2.360   1.366   8.687 -0.4058 -1.5230  1.3383
  105OSM   H18H10763   2.304   1.515   8.769  0.1697 -0.2851  0.0933
  106OSM      N10764   0.475   0.359  10.729  1.0716 -0.3582 -0.0814
  106OSM    C1510765   0.333   0.323  10.698  0.6710 -1.1690  0.0006
  106OSM   H15A10766   0.278   0.394  10.639 -0.1552 -0.4869  1.5874
  106OSM   H15B10767   0.272   0.305  10.785  0.1942 -2.5625 -0.6032
  106OSM   H15C10768   0.324   0.226  10.651 -2.4841 -0.6977 -0.4379
  106OSM    C1410769   0.479   0.483  10.815 -0.1257 -0.2769 -0.7649
  106OSM   H14A10770   0.578   0.525  10.823  0.2344 -1.3444  0.5157
  106OSM   H14B10771   0.453   0.462  10.918  0.0131  0.0854 -0.6552
  106OSM   H14C10772   0.414   0.559  10.773 -3.7991 -2.9633 -0.1915
  106OSM    C1310773   0.546   0.250  10.808 -0.3138  0.0397  0.4448
  106OSM   H13A10774   0.646   0.281  10.833  0.8587 -1.8230 -1.6940
  106OSM   H13B10775   0.552   0.167  10.739  1.7292  1.6887 -1.4395
  106OSM   H13C10776   0.494   0.232  10.900 -0.1756 -1.0635  0.3118
  106OSM    C1210777   0.553   0.388  10.605 -0.1038 -0.3899 -0.7800
  106OSM   H12A10778   0.504   0.470  10.553 -0.9286 -0.4151 -0.0419
  106OSM   H12B10779   0.551   0.302  10.539  2.3110 -0.5529 -0.6896
  106OSM    C1110780   0.696   0.446  10.614  0.3848 -0.1646 -0.1943
  106OSM   H11A10781   0.751   0.429  10.519  0.5330 -1.6453  0.1480
  106OSM   H11B10782   0.748   0.378  10.685 -0.5370 -1.8624 -1.1201
  106OSM      P10783   0.637   0.694  10.561  0.0165  0.2159  0.1856
  106OSM    O1310784   0.544   0.630  10.463  0.0112  0.5293  0.1242
  106OSM    O1410785   0.587   0.801  10.655  0.4551  0.5732  0.4384
  106OSM    O1110786   0.765   0.757  10.485 -0.8449 -0.5206  0.2806
  106OSM    O1210787   0.697   0.582  10.654 -0.5317  0.0919 -0.0295
  106OSM    C1S10788   0.848   0.693  10.398  0.8307 -0.1205 -0.0037
  106OSM    H1S10789   0.818   0.587  10.387  0.8334 -0.0643 -0.5309
  106OSM    H1T10790   0.953   0.685  10.433  0.5623 -0.8781  0.6498
  106OSM     NF10791   0.915   0.681  10.153  0.1227 -0.4275  0.1070
  106OSM    HNF10792   1.005   0.708  10.122 -0.8468  1.1385 -1.4435
  106OSM    C2S10793   0.849   0.764  10.249 -0.1358 -0.4965 -0.0964
  106OSM    H2S10794   0.745   0.782  10.213 -0.3818  0.9040  1.2800
  106OSM    C3S10795   0.914   0.908  10.269 -0.0145 -0.4394 -0.3311
  106OSM    H3S10796   1.015   0.901  10.314 -0.2085  3.1735  0.8553
  106OSM     O310797   0.839   0.986  10.365  0.0865 -0.0300 -0.6783
  106OSM    HO310798   0.793   0.919  10.417 -0.0092  0.9452  0.5311
  106OSM    C4S10799   0.920   0.978  10.136 -0.3072 -0.8957  0.0340
  106OSM    H4S10800   1.015   1.018  10.100 -0.8203 -0.5520 -0.9486
  106OSM    C5S10801   0.825   1.010  10.051  0.4866 -0.1571  1.1109
  106OSM    H5S10802   0.720   0.992  10.077 -0.3230  0.4003 -1.6283
  106OSM    C6S10803   0.823   1.094   9.920  0.1967 -0.0625 -0.2897
  106OSM    H6S10804   0.929   1.128   9.911 -0.5492  1.9424 -1.8097
  106OSM    H6T10805   0.771   1.190   9.942  1.6031  0.3975  1.1450
  106OSM    C7S10806   0.777   1.032   9.784  0.3066 -0.2017 -0.1079
  106OSM    H7S10807   0.687   0.971   9.805 -0.1197  0.3070 -0.4567
  106OSM    H7T10808   0.848   0.952   9.755  0.3939 -0.7371  1.4862
  106OSM    C8S10809   0.749   1.133   9.677 -0.6685  0.6621  0.1944
  106OSM    H8S10810   0.833   1.206   9.677 -0.7905  0.8158 -0.8772
  106OSM    H8T10811   0.661   1.195   9.705 -0.7078 -0.1145  1.8483
  106OSM    C9S10812   0.752   1.081   9.536 -0.4775  0.1282 -0.4100
  106OSM    H9S10813   0.757   1.169   9.469  0.5616 -0.3077 -0.9115
  106OSM    H9T10814   0.657   1.025   9.524 -0.0788 -0.6445  0.0444
  106OSM   C10S10815   0.868   0.989   9.501 -0.0017 -0.1177 -0.5309
  106OSM   H10S10816   0.848   0.890   9.548  0.4992 -0.5243 -1.1808
  106OSM   H10T10817   0.961   1.019   9.553 -0.5905 -0.9921  1.0918
  106OSM   C11S10818   0.880   0.973   9.348  0.1392  0.2157  0.4054
  106OSM   H11S10819   0.987   0.945   9.331  0.2314 -0.0145  1.3308
  106OSM   H11T10820   0.859   1.072   9.304 -0.1253  0.5924  1.3840
  106OSM   C12S10821   0.789   0.860   9.287 -0.9144 -0.2787  0.1919
  106OSM   H12S10822   0.684   0.892   9.299 -0.4463  1.7735 -1.0125
  106OSM   H12T10823   0.803   0.760   9.334  3.0777  0.8583  1.6310
  106OSM   C13S10824   0.810   0.847   9.136  0.2692 -0.2800  0.9591
  106OSM   H13S10825   0.755   0.759   9.096 -0.6586  0.4348  0.6585
  106OSM   H13T10826   0.920   0.834   9.124  0.5551  2.1598  0.6630
  106OSM   C14S10827   0.765   0.972   9.051  0.8042  0.3774  0.3957
  106OSM   H14S10828   0.813   0.982   8.952  0.4817  0.3808  0.2373
  106OSM   H14T10829   0.803   1.053   9.115 -0.9489 -0.9077  3.1748
  106OSM   C15S10830   0.612   1.001   9.044  0.9587 -0.4545 -0.2444
  106OSM   H15S10831   0.565   1.017   9.143 -0.9805  1.5054 -1.4563
  106OSM   H15T10832   0.555   0.919   8.996  0.1300  0.1921 -0.3783
  106OSM   C16S10833   0.591   1.124   8.957  0.4220  0.3654  0.4206
  106OSM   H16S10834   0.482   1.129   8.938 -0.0251  0.3117  2.8271
  106OSM   H16T10835   0.657   1.124   8.867  0.3203 -1.1073  0.3393
  106OSM   C17S10836   0.631   1.254   9.028  0.5004  0.2249 -0.9216
  106OSM   H17S10837   0.736   1.246   9.065  0.6987  3.7604 -0.6147
  106OSM   H17T10838   0.570   1.272   9.119  2.3299  2.2219 -0.0568
  106OSM   C18S10839   0.612   1.389   8.965 -0.2093  0.3583  0.2966
  106OSM   H18S10840   0.702   1.419   8.906  0.2683 -0.3014  0.6960
  106OSM   H18T10841   0.590   1.473   9.035  0.4632  2.5798 -2.0778
  106OSM   H18U10842   0.533   1.389   8.886  0.5564  2.2112 -0.5098
  106OSM    C1F10843   0.866   0.563  10.116 -0.4235 -0.3111  0.5553
  106OSM     OF10844   0.770   0.511  10.171  0.2373 -0.3953  0.7499
  106OSM    C2F10845   0.935   0.505   9.991  0.1165  0.4488 -0.0743
  106OSM    H2F10846   0.917   0.395   9.986  0.5079  0.4248 -1.2731
  106OSM    H2G10847   1.045   0.521   9.990  0.5268 -1.9712  1.2266
  106OSM    C3F10848   0.875   0.549   9.854  0.0893  0.1724 -0.1093
  106OSM    H3F10849   0.903   0.654   9.832 -0.6379  0.4444  0.2671
  106OSM    H3G10850   0.765   0.539   9.858 -0.1540  2.2347 -1.0538
  106OSM    C4F10851   0.950   0.463   9.740  0.4591  0.1923 -0.5906
  106OSM    H4F10852   0.926   0.355   9.750  0.0699  0.3281 -0.0558
  106OSM    H4G10853   1.060   0.466   9.757  0.5017 -3.3846  0.1946
  106OSM    C5F10854   0.929   0.514   9.599  0.4185 -0.0988 -0.1247
  106OSM    H5F10855   0.954   0.621   9.584 -1.3514 -0.1895 -4.2912
  106OSM    H5G10856   0.820   0.507   9.584  0.5404  0.7343 -1.4219
  106OSM    C6F10857   1.012   0.446   9.490  0.7087  0.1436  0.1399
  106OSM    H6F10858   0.980   0.341   9.473 -0.7629  0.5360  0.4368
  106OSM    H6G10859   1.115   0.441   9.530  1.9894  0.4675 -2.9592
  106OSM    C7F10860   1.026   0.535   9.365  0.0757  1.1439 -0.6631
  106OSM    H7F10861   1.122   0.506   9.319 -0.1864  0.3566 -0.7353
  106OSM    H7G10862   1.043   0.639   9.400  1.3990  0.5690  0.4488
  106OSM    C8F10863   0.908   0.523   9.266 -0.5185  0.0449  0.5151
  106OSM    H8F10864   0.914   0.610   9.198 -1.8596 -1.5295 -1.6674
  106OSM    H8G10865   0.810   0.533   9.317 -0.8649 -2.2877  0.3747
  106OSM    C9F10866   0.919   0.391   9.185 -0.2833 -0.7830 -0.0904
  106OSM    H9F10867   0.834   0.323   9.204 -0.1888 -0.9633 -0.3051
  106OSM   C10F10868   1.018   0.352   9.098  0.3807  1.1924  0.1921
  106OSM   H10F10869   1.011   0.253   9.051 -1.3643  1.5723 -0.3879
  106OSM   C11F10870   1.141   0.431   9.052 -0.9676  0.9778  0.6681
  106OSM   H11F10871   1.226   0.371   9.091  2.0874  2.3583 -3.5693
  106OSM   H11G10872   1.139   0.535   9.093  0.4321  1.8831 -1.4498
  106OSM   C12F10873   1.148   0.458   8.900 -0.1633  0.5623  0.2223
  106OSM   H12F10874   1.165   0.363   8.844  0.6894  0.0559  1.3178
  106OSM   H12G10875   1.224   0.537   8.883  0.5013  0.4178  2.3603
  106OSM   C13F10876   1.019   0.527   8.847 -0.3299  0.1175 -0.3711
  106OSM   H13F10877   0.982   0.576   8.940  0.0879 -1.2873  0.5471
  106OSM   H13G10878   0.946   0.452   8.810 -1.9059  0.3877  2.0733
  106OSM   C14F10879   1.050   0.628   8.737  0.2377 -0.4293  0.0093
  106OSM   H14F10880   1.097   0.571   8.654  0.3907 -1.4447  0.7782
  106OSM   H14G10881   1.116   0.704   8.782  0.6450 -1.2620  0.8405
  106OSM   C15F10882   0.920   0.691   8.673  0.2068  0.2483 -0.4324
  106OSM   H15F10883   0.864   0.606   8.629 -1.1760  0.9938 -0.1663
  106OSM   H15G10884   0.959   0.761   8.595 -0.9238  1.9492  0.4834
  106OSM   C16F10885   0.828   0.760   8.772  0.6045 -0.3760 -0.1324
  106OSM   H16F10886   0.897   0.834   8.818  0.8571 -0.6647 -0.0515
  106OSM   H16G10887   0.793   0.693   8.853  2.3801 -2.1075 -0.7599
  106OSM   C17F10888   0.725   0.842   8.695  0.0705  0.0487 -0.4666
  106OSM   H17F10889   0.779   0.908   8.623  1.0728  0.8371  0.9853
  106OSM   H17G10890   0.674   0.904   8.771  1.6509 -2.3765  2.6564
  106OSM   C18F10891   0.619   0.761   8.619  0.3391  0.0606  0.0860
  106OSM   H18F10892   0.661   0.705   8.533 -0.2594  1.0456 -0.8678
  106OSM   H18G10893   0.548   0.832   8.572  0.8353 -1.7990 -3.6358
  106OSM   H18H10894   0.569   0.689   8.687 -0.7792  1.0223  0.2852
  107OSM      N10895   3.673   3.981  11.041  0.0782  0.7298 -0.3252
  107OSM    C1510896   3.628   4.088  11.136  0.8181 -0.0741  0.2751
  107OSM   H15A10897   3.574   4.159  11.076 -1.3002 -0.8701  1.1736
  107OSM   H15B10898   3.712   4.129  11.189 -1.2906  0.3191  3.4474
  107OSM   H15C10899   3.555   4.046  11.204 -0.7969  2.9951  0.5339
  107OSM    C1410900   3.778   4.051  10.956  0.0451 -0.5645  0.2152
  107OSM   H14A10901   3.859   4.079  11.021 -1.0702  3.1722  0.1247
  107OSM   H14B10902   3.729   4.143  10.925  0.2739 -0.4707  0.1369
  107OSM   H14C10903   3.814   3.986  10.878  1.1378  0.6293 -0.2948
  107OSM    C1310904   3.734   3.856  11.100  0.2882 -0.4894  0.3375
  107OSM   H13A10905   3.789   3.796  11.030  0.6548  1.0943 -0.7555
  107OSM   H13B10906   3.658   3.798  11.150 -1.0774  1.4602  0.5805
  107OSM   H13C10907   3.807   3.885  11.174  0.3954  1.6078 -0.5619
  107OSM    C1210908   3.549   3.942  10.959 -0.7808  0.3049 -0.3829
  107OSM   H12A10909   3.484   3.886  11.026  1.0718  0.5857  1.7002
  107OSM   H12B10910   3.582   3.872  10.883  0.4251 -0.9554  1.2613
  107OSM    C1110911   3.462   4.049  10.892 -0.9167  0.1984  0.3786
  107OSM   H11A10912   3.387   4.011  10.819 -0.5974  0.1442  0.0805
  107OSM   H11B10913   3.537   4.097  10.826  0.9637 -0.0096  2.3041
  107OSM      P10914   3.367   4.286  10.956  0.0842 -0.1610 -0.0756
  107OSM    O1310915   3.267   4.325  11.057  0.4253 -0.1166  0.3232
  107OSM    O1410916   3.489   4.368  10.958  0.2872 -0.1329 -0.4982
  107OSM    O1110917   3.298   4.294  10.806  0.4155  0.3648 -0.2040
  107OSM    O1210918   3.402   4.136  10.979  0.0911  0.9789  0.3544
  107OSM    C1S10919   3.382   4.278  10.686 -0.1653  0.6346  0.2035
  107OSM    H1S10920   3.421   4.176  10.665 -1.4352 -0.0187  0.9723
  107OSM    H1T10921   3.470   4.345  10.698 -0.2631  1.0598 -1.3826
  107OSM     NF10922   3.438   4.346  10.455  0.6158  0.0690 -0.7485
  107OSM    HNF10923   3.459   4.440  10.430  1.3376  0.3172  0.7331
  107OSM    C2S10924   3.324   4.316  10.548  0.1044 -0.0849 -0.2301
  107OSM    H2S10925   3.269   4.230  10.505 -1.6861  1.2465 -0.6751
  107OSM    C3S10926   3.221   4.432  10.572 -0.1035 -0.1634 -0.1547
  107OSM    H3S10927   3.275   4.516  10.620 -1.7300  0.7430  0.1101
  107OSM     O310928   3.109   4.394  10.654  0.2876  0.1550 -0.1592
  107OSM    HO310929   3.151   4.346  10.726 -2.1288 -2.6753 -0.5118
  107OSM    C4S10930   3.159   4.468  10.434 -0.5215 -0.8462  0.8473
  107OSM    H4S10931   3.113   4.385  10.379  0.4147 -0.4203 -0.6166
  107OSM    C5S10932   3.166   4.595  10.371 -0.0701  0.0546 -0.1483
  107OSM    H5S10933   3.218   4.665  10.438  0.4795  1.0110 -1.5521
  107OSM    C6S10934   3.127   4.623  10.225  0.0576 -0.1850 -0.1721
  107OSM    H6S10935   3.113   4.733  10.221 -0.7380 -0.2273  1.0607
  107OSM    H6T10936   3.027   4.589  10.191 -0.1642  0.3284 -0.0318
  107OSM    C7S10937   3.232   4.591  10.114  0.3013  0.1867 -0.1258
  107OSM    H7S10938   3.325   4.650  10.130  0.7271 -0.7665  1.0156
  107OSM    H7T10939   3.188   4.617  10.016 -1.5457 -1.7027  0.1905
  107OSM    C8S10940   3.291   4.451  10.111 -0.0655  0.1582 -0.0769
  107OSM    H8S10941   3.210   4.375  10.108 -0.3187  0.4822 -3.8894
  107OSM    H8T10942   3.359   4.438  10.198  2.1294  1.0503 -1.6217
  107OSM    C9S10943   3.388   4.430   9.999 -0.0984 -0.4798 -0.0738
  107OSM    H9S10944   3.421   4.325   9.990  0.9443 -0.3969  2.3433
  107OSM    H9T10945   3.469   4.504  10.015 -0.9176  0.1836  1.1880
  107OSM   C10S10946   3.334   4.452   9.853  0.7767 -0.1320  0.2843
  107OSM   H10S10947   3.423   4.419   9.795 -0.0790 -2.3471  0.1898
  107OSM   H10T10948   3.320   4.561   9.838 -1.3023 -0.0841  2.3135
  107OSM   C11S10949   3.202   4.386   9.806 -0.4175 -0.1419  0.3072
  107OSM   H11S10950   3.119   4.405   9.878 -0.9226  3.3002 -1.1049
  107OSM   H11T10951   3.218   4.278   9.825  0.5148  0.3708  2.6459
  107OSM   C12S10952   3.146   4.421   9.673 -0.0894  0.5616 -0.1749
  107OSM   H12S10953   3.114   4.527   9.674 -1.2027  0.2259  0.3163
  107OSM   H12T10954   3.057   4.362   9.643 -1.2172  3.0646 -1.9026
  107OSM   C13S10955   3.250   4.424   9.567  0.3912  0.1087  0.4317
  107OSM   H13S10956   3.320   4.339   9.587  2.1367  0.9854 -1.8244
  107OSM   H13T10957   3.310   4.515   9.587  0.8651 -0.8327  3.6960
  107OSM   C14S10958   3.194   4.418   9.424 -0.5675 -0.0046 -0.6234
  107OSM   H14S10959   3.128   4.506   9.410  0.3078  0.7678 -0.0020
  107OSM   H14T10960   3.123   4.333   9.421  0.8149 -1.1028 -4.1022
  107OSM   C15S10961   3.304   4.409   9.321 -0.0946 -0.1505  0.3162
  107OSM   H15S10962   3.373   4.327   9.349  0.3562 -0.6570 -2.1707
  107OSM   H15T10963   3.369   4.499   9.310 -0.9936  0.4051 -0.4761
  107OSM   C16S10964   3.242   4.382   9.185 -0.0815 -0.5716 -0.6207
  107OSM   H16S10965   3.164   4.461   9.176 -0.0797 -0.5459 -0.4054
  107OSM   H16T10966   3.201   4.279   9.176  2.7610 -1.9175  1.2222
  107OSM   C17S10967   3.334   4.398   9.067 -0.3662  0.6120  0.0215
  107OSM   H17S10968   3.412   4.478   9.073 -0.1057  0.3215  0.4958
  107OSM   H17T10969   3.262   4.425   8.987 -0.5376  1.0829  0.3365
  107OSM   C18S10970   3.416   4.268   9.020 -0.5314 -0.1035 -0.0186
  107OSM   H18S10971   3.472   4.288   8.925  1.5226 -1.5298  0.8518
  107OSM   H18T10972   3.357   4.178   8.995 -0.1955 -0.0939 -0.8671
  107OSM   H18U10973   3.492   4.248   9.098  0.2012  1.6509 -0.2506
  107OSM    C1F10974   3.530   4.255  10.417  0.2397  0.4387 -0.2221
  107OSM     OF10975   3.534   4.139  10.456  0.1073 -0.4487 -0.3032
  107OSM    C2F10976   3.642   4.304  10.330 -0.5354  0.7047 -0.2596
  107OSM    H2F10977   3.736   4.258  10.368 -0.4776  0.3359 -0.8405
  107OSM    H2G10978   3.633   4.414  10.326 -3.1692  0.6564  2.7574
  107OSM    C3F10979   3.632   4.250  10.183  0.1777  0.1167 -0.5551
  107OSM    H3F10980   3.531   4.270  10.142  0.9755  1.9251 -1.7243
  107OSM    H3G10981   3.633   4.140  10.196  2.5705 -0.2557 -3.2336
  107OSM    C4F10982   3.741   4.293  10.077  0.6212  1.0811 -0.4865
  107OSM    H4F10983   3.840   4.280  10.126  1.0923 -0.1069 -1.7416
  107OSM    H4G10984   3.739   4.403  10.065 -0.1255  1.0335 -0.7863
  107OSM    C5F10985   3.731   4.220   9.947 -0.1148  0.3236  0.6833
  107OSM    H5F10986   3.668   4.128   9.953  0.4078 -0.0612  0.3418
  107OSM    H5G10987   3.838   4.195   9.929 -0.5940 -2.2644  1.2660
  107OSM    C6F10988   3.686   4.316   9.838 -0.0241  0.4739 -0.2918
  107OSM    H6F10989   3.775   4.379   9.816 -0.2827  1.6583  1.9139
  107OSM    H6G10990   3.602   4.385   9.860  0.0772  0.4883  0.0509
  107OSM    C7F10991   3.658   4.238   9.710 -0.1941 -0.6025 -0.0109
  107OSM    H7F10992   3.571   4.171   9.727  1.5493 -2.7975  0.4506
  107OSM    H7G10993   3.738   4.163   9.697  0.6945  0.1286  1.2000
  107OSM    C8F10994   3.627   4.313   9.575  0.0460  0.5367  0.6920
  107OSM    H8F10995   3.709   4.385   9.554  0.2567 -0.1159 -0.8239
  107OSM    H8G10996   3.536   4.375   9.588 -0.0162  0.8351 -1.0222
  107OSM    C9F10997   3.608   4.229   9.457  0.3541  0.2703 -0.4696
  107OSM    H9F10998   3.509   4.181   9.452  1.7755 -2.7354 -0.4910
  107OSM   C10F10999   3.692   4.216   9.352  0.2032  0.5175 -0.2206
  107OSM   H10F11000   3.649   4.170   9.262  1.1843  1.4330 -1.1606
  107OSM   C11F11001   3.833   4.270   9.336 -0.2163 -0.7867  0.3780
  107OSM   H11F11002   3.896   4.187   9.297 -0.6603 -0.9185 -0.0542
  107OSM   H11G11003   3.858   4.314   9.435 -1.0496  1.8856 -0.5650
  107OSM   C12F11004   3.854   4.387   9.245 -0.3464  0.2975  0.1796
  107OSM   H12F11005   3.963   4.405   9.259 -0.2126  0.1385 -0.6009
  107OSM   H12G11006   3.811   4.478   9.291  1.4645  1.7784 -1.0072
  107OSM   C13F11007   3.819   4.354   9.100 -0.2388  0.2764 -0.4634
  107OSM   H13F11008   3.709   4.353   9.084 -0.3495  0.4095  0.2788
  107OSM   H13G11009   3.859   4.255   9.068  1.4322  0.3875  1.1758
  107OSM   C14F11010   3.878   4.463   9.004  0.3005  0.0444  0.0044
  107OSM   H14F11011   3.838   4.563   9.029  0.1721  0.0359 -0.1705
  107OSM   H14G11012   3.833   4.431   8.908  2.9745 -1.0678 -0.9474
  107OSM   C15F11013   4.024   4.454   9.001 -0.1047 -0.0011 -0.5103
  107OSM   H15F11014   4.057   4.349   9.013 -0.2903  0.3413  3.4495
  107OSM   H15G11015   4.064   4.501   9.093  2.2380 -2.0799 -0.4134
  107OSM   C16F11016   4.082   4.500   8.870 -0.6127  0.2763  0.1748
  107OSM   H16F11017   4.192   4.514   8.879 -0.5723  0.6450 -0.8309
  107OSM   H16G11018   4.038   4.602   8.858  1.5302  1.2182  0.1541
  107OSM   C17F11019   4.050   4.419   8.739 -0.2529 -0.2486  0.3967
  107OSM   H17F11020   3.940   4.420   8.728 -0.0231  1.4251 -2.2158
  107OSM   H17G11021   4.086   4.315   8.756  0.5194  0.0369  0.5262
  107OSM   C18F11022   4.110   4.486   8.615  0.1577 -0.5054 -0.3508
  107OSM   H18F11023   4.074   4.446   8.517 -0.0561 -1.3434  0.0627
  107OSM   H18G11024   4.219   4.475   8.629  0.3577  0.6794 -0.8769
  107OSM   H18H11025   4.099   4.596   8.618 -0.5652 -0.5431 -1.1266
  108OSM      N11026   0.681   5.893  10.775 -0.3030 -0.7887  0.2866
  108OSM    C1511027   0.558   5.836  10.843 -0.3306 -0.1687  0.4186
  108OSM   H15A11028   0.579   5.750  10.905  1.2624 -0.0439  0.0693
  108OSM   H15B11029   0.486   5.805  10.768  2.0791  0.6045 -2.2939
  108OSM   H15C11030   0.512   5.909  10.908  2.1218 -0.0847  2.1287
  108OSM    C1411031   0.765   5.774  10.737  0.2977  0.3887 -0.5383
  108OSM   H14A11032   0.691   5.707  10.697 -0.2582 -0.3158  1.5845
  108OSM   H14B11033   0.798   5.723  10.827  0.7284 -1.1721 -1.5623
  108OSM   H14C11034   0.849   5.797  10.673 -0.1527 -1.0673 -1.6736
  108OSM    C1311035   0.634   5.977  10.663 -0.0216  0.1979 -0.0464
  108OSM   H13A11036   0.712   6.011  10.596  0.9255 -0.0619  0.9165
  108OSM   H13B11037   0.587   6.064  10.703 -1.9042 -1.0908  0.5910
  108OSM   H13C11038   0.562   5.933  10.595  0.0275 -0.4287  0.3052
  108OSM    C1211039   0.758   5.982  10.871 -0.1115  0.3735 -0.0440
  108OSM   H12A11040   0.851   6.013  10.826 -0.9251  1.5144 -0.9670
  108OSM   H12B11041   0.779   5.918  10.955 -1.5089  2.1503  1.7005
  108OSM    C1111042   0.695   6.106  10.920 -0.0922 -0.2971 -0.2340
  108OSM   H11A11043   0.756   6.153  11.000  0.9623 -3.5896  0.9707
  108OSM   H11B11044   0.595   6.092  10.968  0.1135  1.0211  0.5904
  108OSM      P11045   0.812   6.280  10.760 -0.4098 -0.1399 -0.2630
  108OSM    O1311046   0.820   6.425  10.797 -0.1804 -0.4643  0.1097
  108OSM    O1411047   0.932   6.200  10.781  0.9661  0.2769 -0.2188
  108OSM    O1111048   0.783   6.277  10.605  0.4207 -0.6169 -0.0494
  108OSM    O1211049   0.685   6.209  10.818  0.3835 -0.0969  0.6431
  108OSM    C1S11050   0.647   6.329  10.572 -0.0220  0.1437  0.0619
  108OSM    H1S11051   0.639   6.434  10.607  0.1397  1.1466 -2.7730
  108OSM    H1T11052   0.568   6.274  10.627 -0.2029 -0.2183 -0.5522
  108OSM     NF11053   0.494   6.399  10.388 -0.1316  0.1536  0.8326
  108OSM    HNF11054   0.420   6.337  10.366  0.5742  0.1996 -1.8376
  108OSM    C2S11055   0.621   6.327  10.416  0.5575 -0.1233  0.1747
  108OSM    H2S11056   0.707   6.388  10.379  1.8421 -1.6643  0.5696
  108OSM    C3S11057   0.632   6.187  10.355  0.5774  0.4430  0.5774
  108OSM    H3S11058   0.542   6.131  10.390  0.5610 -0.2131 -0.4784
  108OSM     O311059   0.740   6.100  10.395  0.4514 -0.1090 -0.8449
  108OSM    HO311060   0.806   6.144  10.450 -0.7462  0.5166  0.1110
  108OSM    C4S11061   0.631   6.197  10.206 -0.7061  0.0291  0.4200
  108OSM    H4S11062   0.732   6.230  10.179  0.2811 -1.1293  2.5408
  108OSM    C5S11063   0.546   6.155  10.115  0.2326  0.2823  0.0375
  108OSM    H5S11064   0.454   6.106  10.150 -0.0604 -0.9140 -2.2523
  108OSM    C6S11065   0.565   6.170   9.964  0.2665  0.2869 -0.2638
  108OSM    H6S11066   0.468   6.199   9.917  0.1810 -0.7214 -0.7174
  108OSM    H6T11067   0.570   6.064   9.933  0.5587 -0.0926  1.0592
  108OSM    C7S11068   0.687   6.235   9.888  0.3041 -0.1297  0.3573
  108OSM    H7S11069   0.775   6.181   9.928 -0.1742 -1.1794  0.0183
  108OSM    H7T11070   0.704   6.340   9.920  4.4915 -0.4659 -0.5320
  108OSM    C8S11071   0.678   6.228   9.738 -1.0548  0.4062 -0.4046
  108OSM    H8S11072   0.781   6.257   9.707 -0.5688 -1.9415 -1.0393
  108OSM    H8T11073   0.604   6.300   9.696  0.9314  1.5310 -2.0785
  108OSM    C9S11074   0.657   6.080   9.694 -0.0603 -0.4018  0.5973
  108OSM    H9S11075   0.552   6.051   9.716 -0.0245  1.2144  3.1167
  108OSM    H9T11076   0.730   6.028   9.759  0.5274  0.3867  0.5730
  108OSM   C10S11077   0.692   6.045   9.545 -0.6460  0.0174 -0.1657
  108OSM   H10S11078   0.702   5.935   9.532  2.4142  0.1081  1.2102
  108OSM   H10T11079   0.787   6.095   9.518  0.0247 -0.7783  0.7158
  108OSM   C11S11080   0.580   6.096   9.451 -0.3370  0.4927 -0.2731
  108OSM   H11S11081   0.578   6.207   9.453  0.5030  0.4971  0.8152
  108OSM   H11T11082   0.483   6.057   9.490 -0.6941  2.6092  1.0304
  108OSM   C12S11083   0.578   6.066   9.298  0.3232  0.7120 -0.2021
  108OSM   H12S11084   0.596   5.959   9.273 -2.7816  0.4341 -1.5341
  108OSM   H12T11085   0.673   6.107   9.259  0.5987 -0.0154 -0.3024
  108OSM   C13S11086   0.457   6.121   9.224 -0.1283 -0.5893 -0.3031
  108OSM   H13S11087   0.453   6.232   9.236 -2.0347 -0.9270  2.4945
  108OSM   H13T11088   0.365   6.088   9.276 -0.0452 -1.0702 -0.4599
  108OSM   C14S11089   0.462   6.068   9.086  0.3725  0.5770 -0.0949
  108OSM   H14S11090   0.360   6.034   9.059  1.9297 -0.9815 -4.5408
  108OSM   H14T11091   0.518   5.973   9.075 -0.7880 -0.0978 -0.2197
  108OSM   C15S11092   0.509   6.165   8.973 -0.5663 -0.1993 -0.0261
  108OSM   H15S11093   0.620   6.173   8.982 -0.4646 -1.5796  0.0907
  108OSM   H15T11094   0.453   6.260   8.980 -0.2457 -0.0178  0.1159
  108OSM   C16S11095   0.493   6.124   8.826  0.3245 -0.2634 -0.0952
  108OSM   H16S11096   0.553   6.031   8.813  0.5713 -0.1721  0.3865
  108OSM   H16T11097   0.551   6.200   8.768  0.1091  1.2517  1.6528
  108OSM   C17S11098   0.344   6.112   8.778  0.1228 -0.6305  0.1335
  108OSM   H17S11099   0.295   6.207   8.807 -0.5987 -1.2335  0.9266
  108OSM   H17T11100   0.285   6.026   8.816 -2.2637  0.5353 -0.8582
  108OSM   C18S11101   0.329   6.122   8.625 -0.7192 -0.3636 -0.3377
  108OSM   H18S11102   0.395   6.204   8.591 -0.0143 -0.4861  0.7200
  108OSM   H18T11103   0.223   6.142   8.600 -1.4109 -2.9168  0.3678
  108OSM   H18U11104   0.368   6.026   8.586  1.1936 -1.9419  4.9417
  108OSM    C1F11105   0.471   6.530  10.410 -0.0650  1.0478 -0.1114
  108OSM     OF11106   0.563   6.600  10.448  0.0256 -0.2595  0.8665
  108OSM    C2F11107   0.327   6.575  10.397  0.2983 -0.3573  0.9688
  108OSM    H2F11108   0.306   6.661  10.464 -1.7150  0.6990 -0.9889
  108OSM    H2G11109   0.261   6.488  10.418  0.6726 -1.2284 -1.3575
  108OSM    C3F11110   0.301   6.628  10.261  0.2853 -1.2712  0.3746
  108OSM    H3F11111   0.372   6.711  10.245 -0.5611 -0.1345  2.3380
  108OSM    H3G11112   0.203   6.677  10.243  1.2165  0.3739 -0.3316
  108OSM    C4F11113   0.318   6.532  10.150 -0.4123 -0.0976 -0.3192
  108OSM    H4F11114   0.277   6.434  10.183 -1.6914  0.6861  0.4875
  108OSM    H4G11115   0.426   6.519  10.126  0.1267  0.2817  1.8191
  108OSM    C5F11116   0.241   6.582  10.029  0.3536  0.0344 -0.4772
  108OSM    H5F11117   0.284   6.675   9.984 -2.3406  0.9288 -1.3145
  108OSM    H5G11118   0.139   6.622  10.049  0.0587 -0.9500 -0.0089
  108OSM    C6F11119   0.227   6.472   9.921  0.1871 -0.6091 -0.1596
  108OSM    H6F11120   0.163   6.396   9.971 -0.5594 -0.2828 -0.6032
  108OSM    H6G11121   0.326   6.430   9.894  0.1171 -0.3255 -0.8519
  108OSM    C7F11122   0.151   6.526   9.796 -0.7620  0.2429  0.3405
  108OSM    H7F11123   0.223   6.590   9.740 -1.9836 -0.2367 -1.8450
  108OSM    H7G11124   0.057   6.582   9.813  0.0169  1.1649  1.6862
  108OSM    C8F11125   0.121   6.416   9.690  0.2059  0.7152  0.7414
  108OSM    H8F11126   0.044   6.452   9.618 -0.2168  0.2724  0.9696
  108OSM    H8G11127   0.055   6.349   9.748 -0.0483  1.1416  0.9463
  108OSM    C9F11128   0.229   6.340   9.628  0.7987 -0.1909  0.5516
  108OSM    H9F11129   0.300   6.285   9.692  0.8137 -3.9873 -2.5324
  108OSM   C10F11130   0.255   6.315   9.495  0.0247 -0.3058  0.2870
  108OSM   H10F11131   0.348   6.261   9.473  1.5901  1.6439  1.9540
  108OSM   C11F11132   0.168   6.362   9.376  0.0945  0.6064  0.4726
  108OSM   H11F11133   0.204   6.450   9.317  0.3014  0.6834  0.7128
  108OSM   H11G11134   0.072   6.399   9.418 -0.0592 -1.1104  1.6688
  108OSM   C12F11135   0.132   6.246   9.275  0.2272  0.0265  1.3968
  108OSM   H12F11136   0.111   6.150   9.327  0.6943  0.9570  3.3661
  108OSM   H12G11137   0.226   6.231   9.218 -0.3787  2.4769 -0.3139
  108OSM   C13F11138   0.013   6.269   9.178  0.4900  0.0221  0.5407
  108OSM   H13F11139   0.017   6.377   9.152 -2.4926 -0.0460 -0.3576
  108OSM   H13G11140  -0.089   6.257   9.220  0.5459  0.4151  0.7944
  108OSM   C14F11141   0.029   6.189   9.049 -0.7383 -0.6467  0.1868
  108OSM   H14F11142   0.012   6.081   9.072  1.3652 -1.0847 -0.2340
  108OSM   H14G11143   0.132   6.197   9.009 -1.4663  0.0364 -1.6037
  108OSM   C15F11144  -0.065   6.238   8.943 -1.0742  0.7139  0.1999
  108OSM   H15F11145  -0.040   6.344   8.926  1.7299  0.0751  0.0474
  108OSM   H15G11146  -0.167   6.246   8.988 -0.5862  0.5610  1.3484
  108OSM   C16F11147  -0.076   6.153   8.813  0.5715 -0.0107 -0.1440
  108OSM   H16F11148  -0.100   6.047   8.836 -0.6794 -0.2588 -2.4373
  108OSM   H16G11149   0.031   6.162   8.786  0.7778 -1.2685  0.2302
  108OSM   C17F11150  -0.173   6.212   8.707 -0.0488 -0.2093 -0.6746
  108OSM   H17F11151  -0.157   6.322   8.696 -1.9517  0.2434  0.7932
  108OSM   H17G11152  -0.283   6.204   8.722 -0.0990  1.4789 -0.0357
  108OSM   C18F11153  -0.148   6.148   8.572  0.2294 -0.4374  0.6208
  108OSM   H18F11154  -0.191   6.214   8.495 -1.3548 -1.6810  0.4224
  108OSM   H18G11155  -0.202   6.051   8.566 -0.5929  0.1738 -2.1942
  108OSM   H18H11156  -0.040   6.143   8.547  0.0709 -2.3365  0.2244
  109OSM      N11157   6.372   4.057  11.183  0.3375 -0.1566 -0.2545
  109OSM    C1511158   6.489   4.052  11.095 -0.9415 -0.2532  0.1859
  109OSM   H15A11159   6.542   3.958  11.104 -1.3835 -0.4353  1.0041
  109OSM   H15B11160   6.551   4.137  11.120  0.2572 -0.7031 -1.1952
  109OSM   H15C11161   6.470   4.057  10.989 -1.2599  1.6698  0.3219
  109OSM    C1411162   6.269   3.952  11.135  0.2961  0.1931 -0.0444
  109OSM   H14A11163   6.305   3.850  11.135 -1.6477 -0.5335 -1.0282
  109OSM   H14B11164   6.249   3.971  11.030  1.2195  0.2954 -0.2066
  109OSM   H14C11165   6.179   3.964  11.194  0.7078 -2.7376  1.2844
  109OSM    C1311166   6.418   4.019  11.320 -0.1489 -0.0978 -0.4417
  109OSM   H13A11167   6.335   4.037  11.387 -0.2849 -0.4262 -0.5230
  109OSM   H13B11168   6.503   4.079  11.349 -0.8090  0.4029  0.5054
  109OSM   H13C11169   6.440   3.915  11.336 -0.8021 -0.0720  0.7537
  109OSM    C1211170   6.311   4.201  11.183 -0.1021 -0.4067 -0.4512
  109OSM   H12A11171   6.382   4.272  11.221  1.2170 -2.6479  1.4673
  109OSM   H12B11172   6.223   4.188  11.244  0.3776 -0.1805  0.2944
  109OSM    C1111173   6.255   4.255  11.047 -0.1418  0.4085  0.0749
  109OSM   H11A11174   6.346   4.261  10.985  1.1777 -0.4854  1.8677
  109OSM   H11B11175   6.210   4.355  11.060 -0.9193  0.0325  0.3399
  109OSM      P11176   6.014   4.180  10.959 -0.0685  0.0323  0.0800
  109OSM    O1311177   5.946   4.060  10.989 -0.4335  0.2848 -0.6040
  109OSM    O1411178   5.971   4.307  11.023  0.4110  0.3661  0.7003
  109OSM    O1111179   6.017   4.195  10.801 -0.1754 -0.0357 -0.3964
  109OSM    O1211180   6.166   4.153  10.990 -0.3688  0.3475  0.5648
  109OSM    C1S11181   6.084   4.300  10.733  0.2603 -0.4176  0.5181
  109OSM    H1S11182   6.185   4.302  10.778  0.8954  0.1689 -0.8996
  109OSM    H1T11183   6.037   4.396  10.766 -0.5488 -1.2550  1.8466
  109OSM     NF11184   6.183   4.342  10.502 -0.2695 -0.7709  0.2387
  109OSM    HNF11185   6.151   4.406  10.433 -0.5682 -2.6601 -1.4340
  109OSM    C2S11186   6.082   4.275  10.578  0.1043 -0.6959 -0.1765
  109OSM    H2S11187   6.107   4.168  10.565  1.4052 -0.7017  2.1649
  109OSM    C3S11188   5.935   4.301  10.527  0.2682  0.0554 -0.6989
  109OSM    H3S11189   5.905   4.405  10.552 -1.1755 -0.0088 -2.0595
  109OSM     O311190   5.840   4.225  10.597 -0.0031  0.5694  0.2734
  109OSM    HO311191   5.881   4.205  10.681  2.5577 -1.8153 -1.4781
  109OSM    C4S11192   5.924   4.261  10.381  0.4644 -0.1762  0.9798
  109OSM    H4S11193   5.974   4.168  10.350  1.7012  1.1598 -1.1869
  109OSM    C5S11194   5.858   4.336  10.294 -0.2156 -0.5341 -0.7674
  109OSM    H5S11195   5.811   4.430  10.327 -0.2433 -1.2550  1.3411
  109OSM    C6S11196   5.851   4.302  10.142 -0.0995  0.7291 -0.3155
  109OSM    H6S11197   5.750   4.326  10.103 -0.2588 -0.7696 -0.8349
  109OSM    H6T11198   5.874   4.196  10.117 -1.5714  0.5018 -0.7052
  109OSM    C7S11199   5.938   4.396  10.055 -0.0361 -0.0697  0.0200
  109OSM    H7S11200   6.043   4.398  10.091 -0.4969 -2.1246  1.5132
  109OSM    H7T11201   5.915   4.504  10.070  0.0335  0.0281 -0.5431
  109OSM    C8S11202   5.940   4.356   9.910 -0.4015  0.0130 -0.7144
  109OSM    H8S11203   5.968   4.249   9.903  0.0882  0.1108 -0.2800
  109OSM    H8T11204   6.017   4.414   9.855 -0.7132 -0.4598 -1.6541
  109OSM    C9S11205   5.808   4.378   9.828 -0.5950  0.3427  0.5333
  109OSM    H9S11206   5.774   4.483   9.840 -2.8074 -0.5405  2.3738
  109OSM    H9T11207   5.739   4.307   9.878 -0.4122 -1.0450 -1.1243
  109OSM   C10S11208   5.820   4.338   9.682 -0.3474 -0.3838  0.2911
  109OSM   H10S11209   5.920   4.368   9.644 -0.6543 -0.2168 -0.3890
  109OSM   H10T11210   5.743   4.395   9.625 -0.2439 -0.1407  0.3947
  109OSM   C11S11211   5.780   4.194   9.660  0.2922  0.5051  0.0524
  109OSM   H11S11212   5.674   4.188   9.693  0.4743 -3.1882  0.2395
  109OSM   H11T11213   5.851   4.148   9.732 -2.8868 -1.5406  1.9888
  109OSM   C12S11214   5.819   4.121   9.530 -0.4122  0.2759  0.6750
  109OSM   H12S11215   5.787   4.014   9.534 -0.4194  0.2876  0.9820
  109OSM   H12T11216   5.929   4.132   9.523 -0.4181 -0.3648 -0.4344
  109OSM   C13S11217   5.756   4.182   9.406  0.7836 -0.7220  1.0160
  109OSM   H13S11218   5.789   4.288   9.397  0.3730 -0.7002 -0.2555
  109OSM   H13T11219   5.646   4.191   9.405  0.8253 -0.1667  0.7946
  109OSM   C14S11220   5.795   4.105   9.276 -0.0676  0.3516 -0.2069
  109OSM   H14S11221   5.770   3.998   9.294  0.9520  0.3096  1.0863
  109OSM   H14T11222   5.905   4.102   9.262 -0.0185  0.9120  0.0223
  109OSM   C15S11223   5.746   4.169   9.150 -0.2267 -0.6046 -0.0988
  109OSM   H15S11224   5.767   4.278   9.157  2.2594 -1.0912  0.3495
  109OSM   H15T11225   5.635   4.160   9.158 -0.1800 -2.7196 -1.5678
  109OSM   C16S11226   5.792   4.109   9.018  0.6303  0.0678  0.4279
  109OSM   H16S11227   5.754   4.005   9.009 -0.0048  0.4566 -1.7109
  109OSM   H16T11228   5.900   4.131   9.006  0.3086  2.1678  1.2205
  109OSM   C17S11229   5.726   4.163   8.889  0.2503 -0.1049  0.7660
  109OSM   H17S11230   5.758   4.269   8.883 -0.2434  0.0376  0.6168
  109OSM   H17T11231   5.617   4.158   8.908 -0.2550  0.1263 -1.8931
  109OSM   C18S11232   5.756   4.088   8.754  0.6137  0.3352 -0.1316
  109OSM   H18S11233   5.719   4.140   8.664  1.0799 -2.2183 -1.8634
  109OSM   H18T11234   5.704   3.989   8.762 -0.0662  0.7760  1.1777
  109OSM   H18U11235   5.862   4.061   8.734  0.6915 -0.4811  1.2533
  109OSM    C1F11236   6.311   4.318  10.509  0.1709 -0.6453  0.1196
  109OSM     OF11237   6.352   4.251  10.601 -0.1641 -0.4678  0.3993
  109OSM    C2F11238   6.402   4.388  10.410 -0.0949  0.4461 -0.0769
  109OSM    H2F11239   6.492   4.434  10.456 -0.7982 -1.2008  3.0413
  109OSM    H2G11240   6.337   4.465  10.363  0.1641  2.0643  2.1299
  109OSM    C3F11241   6.444   4.307  10.291 -0.0996 -0.2104 -0.4716
  109OSM    H3F11242   6.513   4.225  10.320 -0.6923 -0.1584  1.0874
  109OSM    H3G11243   6.490   4.377  10.218 -1.0960  1.2784  0.3123
  109OSM    C4F11244   6.322   4.248  10.220  0.2632 -0.1164  0.2692
  109OSM    H4F11245   6.261   4.340  10.207  2.4251  1.5596  1.6695
  109OSM    H4G11246   6.266   4.170  10.276 -1.0216  1.3887  1.1162
  109OSM    C5F11247   6.359   4.188  10.091  0.1340 -0.1772  0.5968
  109OSM    H5F11248   6.418   4.095  10.099  0.5980 -0.0533 -1.2140
  109OSM    H5G11249   6.423   4.252  10.027 -0.4227  0.4551  0.6580
  109OSM    C6F11250   6.243   4.158   9.994 -0.2427  0.2651  0.1480
  109OSM    H6F11251   6.173   4.240   9.965 -1.2338 -0.8632 -0.6682
  109OSM    H6G11252   6.172   4.084  10.036 -0.2022  0.2213  0.1367
  109OSM    C7F11253   6.305   4.086   9.869 -0.7765 -0.1002  0.2780
  109OSM    H7F11254   6.370   4.004   9.907  0.7145  2.2349  3.0274
  109OSM    H7G11255   6.377   4.155   9.820 -2.3030  1.4205  0.1008
  109OSM    C8F11256   6.199   4.041   9.759  0.2092 -0.3563 -1.3027
  109OSM    H8F11257   6.132   4.124   9.729  0.2162 -0.1927 -0.8726
  109OSM    H8G11258   6.141   3.959   9.806 -0.1022  0.2695 -0.5898
  109OSM    C9F11259   6.249   3.990   9.625 -0.8320  0.5712  0.2223
  109OSM    H9F11260   6.245   3.880   9.619  0.9428  0.5437 -0.6337
  109OSM   C10F11261   6.300   4.063   9.516  0.3020  0.5744 -0.6302
  109OSM   H10F11262   6.319   4.010   9.422  2.6298 -0.2361  0.2371
  109OSM   C11F11263   6.300   4.211   9.500 -0.3177 -0.3786 -0.4619
  109OSM   H11F11264   6.403   4.246   9.474 -0.1708 -0.8477 -0.5235
  109OSM   H11G11265   6.285   4.263   9.596 -1.9748  0.1282 -0.9813
  109OSM   C12F11266   6.204   4.261   9.395 -0.0958  0.8659 -0.4504
  109OSM   H12F11267   6.201   4.370   9.419 -1.6443  0.3506  1.8708
  109OSM   H12G11268   6.099   4.224   9.389  0.0353 -0.0144  1.9568
  109OSM   C13F11269   6.262   4.249   9.249  0.2987  0.0214 -0.0532
  109OSM   H13F11270   6.259   4.141   9.220  0.0233  0.2847 -1.0279
  109OSM   H13G11271   6.369   4.279   9.251  0.7186 -1.4618  0.6417
  109OSM   C14F11272   6.180   4.314   9.138  0.4418  0.3845  0.3197
  109OSM   H14F11273   6.202   4.423   9.132  0.5619  0.3163 -0.6231
  109OSM   H14G11274   6.072   4.302   9.160  0.5751 -0.1826  0.6648
  109OSM   C15F11275   6.214   4.250   9.003 -0.0156 -0.3157  0.3649
  109OSM   H15F11276   6.154   4.157   9.009 -0.4199 -0.1234 -0.6022
  109OSM   H15G11277   6.323   4.233   8.995  0.3131 -0.7994  4.4904
  109OSM   C16F11278   6.149   4.328   8.884 -0.0498 -0.3776  0.6315
  109OSM   H16F11279   6.207   4.422   8.877 -1.1999  0.1795 -1.5319
  109OSM   H16G11280   6.043   4.339   8.916 -0.7680 -1.1681 -1.4007
  109OSM   C17F11281   6.171   4.256   8.754  0.0559  0.6069  0.6212
  109OSM   H17F11282   6.108   4.298   8.673  0.2175  0.0818  0.2171
  109OSM   H17G11283   6.144   4.151   8.782  0.4035 -0.0267 -1.3255
  109OSM   C18F11284   6.324   4.255   8.716  0.1021 -0.4478 -0.1930
  109OSM   H18F11285   6.390   4.280   8.802 -0.0212  0.0192 -0.2353
  109OSM   H18G11286   6.344   4.332   8.638 -1.4464  1.1437  0.9309
  109OSM   H18H11287   6.355   4.153   8.685  2.2297 -0.4310  1.6816
  110OSM      N11288   0.287   2.518  10.875  0.1547 -0.1890  0.2960
  110OSM    C1511289   0.424   2.548  10.924 -0.2359 -0.2176 -0.4240
  110OSM   H15A11290   0.479   2.615  10.860 -1.2220  1.6046  0.6107
  110OSM   H15B11291   0.489   2.461  10.920 -0.2093 -0.3308  1.7284
  110OSM   H15C11292   0.431   2.578  11.028 -0.2747  0.8174 -0.7168
  110OSM    C1411293   0.298   2.452  10.742  0.6292  0.7452  0.4964
  110OSM   H14A11294   0.334   2.350  10.746  1.2618  1.0369  2.9043
  110OSM   H14B11295   0.369   2.508  10.684  1.3987  1.3107  1.9485
  110OSM   H14C11296   0.205   2.460  10.689  1.0189  0.9990 -0.1564
  110OSM    C1311297   0.197   2.437  10.965 -0.0504 -0.3833 -0.5231
  110OSM   H13A11298   0.250   2.344  10.980 -0.5135 -0.4060  1.0438
  110OSM   H13B11299   0.107   2.405  10.914  0.1633  0.3241 -1.3407
  110OSM   H13C11300   0.184   2.482  11.062  0.3936 -1.3177 -0.0190
  110OSM    C1211301   0.224   2.655  10.849 -0.4475  0.3373  0.0767
  110OSM   H12A11302   0.139   2.642  10.783 -0.4020 -1.0797  0.2726
  110OSM   H12B11303   0.286   2.720  10.790 -0.1423  1.0689  1.1965
  110OSM    C1111304   0.168   2.735  10.969 -0.0472 -0.7860  0.5609
  110OSM   H11A11305   0.156   2.840  10.932  2.9329 -1.1237 -1.6124
  110OSM   H11B11306   0.247   2.751  11.046  0.8681 -1.6084 -0.1945
  110OSM      P11307  -0.093   2.701  10.976 -0.3011 -0.1460 -0.4284
  110OSM    O1311308  -0.180   2.584  11.007  0.0706 -0.5042 -0.4770
  110OSM    O1411309  -0.150   2.830  11.029 -0.7652  0.4546  0.0462
  110OSM    O1111310  -0.066   2.714  10.821  0.4753  0.4881 -0.0160
  110OSM    O1211311   0.054   2.675  11.033  0.3663  0.1703  0.3814
  110OSM    C1S11312  -0.135   2.628  10.728  0.2953 -0.0174 -0.2417
  110OSM    H1S11313  -0.243   2.623  10.756  0.2314  0.1614 -0.4622
  110OSM    H1T11314  -0.093   2.525  10.723  0.1406 -0.0744 -0.3610
  110OSM     NF11315  -0.188   2.606  10.481  0.0631 -0.8727  0.4657
  110OSM    HNF11316  -0.129   2.545  10.430  3.5400  2.1318  0.7090
  110OSM    C2S11317  -0.133   2.693  10.584 -0.3091 -0.3164 -1.2242
  110OSM    H2S11318  -0.203   2.776  10.610  2.0928  0.8812  1.8703
  110OSM    C3S11319   0.018   2.743  10.550 -0.0770  0.3489  0.0121
  110OSM    H3S11320   0.074   2.647  10.545  0.4795  0.7702 -2.0015
  110OSM     O311321   0.068   2.841  10.639  0.1075  0.0608  0.4295
  110OSM    HO311322   0.008   2.834  10.713 -0.1688 -1.1250  0.1127
  110OSM    C4S11323   0.028   2.795  10.410 -0.2536 -0.0071  0.0240
  110OSM    H4S11324   0.075   2.732  10.332 -1.4423 -1.0289  0.1211
  110OSM    C5S11325  -0.011   2.922  10.371  0.8467 -0.7113 -0.4239
  110OSM    H5S11326  -0.031   2.994  10.451  1.2669 -1.4198  0.3303
  110OSM    C6S11327  -0.005   2.991  10.235  0.2098  0.4488  0.8913
  110OSM    H6S11328   0.039   3.091  10.257 -1.7507  1.1272  1.7916
  110OSM    H6T11329  -0.106   3.008  10.192  0.3592  1.6769  1.0007
  110OSM    C7S11330   0.079   2.929  10.125 -0.0870  0.2831 -0.5946
  110OSM    H7S11331   0.038   2.832  10.088  0.9795 -0.5856  0.4733
  110OSM    H7T11332   0.182   2.918  10.163 -0.6354  1.2264  1.1926
  110OSM    C8S11333   0.093   3.023  10.002 -0.0445 -0.8697  0.1798
  110OSM    H8S11334   0.132   3.121  10.038  0.0969 -1.4611  1.6797
  110OSM    H8T11335  -0.001   3.057   9.954 -0.0941 -1.6313 -0.2614
  110OSM    C9S11336   0.203   2.969   9.908 -0.0436 -0.2616 -0.0701
  110OSM    H9S11337   0.172   2.866   9.879 -0.0549  0.0850 -1.3111
  110OSM    H9T11338   0.293   2.945   9.968 -0.5996 -1.6288  0.2415
  110OSM   C10S11339   0.223   3.049   9.783 -0.2773  0.3948  0.3796
  110OSM   H10S11340   0.266   3.147   9.812 -2.6127  1.5394  0.0365
  110OSM   H10T11341   0.127   3.075   9.735  0.1549  2.0560  0.3985
  110OSM   C11S11342   0.313   2.987   9.678 -0.4208 -0.4338 -0.2951
  110OSM   H11S11343   0.395   2.931   9.729  0.2466  1.1843  0.4416
  110OSM   H11T11344   0.370   3.065   9.623 -2.6420  1.1646 -0.3856
  110OSM   C12S11345   0.241   2.898   9.577 -0.1791 -0.0897 -0.4141
  110OSM   H12S11346   0.149   2.951   9.544 -0.4038 -1.2821 -1.7602
  110OSM   H12T11347   0.207   2.804   9.625 -2.2837  0.1263 -1.4580
  110OSM   C13S11348   0.328   2.888   9.448 -0.0144  0.3035  0.5095
  110OSM   H13S11349   0.414   2.819   9.450  0.5193  0.9700  0.7007
  110OSM   H13T11350   0.386   2.980   9.428  1.5548 -1.2957 -2.6354
  110OSM   C14S11351   0.260   2.862   9.319  0.5448  0.6855 -0.5274
  110OSM   H14S11352   0.205   2.956   9.297  1.6899  1.1380 -1.5825
  110OSM   H14T11353   0.185   2.782   9.331  0.2424  0.5424 -3.1085
  110OSM   C15S11354   0.350   2.823   9.204  0.7659  0.4051  0.1474
  110OSM   H15S11355   0.423   2.751   9.247  1.7657  0.9445 -0.6409
  110OSM   H15T11356   0.409   2.910   9.168  0.4464  1.3119  1.7611
  110OSM   C16S11357   0.270   2.778   9.081  0.0524 -0.4278 -0.4280
  110OSM   H16S11358   0.219   2.873   9.052 -1.4111 -0.7859  0.9162
  110OSM   H16T11359   0.188   2.714   9.119 -1.2355  2.0479  1.1214
  110OSM   C17S11360   0.343   2.717   8.963 -0.7288  0.6612 -0.9051
  110OSM   H17S11361   0.265   2.715   8.884 -1.3472 -0.3917 -0.2799
  110OSM   H17T11362   0.376   2.612   8.972 -1.3956  0.4604 -0.7239
  110OSM   C18S11363   0.452   2.817   8.921 -0.2446  0.4493  0.6664
  110OSM   H18S11364   0.528   2.831   9.001 -0.9412  0.2148  1.3723
  110OSM   H18T11365   0.404   2.916   8.902 -0.1562  0.0153 -1.9118
  110OSM   H18U11366   0.500   2.783   8.827 -2.4596  1.3134 -0.8193
  110OSM    C1F11367  -0.316   2.577  10.484  0.6056  0.8246  0.2855
  110OSM     OF11368  -0.391   2.623  10.570  0.1106 -0.0027 -0.3461
  110OSM    C2F11369  -0.356   2.471  10.376 -0.1141  0.5781  0.1050
  110OSM    H2F11370  -0.398   2.526  10.289  1.7079 -0.2865 -1.3459
  110OSM    H2G11371  -0.440   2.411  10.419 -0.4667  0.3218 -0.9285
  110OSM    C3F11372  -0.243   2.375  10.321 -0.6405 -1.0839  0.2678
  110OSM    H3F11373  -0.203   2.311  10.403  0.4114  0.0895  0.6705
  110OSM    H3G11374  -0.167   2.440  10.275  0.9077 -2.9154  0.1873
  110OSM    C4F11375  -0.299   2.278  10.213  0.1925  0.0676  0.8617
  110OSM    H4F11376  -0.388   2.227  10.256 -1.8050  2.6523 -0.0944
  110OSM    H4G11377  -0.225   2.197  10.194 -1.4997 -0.8970 -1.8770
  110OSM    C5F11378  -0.344   2.333  10.085  0.3881  0.6198 -0.0002
  110OSM    H5F11379  -0.263   2.397  10.043  3.1634 -3.4667 -1.1700
  110OSM    H5G11380  -0.422   2.407  10.113  0.6728  0.7592  0.4332
  110OSM    C6F11381  -0.428   2.240  10.000  0.9243 -0.0546 -1.2457
  110OSM    H6F11382  -0.498   2.179  10.061  0.9217 -0.1697 -1.3643
  110OSM    H6G11383  -0.358   2.159   9.969 -0.0844 -0.9907 -1.0987
  110OSM    C7F11384  -0.493   2.311   9.889  0.1973  0.4332 -0.4526
  110OSM    H7F11385  -0.421   2.367   9.826  1.1302 -0.2132  0.0436
  110OSM    H7G11386  -0.574   2.375   9.932  1.8727  3.3906 -1.5538
  110OSM    C8F11387  -0.544   2.205   9.786 -0.5143  0.0414  0.2862
  110OSM    H8F11388  -0.611   2.258   9.715 -2.2666 -2.5986 -0.0921
  110OSM    H8G11389  -0.597   2.131   9.849  1.8657 -0.1361  2.1377
  110OSM    C9F11390  -0.435   2.137   9.709  0.2759  0.3831 -0.5962
  110OSM    H9F11391  -0.343   2.147   9.768 -0.3976  0.2058  0.4948
  110OSM   C10F11392  -0.425   2.108   9.577 -0.0835  0.2016 -0.8831
  110OSM   H10F11393  -0.334   2.054   9.544 -0.0467  0.2530 -0.8658
  110OSM   C11F11394  -0.529   2.126   9.480 -0.3957 -0.0939  0.4451
  110OSM   H11F11395  -0.631   2.133   9.524 -0.2262  3.3049  0.3973
  110OSM   H11G11396  -0.512   2.040   9.412 -1.5024 -0.6975  0.9151
  110OSM   C12F11397  -0.501   2.247   9.390 -0.0425  0.2001  0.5641
  110OSM   H12F11398  -0.491   2.339   9.451  0.0777  0.1647  0.5984
  110OSM   H12G11399  -0.591   2.281   9.333 -0.3756  0.4454  1.2293
  110OSM   C13F11400  -0.382   2.239   9.291  0.5781  0.2203 -1.2884
  110OSM   H13F11401  -0.387   2.136   9.251 -0.6307 -0.8253  1.4819
  110OSM   H13G11402  -0.290   2.254   9.352  1.3024 -3.9697 -1.1983
  110OSM   C14F11403  -0.375   2.342   9.174 -0.4394 -0.4415  0.1400
  110OSM   H14F11404  -0.285   2.321   9.112 -0.9752  2.0148 -1.5492
  110OSM   H14G11405  -0.360   2.440   9.222 -1.1268  0.1845 -0.8953
  110OSM   C15F11406  -0.489   2.356   9.079  0.7648  0.3998 -0.5811
  110OSM   H15F11407  -0.460   2.431   9.002 -0.2375  0.1656 -1.1908
  110OSM   H15G11408  -0.584   2.386   9.129  0.5095  0.5259 -1.1416
  110OSM   C16F11409  -0.523   2.223   9.005 -0.0744 -0.2217 -0.5015
  110OSM   H16F11410  -0.621   2.232   8.952 -1.1625  1.8019  1.7556
  110OSM   H16G11411  -0.546   2.142   9.078  0.1770 -1.3420 -1.6501
  110OSM   C17F11412  -0.411   2.182   8.907 -0.0308  0.6394  0.4300
  110OSM   H17F11413  -0.316   2.171   8.963 -0.7643  0.3383  1.6173
  110OSM   H17G11414  -0.387   2.256   8.827 -1.5328  2.1762  1.3713
  110OSM   C18F11415  -0.435   2.054   8.830  0.7181 -0.6948 -1.0030
  110OSM   H18F11416  -0.376   2.060   8.737  2.3713  0.8090  0.1022
  110OSM   H18G11417  -0.542   2.047   8.799 -0.2337  1.8267  1.4359
  110OSM   H18H11418  -0.397   1.970   8.891  0.2995 -0.5221 -0.4926
  111OSM      N11419   0.991   0.852  10.794  0.1303 -0.3584  0.5774
  111OSM    C1511420   0.959   0.704  10.807  0.7343 -0.2863 -0.4575
  111OSM   H15A11421   1.033   0.649  10.750 -0.1736  0.1452 -2.0768
  111OSM   H15B11422   0.869   0.681  10.752  0.1148  0.9871  0.0050
  111OSM   H15C11423   0.950   0.673  10.910 -0.0199 -0.9109 -0.7174
  111OSM    C1411424   0.875   0.929  10.836 -0.3042 -0.1149  0.7125
  111OSM   H14A11425   0.902   1.031  10.861 -1.0452  0.8597 -2.3046
  111OSM   H14B11426   0.843   0.912  10.938  0.6488  0.2308  1.0702
  111OSM   H14C11427   0.789   0.928  10.771 -0.7311  0.0345  1.2642
  111OSM    C1311428   1.104   0.867  10.894  0.9485 -0.2202 -0.3303
  111OSM   H13A11429   1.131   0.972  10.904 -1.3176  0.6150 -2.4576
  111OSM   H13B11430   1.195   0.810  10.883  1.2177 -0.0440  0.8689
  111OSM   H13C11431   1.067   0.832  10.989 -0.0096  0.3231 -0.4879
  111OSM    C1211432   1.026   0.889  10.651  0.5072 -0.6151  0.5069
  111OSM   H12A11433   0.943   0.867  10.585 -0.9027 -2.9018  2.9441
  111OSM   H12B11434   1.114   0.839  10.612  0.2555 -0.7911  0.1580
  111OSM    C1111435   1.052   1.038  10.623  0.9980  0.5726  0.8248
  111OSM   H11A11436   0.972   1.108  10.656 -0.2171 -0.9979  1.2241
  111OSM   H11B11437   1.065   1.062  10.515  0.5481 -0.9646  0.4178
  111OSM      P11438   1.301   1.054  10.645  0.2640  0.0377 -0.1091
  111OSM    O1311439   1.401   1.090  10.749 -0.1874  0.1554  0.3445
  111OSM    O1411440   1.310   0.907  10.603  0.3754 -0.1481 -0.0382
  111OSM    O1111441   1.324   1.144  10.519 -0.3349 -0.5078  0.2099
  111OSM    O1211442   1.160   1.084  10.705  0.2006 -1.0510  0.4950
  111OSM    C1S11443   1.274   1.277  10.515 -0.7578 -0.5591 -0.0023
  111OSM    H1S11444   1.345   1.335  10.578 -1.2102 -0.3986  0.3650
  111OSM    H1T11445   1.175   1.283  10.564 -1.3162 -2.7310 -0.8003
  111OSM     NF11446   1.172   1.457  10.384  0.1796  0.0591  0.2002
  111OSM    HNF11447   1.074   1.455  10.368 -0.5560  0.4691  4.1986
  111OSM    C2S11448   1.245   1.334  10.368  0.7313 -0.5519  0.4610
  111OSM    H2S11449   1.346   1.349  10.323 -0.1996  0.3381 -1.4276
  111OSM    C3S11450   1.186   1.225  10.274  0.0973 -0.0615  0.3564
  111OSM    H3S11451   1.084   1.200  10.311 -0.2385 -0.2884 -0.7096
  111OSM     O311452   1.262   1.108  10.276 -0.4271  0.1751 -0.3553
  111OSM    HO311453   1.315   1.122  10.354  0.7065  0.7288 -1.1958
  111OSM    C4S11454   1.179   1.280  10.132 -0.0983  0.1207  0.2172
  111OSM    H4S11455   1.082   1.329  10.117 -0.6748 -0.3530  2.3080
  111OSM    C5S11456   1.258   1.266  10.024 -0.3206 -0.4214 -0.2615
  111OSM    H5S11457   1.356   1.219  10.042 -0.3772 -1.0866 -1.6425
  111OSM    C6S11458   1.265   1.311   9.883  1.0405 -0.5216 -0.3274
  111OSM    H6S11459   1.270   1.222   9.817  0.9282 -1.1627  0.5149
  111OSM    H6T11460   1.353   1.374   9.861 -0.8469  2.2349 -0.2807
  111OSM    C7S11461   1.135   1.384   9.835  0.6683  0.1225  0.2686
  111OSM    H7S11462   1.112   1.477   9.891  0.3982  0.4931 -0.4558
  111OSM    H7T11463   1.052   1.313   9.852 -0.7140  0.9257 -2.7581
  111OSM    C8S11464   1.146   1.418   9.685 -0.0996 -0.1929  0.2108
  111OSM    H8S11465   1.237   1.476   9.658  0.1094 -0.2075  0.8797
  111OSM    H8T11466   1.064   1.492   9.667  1.1333  2.2940  4.2314
  111OSM    C9S11467   1.139   1.304   9.585  0.0398 -0.5595 -0.4000
  111OSM    H9S11468   1.065   1.232   9.625  0.0444 -0.2083  0.2599
  111OSM    H9T11469   1.240   1.258   9.592  1.2012  1.9589 -0.0428
  111OSM   C10S11470   1.120   1.365   9.446 -0.2114 -0.5451  0.3172
  111OSM   H10S11471   1.210   1.417   9.408 -1.3599  0.8733 -0.5136
  111OSM   H10T11472   1.037   1.438   9.448  1.8017  1.7699  1.9309
  111OSM   C11S11473   1.084   1.268   9.343  1.0365  0.6015  0.2845
  111OSM   H11S11474   1.007   1.197   9.382  1.0939  0.1329 -0.4404
  111OSM   H11T11475   1.161   1.195   9.309 -1.0602 -1.0785 -0.9870
  111OSM   C12S11476   1.029   1.332   9.207 -0.4675 -0.2694  0.7306
  111OSM   H12S11477   0.958   1.415   9.228 -0.4659 -0.5260  1.8012
  111OSM   H12T11478   0.980   1.256   9.142 -0.1802  1.2608 -1.3171
  111OSM   C13S11479   1.139   1.395   9.118  0.3458  0.1441  0.1986
  111OSM   H13S11480   1.192   1.476   9.172  0.5163 -1.2136  2.1301
  111OSM   H13T11481   1.102   1.445   9.026  0.3742 -1.2107 -0.5677
  111OSM   C14S11482   1.249   1.299   9.081 -0.0870  0.0810  0.0992
  111OSM   H14S11483   1.216   1.207   9.028  0.5332 -1.9370  3.0847
  111OSM   H14T11484   1.308   1.269   9.170  2.6014 -2.2450 -2.3762
  111OSM   C15S11485   1.361   1.368   8.995 -0.3996  0.2446 -0.8174
  111OSM   H15S11486   1.405   1.459   9.042 -3.3401  0.2857  2.0306
  111OSM   H15T11487   1.307   1.406   8.906 -1.2229 -0.6951 -0.7267
  111OSM   C16S11488   1.475   1.264   8.968  0.4862 -0.1573 -0.5693
  111OSM   H16S11489   1.452   1.201   8.879 -1.1894  1.0845 -1.0493
  111OSM   H16T11490   1.487   1.195   9.054 -0.5837 -0.9984 -1.0719
  111OSM   C17S11491   1.613   1.326   8.950 -0.4220 -0.0500  0.9685
  111OSM   H17S11492   1.651   1.381   9.039 -2.7051  0.5773  1.5809
  111OSM   H17T11493   1.617   1.395   8.862 -2.4650 -0.0615  0.8582
  111OSM   C18S11494   1.715   1.210   8.927 -0.0746  0.0202 -0.2859
  111OSM   H18S11495   1.686   1.141   8.845 -1.6340  0.5144 -0.1706
  111OSM   H18T11496   1.724   1.152   9.022  2.8910  0.4702 -0.2499
  111OSM   H18U11497   1.819   1.248   8.919 -0.1184  0.7840  2.2196
  111OSM    C1F11498   1.222   1.575  10.415 -0.1234 -0.3494  0.4089
  111OSM     OF11499   1.324   1.586  10.481 -0.5359  0.7055 -0.2827
  111OSM    C2F11500   1.152   1.692  10.361 -0.4128 -0.1167 -0.0865
  111OSM    H2F11501   1.057   1.697  10.418 -1.3982  1.1798 -1.7730
  111OSM    H2G11502   1.119   1.667  10.258  0.9291 -1.1962 -0.2754
  111OSM    C3F11503   1.235   1.817  10.367 -0.0495  0.1828 -0.0084
  111OSM    H3F11504   1.332   1.805  10.314 -0.8380 -2.7122 -0.9041
  111OSM    H3G11505   1.257   1.840  10.473  0.0075  0.1546 -0.0129
  111OSM    C4F11506   1.159   1.944  10.316 -0.5333  0.0809  0.1499
  111OSM    H4F11507   1.227   2.031  10.308 -0.7619  0.4610  2.1315
  111OSM    H4G11508   1.072   1.962  10.382 -0.2118 -3.3567  1.6169
  111OSM    C5F11509   1.109   1.928  10.168  0.4506 -0.4320 -0.7543
  111OSM    H5F11510   1.068   2.026  10.135  1.7450  0.0671 -0.9023
  111OSM    H5G11511   1.029   1.851  10.165  0.7818 -0.8538  0.8772
  111OSM    C6F11512   1.230   1.892  10.074  0.1871 -0.3436 -0.1826
  111OSM    H6F11513   1.265   1.793  10.110 -2.0257  0.1496  3.6995
  111OSM    H6G11514   1.305   1.973  10.090  0.1287 -0.6428  1.7094
  111OSM    C7F11515   1.183   1.877   9.930  0.5815 -1.1576 -0.4601
  111OSM    H7F11516   1.150   1.977   9.895  0.3595 -1.7135 -1.8914
  111OSM    H7G11517   1.099   1.806   9.916 -0.7854  0.5243 -0.9190
  111OSM    C8F11518   1.295   1.817   9.842  0.6679  0.2856  0.1367
  111OSM    H8F11519   1.319   1.715   9.881  0.2161 -0.5023 -1.5986
  111OSM    H8G11520   1.391   1.872   9.848  1.7727 -1.9215  5.0329
  111OSM    C9F11521   1.253   1.820   9.698  0.4858  0.5369  0.4799
  111OSM    H9F11522   1.162   1.759   9.681  0.5845  0.4297  0.3338
  111OSM   C10F11523   1.290   1.905   9.601  0.5317 -0.9190 -0.0983
  111OSM   H10F11524   1.234   1.887   9.507  0.5862 -0.0994 -0.2912
  111OSM   C11F11525   1.390   2.018   9.602 -0.1551  0.5387 -0.2120
  111OSM   H11F11526   1.400   2.067   9.701 -2.3884  0.6420 -0.0127
  111OSM   H11G11527   1.362   2.092   9.523  0.2906  0.3859 -0.5147
  111OSM   C12F11528   1.534   1.983   9.567  0.1346 -0.3283 -0.6998
  111OSM   H12F11529   1.526   1.925   9.473 -0.7108  1.2456 -1.6223
  111OSM   H12G11530   1.589   1.923   9.643  3.5606 -0.3288 -3.0637
  111OSM   C13F11531   1.626   2.104   9.544 -0.5045 -0.3250  0.5662
  111OSM   H13F11532   1.638   2.161   9.638 -0.4601  0.4385  0.1011
  111OSM   H13G11533   1.580   2.176   9.473  1.8512  3.1209  2.3958
  111OSM   C14F11534   1.764   2.064   9.492 -0.2925  0.3874  0.1271
  111OSM   H14F11535   1.798   1.981   9.558 -1.9448  0.0679  0.5849
  111OSM   H14G11536   1.831   2.148   9.522 -0.0507 -0.3296  1.6377
  111OSM   C15F11537   1.773   2.023   9.349  0.1637  0.4143 -0.0033
  111OSM   H15F11538   1.722   2.100   9.288 -1.4252 -0.9608 -0.4480
  111OSM   H15G11539   1.740   1.918   9.335 -0.8068  0.7065  0.0336
  111OSM   C16F11540   1.921   2.027   9.302  0.4939  0.1868 -0.2714
  111OSM   H16F11541   1.990   1.957   9.356  2.0765  1.0401 -1.1575
  111OSM   H16G11542   1.955   2.131   9.322 -3.2390  1.8173 -2.0081
  111OSM   C17F11543   1.952   2.011   9.149  0.2294  0.0629  0.2723
  111OSM   H17F11544   1.913   1.909   9.131 -0.1929  0.6609 -2.4699
  111OSM   H17G11545   2.058   2.009   9.115  0.5815 -0.4103  1.3785
  111OSM   C18F11546   1.861   2.093   9.059  0.0539  0.5871 -0.9023
  111OSM   H18F11547   1.890   2.200   9.059 -3.0885  1.5273  0.3506
  111OSM   H18G11548   1.753   2.088   9.086  0.1987  1.3905 -0.1245
  111OSM   H18H11549   1.854   2.062   8.953  0.3616 -0.5022 -0.6040
  112OSM      N11550   0.488   6.554  10.992  0.7583 -1.2643  0.4434
  112OSM    C1511551   0.609   6.532  11.081 -0.2624  0.5403  0.6264
  112OSM   H15A11552   0.616   6.429  11.114  1.4852  1.2568  2.5998
  112OSM   H15B11553   0.614   6.595  11.169 -1.4026 -1.5257  2.2418
  112OSM   H15C11554   0.698   6.541  11.022 -0.4702 -0.2396  0.1854
  112OSM    C1411555   0.365   6.526  11.068 -0.4191 -0.4719 -0.0131
  112OSM   H14A11556   0.377   6.431  11.119 -0.3786 -0.8590 -0.7371
  112OSM   H14B11557   0.278   6.531  11.005 -1.4925 -1.6502  1.3494
  112OSM   H14C11558   0.351   6.602  11.143 -0.4239 -0.9997  0.5253
  112OSM    C1311559   0.484   6.690  10.938  0.3164 -0.2033 -0.0470
  112OSM   H13A11560   0.407   6.714  10.866 -0.1893  1.6055  1.0483
  112OSM   H13B11561   0.579   6.701  10.888 -0.1336 -0.2817 -0.9333
  112OSM   H13C11562   0.479   6.764  11.017  0.4444  0.5737 -0.7693
  112OSM    C1211563   0.499   6.451  10.881  0.0641 -0.6132  0.6206
  112OSM   H12A11564   0.522   6.358  10.930 -1.2364 -0.6878  1.1131
  112OSM   H12B11565   0.583   6.466  10.816  0.0770  0.1797  0.8158
  112OSM    C1111566   0.379   6.434  10.782 -0.2240  0.0092 -0.0438
  112OSM   H11A11567   0.411   6.379  10.691 -0.1547 -0.7714  0.4461
  112OSM   H11B11568   0.352   6.537  10.752 -0.7571 -0.4335 -1.1132
  112OSM      P11569   0.259   6.226  10.864 -0.7711  0.0153  0.2269
  112OSM    O1311570   0.354   6.201  10.975 -0.4384  0.5554 -0.8479
  112OSM    O1411571   0.118   6.195  10.895  0.0234  0.0512 -0.1278
  112OSM    O1111572   0.294   6.146  10.728  0.0150 -0.7608 -0.8423
  112OSM    O1211573   0.261   6.377  10.832  0.2059  0.1104 -0.3457
  112OSM    C1S11574   0.210   6.167  10.614  0.7586  0.2402 -0.2835
  112OSM    H1S11575   0.254   6.253  10.558  0.7278  1.3415  1.3378
  112OSM    H1T11576   0.102   6.184  10.630  0.1501 -1.2645 -2.7087
  112OSM     NF11577   0.146   6.078  10.390 -0.3654 -0.3770  0.4788
  112OSM    HNF11578   0.054   6.041  10.382 -1.1578  1.3943  1.0526
  112OSM    C2S11579   0.217   6.049  10.515  0.9236  0.7159  0.0011
  112OSM    H2S11580   0.324   6.040  10.488  0.7176 -2.2174  0.0209
  112OSM    C3S11581   0.171   5.917  10.589 -0.6593 -0.0007 -1.0007
  112OSM    H3S11582   0.062   5.917  10.607 -0.4225 -0.3871  0.5475
  112OSM     O311583   0.235   5.888  10.718 -0.0520  0.1140  0.0569
  112OSM    HO311584   0.263   5.978  10.737 -0.1612  0.0968  0.2913
  112OSM    C4S11585   0.201   5.800  10.493  0.4725  0.4426  0.7279
  112OSM    H4S11586   0.306   5.781  10.468 -0.0817 -1.6426 -0.1056
  112OSM    C5S11587   0.106   5.716  10.449  0.0669 -0.6845  0.5334
  112OSM    H5S11588   0.004   5.721  10.491  1.0769  0.7472  2.9313
  112OSM    C6S11589   0.137   5.601  10.359  0.1114  0.5428  0.0685
  112OSM    H6S11590   0.063   5.520  10.375 -0.0521  0.8449  0.8720
  112OSM    H6T11591   0.228   5.542  10.386  2.8012  3.3341 -2.5652
  112OSM    C7S11592   0.143   5.630  10.207 -0.4866 -0.3623 -0.1552
  112OSM    H7S11593   0.239   5.682  10.184 -0.7689 -0.1035 -0.7643
  112OSM    H7T11594   0.064   5.706  10.188 -0.8093 -0.8384 -0.6910
  112OSM    C8S11595   0.130   5.507  10.124 -0.1411  0.5954  0.2920
  112OSM    H8S11596   0.046   5.448  10.168  1.4108 -0.1107  2.3634
  112OSM    H8T11597   0.223   5.447  10.127 -0.9773 -0.6644  1.8438
  112OSM    C9S11598   0.100   5.541   9.981  0.2600 -0.3742  0.7647
  112OSM    H9S11599   0.188   5.583   9.928  0.5492 -0.8171  0.8966
  112OSM    H9T11600   0.015   5.612   9.969  0.1757 -0.5164  0.5074
  112OSM   C10S11601   0.075   5.417   9.898  0.2640  0.3622  0.0895
  112OSM   H10S11602  -0.017   5.366   9.935 -0.4454  1.5680  0.0054
  112OSM   H10T11603   0.164   5.352   9.909  1.9064  2.7357  1.2859
  112OSM   C11S11604   0.060   5.435   9.748  0.2447  0.1511  0.6388
  112OSM   H11S11605   0.106   5.350   9.694  0.1583  0.1103  0.6294
  112OSM   H11T11606   0.116   5.528   9.725 -1.4162  1.1449  0.4783
  112OSM   C12S11607  -0.081   5.452   9.702  0.1469  0.2705  0.0698
  112OSM   H12S11608  -0.104   5.553   9.741 -0.1982  0.8596 -1.6286
  112OSM   H12T11609  -0.149   5.379   9.752 -0.5552  0.7620 -0.1577
  112OSM   C13S11610  -0.096   5.446   9.551  0.1985  1.3121  0.2904
  112OSM   H13S11611  -0.070   5.346   9.511 -2.4040  1.4397 -1.8396
  112OSM   H13T11612  -0.027   5.513   9.495  0.2275 -0.5613 -1.9850
  112OSM   C14S11613  -0.244   5.469   9.510  0.5072  0.6049  0.0380
  112OSM   H14S11614  -0.300   5.528   9.586  0.2474 -0.7827  0.9544
  112OSM   H14T11615  -0.297   5.371   9.516 -0.0056  0.9668  1.6490
  112OSM   C15S11616  -0.248   5.524   9.365  0.5432 -0.0711 -0.0116
  112OSM   H15S11617  -0.199   5.448   9.301  0.1230 -1.7397  1.5897
  112OSM   H15T11618  -0.193   5.619   9.350  1.0652 -0.5456 -1.1206
  112OSM   C16S11619  -0.392   5.543   9.317  0.3988 -0.3758 -0.8932
  112OSM   H16S11620  -0.424   5.637   9.366 -0.1983 -0.3144 -1.3925
  112OSM   H16T11621  -0.454   5.460   9.358 -1.2691  1.3904  0.2281
  112OSM   C17S11622  -0.410   5.538   9.170  0.4441 -0.1238  0.1875
  112OSM   H17S11623  -0.390   5.435   9.131 -2.1053 -0.9423  0.9616
  112OSM   H17T11624  -0.336   5.602   9.117  0.0993 -0.8762 -1.2476
  112OSM   C18S11625  -0.543   5.589   9.113 -0.0081  0.7815  0.3394
  112OSM   H18S11626  -0.541   5.569   9.004 -1.6168  0.4915  0.3521
  112OSM   H18T11627  -0.556   5.695   9.141  2.3303  1.0389  0.5573
  112OSM   H18U11628  -0.628   5.534   9.158 -0.5157  2.1189  1.0319
  112OSM    C1F11629   0.183   6.176  10.309 -0.7800  0.2169 -0.6254
  112OSM     OF11630   0.298   6.214  10.315 -0.1702 -0.6721 -0.5041
  112OSM    C2F11631   0.085   6.214  10.214  0.0521  1.0065  0.6865
  112OSM    H2F11632   0.119   6.302  10.155 -0.8715 -0.5163 -2.1805
  112OSM    H2G11633  -0.016   6.206  10.262 -1.1247 -1.4916 -2.0601
  112OSM    C3F11634   0.084   6.110  10.095 -0.1265  0.2655 -0.3457
  112OSM    H3F11635   0.070   6.003  10.122  0.3757  0.1336 -0.6061
  112OSM    H3G11636   0.183   6.107  10.046  0.9757 -1.1012  1.8961
  112OSM    C4F11637  -0.015   6.137   9.985 -0.0049 -0.4317 -0.2966
  112OSM    H4F11638  -0.019   6.244   9.956 -0.1237 -0.8268 -1.7493
  112OSM    H4G11639  -0.115   6.119  10.030  0.0924  0.1401  0.1561
  112OSM    C5F11640  -0.003   6.054   9.863  0.1878  0.4221 -0.5002
  112OSM    H5F11641   0.003   5.946   9.891  0.5668  1.2773  2.9698
  112OSM    H5G11642   0.097   6.079   9.823  1.3460 -2.0212  0.7345
  112OSM    C6F11643  -0.115   6.065   9.763 -0.5430 -0.6522 -0.1109
  112OSM    H6F11644  -0.140   6.169   9.736 -1.0248 -0.9445 -0.7865
  112OSM    H6G11645  -0.198   6.026   9.825  0.2147 -2.2363 -0.0558
  112OSM    C7F11646  -0.098   5.982   9.637  0.2399  0.4509 -0.4316
  112OSM    H7F11647  -0.055   5.885   9.669  1.6918  1.1809 -0.0897
  112OSM    H7G11648  -0.017   6.027   9.576  0.1602  1.1962  0.0088
  112OSM    C8F11649  -0.233   5.966   9.563  0.1224  0.0809 -0.6716
  112OSM    H8F11650  -0.267   6.066   9.530 -2.7824 -0.8442 -0.6384
  112OSM    H8G11651  -0.319   5.931   9.623 -0.3010  1.1539 -0.6572
  112OSM    C9F11652  -0.208   5.866   9.454  0.3591  0.1690 -0.0024
  112OSM    H9F11653  -0.183   5.764   9.488  0.7709 -0.1538 -1.2622
  112OSM   C10F11654  -0.238   5.885   9.323  0.1506  0.1056  1.6184
  112OSM   H10F11655  -0.211   5.809   9.249 -1.7748  2.0181 -1.1355
  112OSM   C11F11656  -0.303   6.000   9.252 -0.2107  0.1148  0.9508
  112OSM   H11F11657  -0.233   6.064   9.194  0.0537  1.3309  2.5624
  112OSM   H11G11658  -0.360   6.060   9.326  1.5909  0.5104  2.0432
  112OSM   C12F11659  -0.407   5.959   9.148 -1.1931  0.4480  0.1173
  112OSM   H12F11660  -0.481   5.891   9.194  0.0826 -0.1926  1.2501
  112OSM   H12G11661  -0.368   5.904   9.060  1.1117 -0.3135  1.5842
  112OSM   C13F11662  -0.476   6.079   9.082  0.5671  0.2224  0.1454
  112OSM   H13F11663  -0.404   6.158   9.053  1.2058 -0.0613  0.9401
  112OSM   H13G11664  -0.535   6.126   9.162 -0.3610  0.7698 -0.8547
  112OSM   C14F11665  -0.571   6.033   8.967  0.2395 -0.3961 -0.2735
  112OSM   H14F11666  -0.650   5.976   9.020  0.7463 -1.6446 -0.8540
  112OSM   H14G11667  -0.518   5.962   8.901 -0.4013 -0.6676 -0.5016
  112OSM   C15F11668  -0.630   6.151   8.891  0.5357  0.7189  0.6026
  112OSM   H15F11669  -0.692   6.105   8.811 -1.5370  1.2386  1.8684
  112OSM   H15G11670  -0.548   6.208   8.842  1.3125  1.0898  2.2949
  112OSM   C16F11671  -0.729   6.234   8.981 -0.5002 -0.0617 -0.6702
  112OSM   H16F11672  -0.677   6.287   9.063 -2.4063  0.1732  0.4082
  112OSM   H16G11673  -0.805   6.164   9.022  0.6394 -0.6542  0.4611
  112OSM   C17F11674  -0.790   6.342   8.894  0.4265 -0.1159  0.1330
  112OSM   H17F11675  -0.711   6.397   8.839  0.7758  0.4098  1.1489
  112OSM   H17G11676  -0.834   6.410   8.970  1.0556  0.0683  0.3272
  112OSM   C18F11677  -0.897   6.300   8.794 -0.1064 -0.1319  0.5119
  112OSM   H18F11678  -1.002   6.302   8.830 -0.1208  0.3737  0.4469
  112OSM   H18G11679  -0.870   6.199   8.754  3.2898  1.0220 -0.2214
  112OSM   H18H11680  -0.898   6.370   8.707 -0.5119 -2.5914 -1.5373
  113OSM      N11681   1.544   5.199  10.941  0.3137 -0.3846 -0.4471
  113OSM    C1511682   1.497   5.341  10.950 -0.9815  0.1383  0.4864
  113OSM   H15A11683   1.572   5.401  10.999 -1.8394  0.9098  0.8564
  113OSM   H15B11684   1.408   5.345  11.011 -0.2196 -0.6806  1.6754
  113OSM   H15C11685   1.479   5.388  10.854  2.8450  0.8526  0.0215
  113OSM    C1411686   1.665   5.194  10.851  0.9819  0.2058 -0.3836
  113OSM   H14A11687   1.649   5.226  10.750 -2.6462  2.9645  0.9490
  113OSM   H14B11688   1.719   5.100  10.850 -2.4168 -1.8496 -0.6590
  113OSM   H14C11689   1.735   5.267  10.889  0.9497 -0.0103  0.0960
  113OSM    C1311690   1.590   5.173  11.084 -0.1535  0.8854  0.1099
  113OSM   H13A11691   1.635   5.075  11.093  1.1670  1.4037 -0.7847
  113OSM   H13B11692   1.502   5.181  11.146 -0.4061  0.4301 -0.1850
  113OSM   H13C11693   1.671   5.240  11.109 -0.1747  0.7149  0.6503
  113OSM    C1211694   1.425   5.114  10.896  0.5038  0.4719 -0.3631
  113OSM   H12A11695   1.453   5.010  10.892  0.2174  0.2346  2.5137
  113OSM   H12B11696   1.383   5.154  10.805 -2.1898  2.3025  1.5957
  113OSM    C1111697   1.308   5.114  10.998 -0.8025 -0.6523 -0.0731
  113OSM   H11A11698   1.337   5.107  11.105 -1.8682 -0.5514  0.2286
  113OSM   H11B11699   1.248   5.022  10.978 -0.0043 -0.8934 -1.4147
  113OSM      P11700   1.076   5.238  10.998 -0.3614  0.5761 -0.0046
  113OSM    O1311701   1.031   5.174  11.128 -0.0091 -1.1128  0.3938
  113OSM    O1411702   1.027   5.369  10.958 -0.0846  0.1755  0.3817
  113OSM    O1111703   1.034   5.140  10.882 -0.2426  0.4650 -0.0368
  113OSM    O1211704   1.232   5.237  10.984 -0.6101  0.3173 -0.2736
  113OSM    C1S11705   1.072   5.153  10.741  0.2357  0.3946 -0.3785
  113OSM    H1S11706   1.167   5.097  10.725  0.3217  0.1229  0.9987
  113OSM    H1T11707   1.077   5.262  10.721 -0.2454  0.3001 -1.0047
  113OSM     NF11708   0.976   5.112  10.515 -0.0498 -0.3924  0.1673
  113OSM    HNF11709   0.918   5.185  10.480 -1.2813 -2.0565 -1.3864
  113OSM    C2S11710   0.961   5.083  10.658 -0.1185 -0.0970  0.0926
  113OSM    H2S11711   0.972   4.974  10.672  0.6085 -0.2222 -1.3783
  113OSM    C3S11712   0.814   5.124  10.713 -0.3526  0.3790 -0.4239
  113OSM    H3S11713   0.796   5.233  10.707  0.6194  0.7057  2.1255
  113OSM     O311714   0.788   5.078  10.849  0.7179  0.1129  0.5247
  113OSM    HO311715   0.876   5.061  10.884  0.6744 -0.9092  0.1561
  113OSM    C4S11716   0.697   5.071  10.628  0.4150 -0.5700  0.5481
  113OSM    H4S11717   0.668   5.139  10.547  0.7137 -1.4227 -0.2977
  113OSM    C5S11718   0.618   4.958  10.651 -0.9931 -0.5270  0.4174
  113OSM    H5S11719   0.632   4.904  10.746 -1.3834 -2.1036 -0.4101
  113OSM    C6S11720   0.504   4.909  10.566 -0.3345  0.0632 -0.1039
  113OSM    H6S11721   0.411   4.898  10.626 -0.7310 -0.9129 -0.8803
  113OSM    H6T11722   0.533   4.808  10.528  2.0942  0.1559  1.3672
  113OSM    C7S11723   0.488   5.001  10.445  0.5828 -1.1042 -0.2188
  113OSM    H7S11724   0.582   5.019  10.387  1.4808 -0.9844  1.2449
  113OSM    H7T11725   0.435   5.090  10.484 -2.9165 -2.0674 -2.5652
  113OSM    C8S11726   0.385   4.941  10.346 -0.5329  0.0638 -0.1800
  113OSM    H8S11727   0.337   5.030  10.299  1.1930  1.3561  0.4348
  113OSM    H8T11728   0.301   4.889  10.395  0.7571  0.9121  3.0762
  113OSM    C9S11729   0.463   4.861  10.234 -0.1306  0.5098  0.3238
  113OSM    H9S11730   0.502   4.762  10.268  1.0129  0.8274 -0.0224
  113OSM    H9T11731   0.558   4.916  10.214 -1.1557  2.6989  1.3367
  113OSM   C10S11732   0.374   4.834  10.111  0.4255  0.4180 -0.2180
  113OSM   H10S11733   0.374   4.931  10.057 -1.6961 -0.6484 -2.1941
  113OSM   H10T11734   0.275   4.811  10.155  0.0895  1.0989 -0.6067
  113OSM   C11S11735   0.443   4.734  10.016  0.4118  0.0408 -0.2841
  113OSM   H11S11736   0.464   4.637  10.064 -1.4170  0.6389  1.8466
  113OSM   H11T11737   0.539   4.780   9.985  1.1628  0.3654  2.4466
  113OSM   C12S11738   0.352   4.706   9.903 -0.3690 -0.4467  0.2996
  113OSM   H12S11739   0.401   4.646   9.824  0.4846  2.6780 -1.6602
  113OSM   H12T11740   0.321   4.798   9.849 -0.5625 -0.0790  1.0227
  113OSM   C13S11741   0.219   4.636   9.943  0.9438 -0.7318  0.1946
  113OSM   H13S11742   0.158   4.722   9.978  0.4916 -1.0590  0.2201
  113OSM   H13T11743   0.246   4.566  10.025 -0.8637 -0.7460  0.8022
  113OSM   C14S11744   0.150   4.562   9.824  0.2173 -0.0067 -0.2851
  113OSM   H14S11745   0.217   4.483   9.784  0.9013 -0.8338  2.4008
  113OSM   H14T11746   0.139   4.636   9.741  0.1382 -0.0264 -0.2925
  113OSM   C15S11747   0.011   4.506   9.854  0.1652  0.5360 -0.0143
  113OSM   H15S11748  -0.034   4.583   9.920 -0.1885  0.9971 -0.7840
  113OSM   H15T11749   0.019   4.407   9.905  0.6015  0.8527  0.5367
  113OSM   C16S11750  -0.072   4.501   9.722 -0.5362  0.1495 -0.3590
  113OSM   H16S11751  -0.008   4.447   9.649  1.0334  0.8385  0.4619
  113OSM   H16T11752  -0.095   4.603   9.684  0.7205  0.4065 -0.4652
  113OSM   C17S11753  -0.209   4.435   9.739  0.2986  0.3148 -0.4744
  113OSM   H17S11754  -0.259   4.485   9.825  1.1668 -0.6077  0.5830
  113OSM   H17T11755  -0.202   4.328   9.766  1.0563  0.5784  0.3787
  113OSM   C18S11756  -0.285   4.453   9.607 -0.2299 -0.1810 -0.1130
  113OSM   H18S11757  -0.312   4.559   9.589  0.9332 -0.2418 -2.4361
  113OSM   H18T11758  -0.378   4.392   9.611  0.2010 -0.7583  2.1326
  113OSM   H18U11759  -0.231   4.406   9.522 -1.8180  0.8181 -1.6959
  113OSM    C1F11760   1.074   5.069  10.438  0.6449 -0.5863 -0.2011
  113OSM     OF11761   1.155   4.990  10.488 -0.1698  0.1902  0.4065
  113OSM    C2F11762   1.079   5.125  10.299  0.1920  0.2627  0.5436
  113OSM    H2F11763   1.134   5.221  10.292 -0.0923  0.6314  2.9306
  113OSM    H2G11764   0.986   5.138  10.240  0.3923 -0.7083  0.0079
  113OSM    C3F11765   1.163   5.032  10.207  0.0812  0.4572 -0.2697
  113OSM    H3F11766   1.117   4.933  10.227 -0.5377  0.4767 -1.5328
  113OSM    H3G11767   1.268   5.026  10.243 -0.7952  1.2090  2.5237
  113OSM    C4F11768   1.163   5.061  10.056  0.0148 -0.1357  0.1694
  113OSM    H4F11769   1.223   5.151  10.029  1.9490 -1.1145  1.1260
  113OSM    H4G11770   1.060   5.084  10.020  0.4388 -0.3683 -1.2211
  113OSM    C5F11771   1.212   4.929   9.983  0.0856 -0.5315 -0.7712
  113OSM    H5F11772   1.159   4.838  10.017  3.1928 -3.0591 -2.4620
  113OSM    H5G11773   1.317   4.916  10.016  0.0170 -0.0874 -0.3614
  113OSM    C6F11774   1.186   4.952   9.830 -1.4055  0.2165 -0.0075
  113OSM    H6F11775   1.249   5.037   9.795 -2.8112  2.0412  1.7636
  113OSM    H6G11776   1.078   4.972   9.813 -1.5667  0.3977  1.2130
  113OSM    C7F11777   1.237   4.831   9.754 -0.7463 -0.6553 -0.5381
  113OSM    H7F11778   1.205   4.742   9.814 -0.4815 -0.4370 -0.0677
  113OSM    H7G11779   1.347   4.827   9.742 -0.5845  1.7663 -0.0682
  113OSM    C8F11780   1.181   4.821   9.618 -0.0058 -0.6944 -0.5035
  113OSM    H8F11781   1.071   4.810   9.628  0.2407 -0.7538  3.0521
  113OSM    H8G11782   1.203   4.727   9.565  1.1958 -1.2727  0.9701
  113OSM    C9F11783   1.202   4.939   9.524  0.2977  0.1265 -0.2317
  113OSM    H9F11784   1.195   5.037   9.574 -1.2830  0.4289 -1.0155
  113OSM   C10F11785   1.223   4.936   9.389  0.1121  0.4902  0.3561
  113OSM   H10F11786   1.229   5.037   9.345 -3.1143  0.5369 -0.0513
  113OSM   C11F11787   1.238   4.815   9.298 -0.0488  0.2937  0.1603
  113OSM   H11F11788   1.242   4.723   9.361 -1.6191  0.7877  1.0079
  113OSM   H11G11789   1.335   4.837   9.249  0.2985  1.0510  1.1728
  113OSM   C12F11790   1.131   4.788   9.191 -0.2594  0.0794 -0.3351
  113OSM   H12F11791   1.028   4.782   9.232 -0.7176  0.7497 -1.3706
  113OSM   H12G11792   1.145   4.691   9.138  1.0116 -0.7228  1.3989
  113OSM   C13F11793   1.133   4.899   9.083  0.7445 -0.1759  0.0742
  113OSM   H13F11794   1.226   4.879   9.027  0.9569  0.8206  0.0686
  113OSM   H13G11795   1.132   5.006   9.113  0.3696  0.1964 -1.1968
  113OSM   C14F11796   1.016   4.877   8.992 -0.7471 -0.1763  0.1878
  113OSM   H14F11797   0.921   4.869   9.049  0.0859  1.6117  1.8798
  113OSM   H14G11798   1.043   4.793   8.925 -0.8037  1.7521 -2.3421
  113OSM   C15F11799   1.005   5.000   8.901  1.1738  1.7117  0.2045
  113OSM   H15F11800   1.103   5.023   8.854  0.7705  1.5186 -0.7481
  113OSM   H15G11801   0.977   5.080   8.973 -0.4119  1.0179  0.3725
  113OSM   C16F11802   0.905   4.982   8.782  0.4431 -0.1938  1.2424
  113OSM   H16F11803   0.942   4.897   8.721 -1.8436 -1.7309  1.9291
  113OSM   H16G11804   0.905   5.076   8.724 -0.9986 -0.1208  1.3604
  113OSM   C17F11805   0.762   4.941   8.814 -1.0361 -0.6844  0.1340
  113OSM   H17F11806   0.735   4.978   8.915  1.0777 -3.8629  1.9532
  113OSM   H17G11807   0.755   4.831   8.829  1.0115 -0.5510  2.2327
  113OSM   C18F11808   0.660   4.978   8.705  0.1131 -0.2340 -0.0583
  113OSM   H18F11809   0.558   4.946   8.736  0.0766  0.8129  0.9134
  113OSM   H18G11810   0.671   4.918   8.612 -1.1488  0.8929 -0.9458
  113OSM   H18H11811   0.649   5.088   8.697 -1.4405 -0.3648 -0.0487
  114OSM      N11812   0.408   4.385  11.478 -0.3942  0.9573  0.1197
  114OSM    C1511813   0.317   4.374  11.598  0.0277 -0.2701 -0.4875
  114OSM   H15A11814   0.354   4.417  11.690 -0.5185 -0.2851 -0.2635
  114OSM   H15B11815   0.306   4.268  11.614 -3.2629  0.2338  0.8164
  114OSM   H15C11816   0.223   4.420  11.574  1.0151  2.1630  0.1612
  114OSM    C1411817   0.327   4.341  11.360  0.0920 -0.4652 -0.4091
  114OSM   H14A11818   0.316   4.235  11.342 -2.7164 -0.1127 -1.0087
  114OSM   H14B11819   0.371   4.394  11.277  1.6696  0.5416  1.0447
  114OSM   H14C11820   0.226   4.380  11.354 -0.1669 -1.4960 -6.0997
  114OSM    C1311821   0.447   4.528  11.455  0.8928 -0.5875  0.6768
  114OSM   H13A11822   0.494   4.564  11.546 -0.8260  1.4403  0.8029
  114OSM   H13B11823   0.363   4.594  11.437  0.7028 -0.5502  1.6406
  114OSM   H13C11824   0.520   4.538  11.376 -0.8838 -0.0606 -0.9468
  114OSM    C1211825   0.525   4.299  11.501  0.5990  0.1933 -0.0303
  114OSM   H12A11826   0.487   4.208  11.546 -1.2044  0.4515 -0.9855
  114OSM   H12B11827   0.593   4.345  11.570 -1.1673  1.5140  0.8604
  114OSM    C1111828   0.608   4.252  11.377 -0.0179 -0.5124  0.3964
  114OSM   H11A11829   0.629   4.322  11.294 -0.9036 -2.5275 -1.5813
  114OSM   H11B11830   0.548   4.166  11.342 -0.1662 -0.8008  1.3424
  114OSM      P11831   0.784   4.068  11.426 -0.1737 -0.2056 -0.0641
  114OSM    O1311832   0.916   4.074  11.488 -0.9048  0.0066  0.0092
  114OSM    O1411833   0.679   3.983  11.488  0.3340  0.1541  0.3644
  114OSM    O1111834   0.804   4.034  11.274  0.7550 -0.0801  0.1668
  114OSM    O1211835   0.732   4.223  11.430 -0.3914  0.4666  0.0469
  114OSM    C1S11836   0.899   4.111  11.194 -0.1041 -0.5539  0.5888
  114OSM    H1S11837   0.997   4.074  11.230  0.5549 -1.0411 -1.6295
  114OSM    H1T11838   0.889   4.222  11.186  0.3642 -0.5808 -0.5040
  114OSM     NF11839   1.010   4.128  10.966  0.2827 -0.7307 -0.4924
  114OSM    HNF11840   0.993   4.188  10.889 -1.2344 -2.1996 -1.3388
  114OSM    C2S11841   0.897   4.080  11.044 -0.3984 -0.3887  0.3889
  114OSM    H2S11842   0.909   3.970  11.036  0.1576 -0.4769  2.2595
  114OSM    C3S11843   0.754   4.124  10.982  0.9976 -0.2786  0.0264
  114OSM    H3S11844   0.743   4.232  11.004 -1.0756 -0.5744  0.5408
  114OSM     O311845   0.641   4.064  11.048 -0.3694  0.8069 -0.6279
  114OSM    HO311846   0.680   4.033  11.130 -0.8311  2.2447  0.1486
  114OSM    C4S11847   0.751   4.105  10.835 -0.3733  0.8340  0.4494
  114OSM    H4S11848   0.774   4.005  10.798  0.5504  1.0112  0.5227
  114OSM    C5S11849   0.729   4.211  10.756 -0.0071  0.3615  0.5496
  114OSM    H5S11850   0.710   4.304  10.810  3.0417  0.5560  1.3743
  114OSM    C6S11851   0.735   4.205  10.602 -0.1112 -0.8154 -0.0482
  114OSM    H6S11852   0.763   4.101  10.574  0.7257 -0.0078 -2.2780
  114OSM    H6T11853   0.820   4.267  10.565 -0.2859  0.1758  1.1685
  114OSM    C7S11854   0.604   4.239  10.528  0.0485 -0.1123  0.4962
  114OSM    H7S11855   0.570   4.342  10.549 -0.9524 -0.5250  0.9269
  114OSM    H7T11856   0.534   4.168  10.578 -1.1098  0.8551  0.2544
  114OSM    C8S11857   0.605   4.213  10.381 -0.8821  0.0878 -1.1979
  114OSM    H8S11858   0.628   4.104  10.374  4.4311  0.6790  3.5541
  114OSM    H8T11859   0.700   4.258  10.347 -0.7287  0.2607 -0.5467
  114OSM    C9S11860   0.487   4.263  10.290  0.3237  0.5822 -0.2357
  114OSM    H9S11861   0.479   4.373  10.298  0.7871  0.7143 -1.4484
  114OSM    H9T11862   0.395   4.229  10.342  1.2610  0.2889  1.2849
  114OSM   C10S11863   0.501   4.233  10.146 -0.1356 -0.1157 -0.1430
  114OSM   H10S11864   0.419   4.268  10.079  0.7775  2.0752 -0.1560
  114OSM   H10T11865   0.522   4.125  10.131  1.4398  0.4521 -2.3785
  114OSM   C11S11866   0.617   4.311  10.080  0.2550 -0.0834  0.0971
  114OSM   H11S11867   0.711   4.270  10.122 -0.6340 -1.0299  1.2010
  114OSM   H11T11868   0.610   4.415  10.121  2.4363  0.3431 -0.5733
  114OSM   C12S11869   0.649   4.298   9.936 -0.2056 -0.1134 -0.2093
  114OSM   H12S11870   0.639   4.189   9.919  0.3873 -0.0742 -0.8534
  114OSM   H12T11871   0.757   4.324   9.923  0.5192 -0.9640  3.6240
  114OSM   C13S11872   0.558   4.367   9.837 -0.0036 -0.4370 -0.2220
  114OSM   H13S11873   0.569   4.476   9.855 -0.9639 -0.5072  0.8703
  114OSM   H13T11874   0.454   4.339   9.864 -0.1299 -0.5023 -0.7671
  114OSM   C14S11875   0.579   4.323   9.691  0.9088 -0.2143 -0.1893
  114OSM   H14S11876   0.554   4.216   9.700 -2.4067  0.5930  0.9209
  114OSM   H14T11877   0.683   4.340   9.655  1.8009 -1.3686  1.7877
  114OSM   C15S11878   0.470   4.382   9.597  0.2883 -0.1997 -0.1290
  114OSM   H15S11879   0.493   4.490   9.588 -1.4383  0.5624  3.6869
  114OSM   H15T11880   0.368   4.374   9.639  1.1641  2.2481  2.6059
  114OSM   C16S11881   0.471   4.318   9.455 -0.4201  0.0389 -0.1072
  114OSM   H16S11882   0.495   4.210   9.465 -1.1331 -0.2203 -1.0859
  114OSM   H16T11883   0.544   4.370   9.390 -0.3176  0.7544  0.5799
  114OSM   C17S11884   0.338   4.348   9.382 -0.4049  0.7218 -0.7717
  114OSM   H17S11885   0.316   4.454   9.406 -0.6548  0.7391 -1.0786
  114OSM   H17T11886   0.261   4.278   9.419  2.4221 -2.2807 -0.3104
  114OSM   C18S11887   0.353   4.324   9.236  0.9349 -0.0863 -0.1328
  114OSM   H18S11888   0.348   4.215   9.216 -3.2316 -0.0016  0.0999
  114OSM   H18T11889   0.449   4.369   9.202  0.5391  1.6251  0.9490
  114OSM   H18U11890   0.263   4.376   9.196 -1.0056 -1.3301  2.4885
  114OSM    C1F11891   1.127   4.088  10.996 -0.2881 -0.6891 -0.3965
  114OSM     OF11892   1.154   4.004  11.080 -0.0975  0.3564 -0.5431
  114OSM    C2F11893   1.232   4.142  10.909 -0.1864 -0.0576 -0.5584
  114OSM    H2F11894   1.216   4.246  10.874  1.3419  1.2456  2.3845
  114OSM    H2G11895   1.225   4.073  10.823  2.4039 -1.0771 -0.0093
  114OSM    C3F11896   1.372   4.144  10.967  0.0262  0.1057  0.2725
  114OSM    H3F11897   1.399   4.046  11.011  1.5185  0.9625  1.3122
  114OSM    H3G11898   1.378   4.227  11.041 -0.3604  0.1847  0.2174
  114OSM    C4F11899   1.478   4.163  10.860  0.3592  0.1204  0.1399
  114OSM    H4F11900   1.583   4.177  10.892  0.1245  2.2516  0.0637
  114OSM    H4G11901   1.444   4.254  10.805 -2.1435 -0.3324  0.9025
  114OSM    C5F11902   1.489   4.051  10.758 -0.0514  0.6612 -0.3354
  114OSM    H5F11903   1.399   4.040  10.694 -1.0463  1.4440  0.9048
  114OSM    H5G11904   1.501   3.952  10.808 -0.2143  0.3200 -0.9628
  114OSM    C6F11905   1.610   4.061  10.656  0.9808 -0.2283  0.5536
  114OSM    H6F11906   1.703   4.015  10.695  1.4723 -0.1527 -0.5282
  114OSM    H6G11907   1.636   4.169  10.655  1.2328 -0.2798  1.0904
  114OSM    C7F11908   1.569   4.022  10.518  0.0520 -0.2650 -0.2265
  114OSM    H7F11909   1.645   4.068  10.451  2.0373 -3.1962 -0.1072
  114OSM    H7G11910   1.466   4.061  10.502 -0.2202 -0.1897  1.5696
  114OSM    C8F11911   1.558   3.872  10.481  0.1730  0.4372 -0.0910
  114OSM    H8F11912   1.467   3.873  10.418  1.0253 -0.5081 -1.3733
  114OSM    H8G11913   1.525   3.831  10.578 -0.8424  1.4560 -0.0035
  114OSM    C9F11914   1.678   3.813  10.417 -0.4142 -0.4001 -0.8787
  114OSM    H9F11915   1.752   3.765  10.482 -0.4827 -0.1070 -0.5847
  114OSM   C10F11916   1.712   3.814  10.292 -0.1068  0.2411  0.1787
  114OSM   H10F11917   1.793   3.748  10.257 -1.3829 -1.0984 -0.3080
  114OSM   C11F11918   1.648   3.881  10.170  0.2513  0.2857 -0.9029
  114OSM   H11F11919   1.687   3.983  10.153 -1.1821  0.9720 -0.1367
  114OSM   H11G11920   1.540   3.898  10.188  0.3209 -1.8769  1.9255
  114OSM   C12F11921   1.654   3.796  10.039 -0.0766  0.4344 -0.2525
  114OSM   H12F11922   1.587   3.710  10.058  1.0151 -0.7820 -1.8148
  114OSM   H12G11923   1.754   3.749  10.023  0.0554  0.0868  1.4824
  114OSM   C13F11924   1.598   3.860   9.903  0.1206  0.3733 -0.6578
  114OSM   H13F11925   1.496   3.891   9.935 -0.8561 -1.0480 -2.3170
  114OSM   H13G11926   1.600   3.788   9.818  3.0852 -0.3259 -0.0208
  114OSM   C14F11927   1.685   3.980   9.870 -0.0436 -0.4181  0.6674
  114OSM   H14F11928   1.788   3.939   9.864 -0.5500 -1.7149  0.7479
  114OSM   H14G11929   1.664   4.062   9.942  2.1601  0.9344 -0.1650
  114OSM   C15F11930   1.643   4.043   9.733 -0.1112  0.1262  1.1516
  114OSM   H15F11931   1.660   4.152   9.743 -2.1701  0.7999 -2.1631
  114OSM   H15G11932   1.538   4.017   9.708 -0.4114  1.0690  1.4112
  114OSM   C16F11933   1.723   3.986   9.622  0.4907 -0.0904  0.4651
  114OSM   H16F11934   1.709   3.876   9.620 -1.9456  0.1759  0.6917
  114OSM   H16G11935   1.825   4.015   9.656 -1.0108  1.2512  4.1530
  114OSM   C17F11936   1.703   4.049   9.484 -0.0816  0.8265  0.3581
  114OSM   H17F11937   1.791   4.020   9.423  0.1791 -0.2479  1.2212
  114OSM   H17G11938   1.693   4.159   9.476  2.2620  1.2054  2.0034
  114OSM   C18F11939   1.579   3.991   9.407  0.1474  0.0570  0.2463
  114OSM   H18F11940   1.482   4.026   9.447 -0.7965 -0.6169 -1.3967
  114OSM   H18G11941   1.570   3.881   9.422 -2.5533 -0.0113 -1.5909
  114OSM   H18H11942   1.590   4.007   9.298 -2.7582 -1.6865 -0.3608
  115OSM      N11943   2.759   0.177   6.083 -0.2622 -0.1574  0.2349
  115OSM    C1511944   2.900   0.218   6.062 -0.3695  0.4024  1.3420
  115OSM   H15A11945   2.923   0.323   6.068  0.2801  0.4898 -1.8267
  115OSM   H15B11946   2.928   0.190   5.961  0.9192  0.7566  1.6041
  115OSM   H15C11947   2.968   0.180   6.136  1.4935 -2.2872 -1.6116
  115OSM    C1411948   2.681   0.220   5.966 -0.0523  0.3911  0.2391
  115OSM   H14A11949   2.707   0.159   5.880 -2.0344 -0.8844  0.5158
  115OSM   H14B11950   2.704   0.323   5.943 -0.5931  0.8319  1.6374
  115OSM   H14C11951   2.574   0.215   5.977 -0.3493 -0.7673 -2.6617
  115OSM    C1311952   2.746   0.026   6.091 -1.2571 -0.2300 -0.1387
  115OSM   H13A11953   2.767  -0.010   5.991 -0.1286  0.3323 -0.1050
  115OSM   H13B11954   2.644   0.005   6.119 -0.5203 -1.9789  1.3340
  115OSM   H13C11955   2.807  -0.012   6.171 -0.8321 -0.8166 -0.7277
  115OSM    C1211956   2.709   0.237   6.214 -0.2224  1.0712 -0.0457
  115OSM   H12A11957   2.786   0.231   6.290 -1.8758  2.1235  1.7404
  115OSM   H12B11958   2.627   0.172   6.242  0.9635 -0.4055  0.0760
  115OSM    C1111959   2.667   0.381   6.206  0.5110 -0.4195 -0.0328
  115OSM   H11A11960   2.624   0.430   6.296  1.4560  1.7847 -0.7598
  115OSM   H11B11961   2.581   0.380   6.136  1.0649  1.3475 -0.7722
  115OSM      P11962   2.883   0.524   6.245  0.2721 -0.4413  0.1867
  115OSM    O1311963   3.017   0.499   6.186  0.3600  0.0661 -0.0317
  115OSM    O1411964   2.854   0.662   6.298  0.6586 -0.3069  0.2535
  115OSM    O1111965   2.869   0.425   6.371  0.0659  0.0105 -0.0789
  115OSM    O1211966   2.764   0.474   6.151  0.5371  0.0400 -0.4305
  115OSM    C1S11967   2.966   0.428   6.477 -0.4403  0.4195 -0.2742
  115OSM    H1S11968   3.069   0.441   6.438  0.0647 -0.4057  0.7542
  115OSM    H1T11969   2.965   0.330   6.531 -0.7598 -0.6556 -2.1899
  115OSM     NF11970   3.052   0.546   6.683 -0.0769  0.5275 -0.2423
  115OSM    HNF11971   3.047   0.524   6.780 -0.9173  1.1587 -0.1306
  115OSM    C2S11972   2.938   0.533   6.591  1.0608  0.5472  0.6110
  115OSM    H2S11973   2.919   0.628   6.537 -1.0110  0.5744  1.3520
  115OSM    C3S11974   2.814   0.490   6.664  0.1947  1.2725  0.2515
  115OSM    H3S11975   2.841   0.402   6.727 -2.7624  1.4024  1.8090
  115OSM     O311976   2.712   0.428   6.582 -0.5722 -0.0989  0.0658
  115OSM    HO311977   2.762   0.414   6.501 -0.5221 -1.3094  0.2977
  115OSM    C4S11978   2.747   0.595   6.748  0.1330  0.5100  0.1025
  115OSM    H4S11979   2.675   0.657   6.694  2.5801  2.8062 -0.5912
  115OSM    C5S11980   2.770   0.610   6.882  0.7631  0.5049 -0.6560
  115OSM    H5S11981   2.848   0.548   6.929  0.5398  0.1461 -0.7525
  115OSM    C6S11982   2.715   0.705   6.989  0.2970 -0.0883 -0.2476
  115OSM    H6S11983   2.608   0.728   6.968  0.3119 -0.1770 -0.4241
  115OSM    H6T11984   2.772   0.798   7.008  1.1094 -0.2397 -1.8968
  115OSM    C7S11985   2.719   0.624   7.119 -0.6903  0.2994  0.1822
  115OSM    H7S11986   2.818   0.582   7.148 -0.7562  1.3520  2.0067
  115OSM    H7T11987   2.663   0.529   7.106  1.1971 -1.3881  3.5986
  115OSM    C8S11988   2.670   0.700   7.249  0.4002  0.1704  0.0822
  115OSM    H8S11989   2.563   0.733   7.251  0.1554 -0.6117  0.1601
  115OSM    H8T11990   2.737   0.789   7.255  1.5304 -0.8457  4.0017
  115OSM    C9S11991   2.689   0.612   7.376 -0.5996  0.4429  0.5323
  115OSM    H9S11992   2.799   0.608   7.393 -0.4502  1.4586 -0.1607
  115OSM    H9T11993   2.640   0.515   7.355 -3.5927  2.1703 -0.9245
  115OSM   C10S11994   2.621   0.673   7.495 -0.9680 -0.6631 -0.3952
  115OSM   H10S11995   2.514   0.642   7.489 -1.0410 -0.0349 -2.8103
  115OSM   H10T11996   2.630   0.780   7.523 -2.0185 -0.1560 -1.9279
  115OSM   C11S11997   2.668   0.590   7.625 -0.0948 -0.7272 -0.2946
  115OSM   H11S11998   2.778   0.603   7.619 -0.3214  1.0628 -0.8264
  115OSM   H11T11999   2.644   0.483   7.607 -2.0671 -0.5895  1.3574
  115OSM   C12S12000   2.627   0.641   7.759 -0.1833 -0.1672 -0.3180
  115OSM   H12S12001   2.516   0.638   7.765 -0.2945 -1.5442 -2.5764
  115OSM   H12T12002   2.659   0.747   7.771 -0.2161 -0.3479  1.5700
  115OSM   C13S12003   2.676   0.554   7.883 -0.0440 -0.1361 -0.0632
  115OSM   H13S12004   2.787   0.549   7.883 -0.1025 -1.6386  0.8562
  115OSM   H13T12005   2.625   0.456   7.874 -0.5916 -0.3228  4.0369
  115OSM   C14S12006   2.624   0.613   8.018 -0.2073  0.3647 -0.1893
  115OSM   H14S12007   2.517   0.643   8.011 -0.3178 -0.0953 -0.5155
  115OSM   H14T12008   2.690   0.694   8.055  1.2329 -0.7729 -0.2189
  115OSM   C15S12009   2.623   0.502   8.124 -0.6574 -0.3921 -0.1464
  115OSM   H15S12010   2.686   0.423   8.079  0.7200 -0.2055  1.3678
  115OSM   H15T12011   2.523   0.457   8.143  0.0565 -1.2435  1.7905
  115OSM   C16S12012   2.697   0.541   8.257  0.2532  0.3098  0.2494
  115OSM   H16S12013   2.796   0.584   8.230  0.2474 -1.9894 -3.8412
  115OSM   H16T12014   2.706   0.447   8.316 -0.8119 -0.4473 -0.7706
  115OSM   C17S12015   2.608   0.642   8.341  0.0595 -0.4040  0.3184
  115OSM   H17S12016   2.504   0.602   8.339 -0.3608  0.7359 -1.6015
  115OSM   H17T12017   2.612   0.740   8.289 -0.6508 -1.6007 -2.1055
  115OSM   C18S12018   2.653   0.655   8.483 -0.1533  0.0969 -0.6820
  115OSM   H18S12019   2.755   0.699   8.487 -0.5982  1.1154 -0.5535
  115OSM   H18T12020   2.660   0.556   8.533  1.5023  0.0136 -1.0353
  115OSM   H18U12021   2.595   0.734   8.536  4.2665  2.2063  1.3346
  115OSM    C1F12022   3.171   0.600   6.645 -0.5677 -0.0997  0.2513
  115OSM     OF12023   3.186   0.650   6.535  0.0328 -0.0904 -0.4743
  115OSM    C2F12024   3.285   0.610   6.740  0.6052 -0.3714  0.6730
  115OSM    H2F12025   3.353   0.523   6.732  2.1918  1.0453 -1.6474
  115OSM    H2G12026   3.232   0.614   6.838  1.3235 -0.4330  1.0618
  115OSM    C3F12027   3.364   0.740   6.737  0.6064  0.5128 -0.5239
  115OSM    H3F12028   3.298   0.825   6.711 -0.6000  0.0296  0.8631
  115OSM    H3G12029   3.443   0.732   6.659  1.7892 -1.1141  0.7981
  115OSM    C4F12030   3.430   0.775   6.874  0.0297 -0.1200  0.7198
  115OSM    H4F12031   3.500   0.693   6.904 -0.1386 -0.4896  0.1078
  115OSM    H4G12032   3.363   0.775   6.962  0.3596  0.4592  0.9743
  115OSM    C5F12033   3.516   0.903   6.872  0.0787 -0.0559  0.7349
  115OSM    H5F12034   3.459   0.998   6.876  1.8476  1.1101 -0.6152
  115OSM    H5G12035   3.561   0.902   6.770 -2.8950 -1.7485 -0.6111
  115OSM    C6F12036   3.629   0.904   6.968 -0.4441 -0.3365  0.5301
  115OSM    H6F12037   3.672   0.803   6.985 -0.2358 -0.3447 -0.0383
  115OSM    H6G12038   3.595   0.944   7.065  1.6435  0.4958  0.9370
  115OSM    C7F12039   3.742   0.997   6.924  0.4512  0.2242 -0.0562
  115OSM    H7F12040   3.700   1.099   6.915 -0.4367 -0.1056  0.2053
  115OSM    H7G12041   3.772   0.981   6.818  1.1103 -1.7861  0.4041
  115OSM    C8F12042   3.860   0.988   7.019 -0.8434  0.5500  0.2090
  115OSM    H8F12043   3.813   0.972   7.118 -2.2748  2.0129 -0.2129
  115OSM    H8G12044   3.906   1.089   7.024 -1.7923  0.9899  0.0642
  115OSM    C9F12045   3.965   0.887   6.995  0.4056 -0.3002 -0.1905
  115OSM    H9F12046   4.031   0.906   6.909  0.3723 -0.6656 -0.2950
  115OSM   C10F12047   3.968   0.771   7.049  0.1245 -0.2169 -0.4231
  115OSM   H10F12048   4.044   0.697   7.019 -0.0676 -0.5134 -0.1695
  115OSM   C11F12049   3.885   0.718   7.167 -0.1471 -0.0154 -0.0644
  115OSM   H11F12050   3.800   0.666   7.119  0.1865 -0.7537  0.1430
  115OSM   H11G12051   3.830   0.795   7.225 -1.8875 -0.6818 -0.8025
  115OSM   C12F12052   3.962   0.624   7.264 -0.5899  0.0592 -0.0541
  115OSM   H12F12053   4.063   0.669   7.280  0.3249 -2.8047  2.6272
  115OSM   H12G12054   3.980   0.532   7.204  0.1077  0.4760 -0.4998
  115OSM   C13F12055   3.905   0.572   7.393 -0.3202  0.4769 -0.0832
  115OSM   H13F12056   3.953   0.477   7.425 -0.2579  0.5946  0.1727
  115OSM   H13G12057   3.797   0.547   7.383 -1.2143  4.1822 -0.3362
  115OSM   C14F12058   3.911   0.675   7.505 -0.7083 -0.9470  0.3566
  115OSM   H14F12059   3.858   0.760   7.458 -0.3526 -1.4295 -0.9472
  115OSM   H14G12060   4.013   0.715   7.521  0.0392 -1.7759 -2.1605
  115OSM   C15F12061   3.832   0.625   7.627  0.6375 -0.4430  0.0374
  115OSM   H15F12062   3.890   0.545   7.677 -0.4386 -1.2893 -0.0322
  115OSM   H15G12063   3.737   0.577   7.594  1.6917 -1.1350 -2.0702
  115OSM   C16F12064   3.800   0.747   7.722 -0.1112 -0.3773  0.8257
  115OSM   H16F12065   3.754   0.826   7.659  2.0633 -0.4232 -0.8595
  115OSM   H16G12066   3.903   0.784   7.742 -0.2944  0.2418  0.6242
  115OSM   C17F12067   3.720   0.713   7.843  0.0813 -0.3414 -0.8931
  115OSM   H17F12068   3.749   0.777   7.930 -1.1550 -3.2504  1.7528
  115OSM   H17G12069   3.755   0.613   7.874 -2.0076 -0.9607 -0.4331
  115OSM   C18F12070   3.571   0.724   7.838 -0.2588  0.5811  1.0395
  115OSM   H18F12071   3.519   0.707   7.935 -0.8528  0.9687  0.7910
  115OSM   H18G12072   3.531   0.648   7.767  1.0969  3.0423 -2.5091
  115OSM   H18H12073   3.524   0.817   7.799  0.0719  0.0965 -0.5561
  116OSM      N12074   2.331   4.520   5.997  0.1019 -0.4454 -0.0594
  116OSM    C1512075   2.476   4.513   5.957 -0.0428  0.7943 -0.3763
  116OSM   H15A12076   2.539   4.434   5.994  0.0414  1.2068  0.3748
  116OSM   H15B12077   2.535   4.600   5.982  0.6165  1.2489 -3.2648
  116OSM   H15C12078   2.480   4.502   5.849 -0.8361  3.4972 -0.7347
  116OSM    C1412079   2.316   4.567   6.140 -0.0849 -0.5733 -0.0769
  116OSM   H14A12080   2.380   4.511   6.206  1.4520  0.8876 -0.2772
  116OSM   H14B12081   2.210   4.549   6.150 -0.4275  1.3105 -0.1398
  116OSM   H14C12082   2.342   4.671   6.152 -1.3542  0.0579 -2.4506
  116OSM    C1312083   2.271   4.613   5.900  0.4226 -0.2283 -0.3883
  116OSM   H13A12084   2.167   4.633   5.925  0.2351 -1.8745  0.1870
  116OSM   H13B12085   2.278   4.571   5.801  1.5377  1.0296 -0.8663
  116OSM   H13C12086   2.318   4.709   5.915 -0.0340 -0.2616  1.3641
  116OSM    C1212087   2.265   4.380   5.996  0.1634  0.7574 -0.0883
  116OSM   H12A12088   2.301   4.320   6.079 -1.1515  1.8944  1.3231
  116OSM   H12B12089   2.302   4.330   5.908  1.1831 -2.7616  2.1974
  116OSM    C1112090   2.113   4.374   6.011 -0.3256 -1.2413 -0.3738
  116OSM   H11A12091   2.082   4.276   5.968  0.1642 -2.3436  1.7361
  116OSM   H11B12092   2.080   4.455   5.942  1.4905  0.8964  1.1842
  116OSM      P12093   1.951   4.480   6.186  0.5139  0.4175 -0.1055
  116OSM    O1312094   1.943   4.589   6.084  0.3233  0.1142 -0.4957
  116OSM    O1412095   1.826   4.404   6.216  0.0046  0.2199 -0.3412
  116OSM    O1112096   1.999   4.551   6.321  0.3199  0.0913  0.5745
  116OSM    O1212097   2.074   4.385   6.148 -0.5897 -0.3713 -0.0712
  116OSM    C1S12098   2.085   4.487   6.415  0.4557 -0.5471  0.2356
  116OSM    H1S12099   2.190   4.506   6.383  0.4477 -2.0094 -0.7443
  116OSM    H1T12100   2.072   4.376   6.414  2.4311 -0.7983 -0.1973
  116OSM     NF12101   2.118   4.460   6.655 -0.9525 -0.3868 -0.0165
  116OSM    HNF12102   2.070   4.386   6.699  0.1054 -0.3493  1.2447
  116OSM    C2S12103   2.046   4.537   6.558 -0.9355  0.1129  0.1291
  116OSM    H2S12104   2.070   4.645   6.565 -0.1243  0.2947 -4.2710
  116OSM    C3S12105   1.892   4.517   6.582  0.6845 -0.6535  0.5010
  116OSM    H3S12106   1.879   4.407   6.587  1.2260 -0.6984  0.9071
  116OSM     O312107   1.807   4.568   6.474  0.6061  0.5467 -0.8576
  116OSM    HO312108   1.867   4.588   6.403  0.2680  1.2066 -0.9553
  116OSM    C4S12109   1.849   4.568   6.717 -0.1527 -0.1269 -0.9801
  116OSM    H4S12110   1.863   4.501   6.803 -0.2261  0.7105 -0.3043
  116OSM    C5S12111   1.800   4.692   6.746 -0.1179 -0.2834  0.4521
  116OSM    H5S12112   1.778   4.757   6.660 -2.0735 -0.6257  0.6760
  116OSM    C6S12113   1.758   4.742   6.878  0.7268  0.0065 -0.7931
  116OSM    H6S12114   1.779   4.851   6.874  0.7775  0.0771  0.8175
  116OSM    H6T12115   1.816   4.693   6.959 -1.9923 -0.7215  0.8041
  116OSM    C7S12116   1.608   4.708   6.907  0.2473  0.1329  0.1308
  116OSM    H7S12117   1.595   4.600   6.930  0.8766 -0.4613 -2.0991
  116OSM    H7T12118   1.553   4.740   6.816  0.3214  0.2002  0.1090
  116OSM    C8S12119   1.548   4.775   7.039  0.0320  0.0576 -0.1938
  116OSM    H8S12120   1.455   4.715   7.054  1.8306 -2.6047  0.6825
  116OSM    H8T12121   1.517   4.880   7.020 -0.4765 -0.5189 -2.8938
  116OSM    C9S12122   1.647   4.769   7.152 -0.5289  0.4049  0.6719
  116OSM    H9S12123   1.716   4.856   7.144 -0.8225  1.0423  4.2943
  116OSM    H9T12124   1.701   4.674   7.136 -0.8828  0.1653  0.9007
  116OSM   C10S12125   1.586   4.765   7.293 -0.2321  0.1155 -0.1861
  116OSM   H10S12126   1.530   4.672   7.315  0.5267 -0.0621  1.0231
  116OSM   H10T12127   1.528   4.857   7.310  0.5365  0.6269 -0.2969
  116OSM   C11S12128   1.689   4.773   7.400 -0.4146 -0.4624  0.3307
  116OSM   H11S12129   1.754   4.863   7.387  1.3689 -1.6802  0.6396
  116OSM   H11T12130   1.762   4.691   7.385  0.0031 -0.2728  1.2989
  116OSM   C12S12131   1.639   4.762   7.547 -0.5067  0.4586 -0.3646
  116OSM   H12S12132   1.571   4.674   7.549 -1.1976  0.9083 -2.1757
  116OSM   H12T12133   1.579   4.847   7.586 -1.6771 -0.9880  1.0568
  116OSM   C13S12134   1.752   4.737   7.651 -0.4128  0.5277  0.3735
  116OSM   H13S12135   1.822   4.823   7.655  2.5766 -1.8191  0.2377
  116OSM   H13T12136   1.812   4.649   7.622 -0.2249  0.8212 -0.1260
  116OSM   C14S12137   1.683   4.711   7.786  0.8923  0.4491 -0.1252
  116OSM   H14S12138   1.673   4.602   7.804  0.2778  0.3475 -1.0679
  116OSM   H14T12139   1.576   4.740   7.781  0.1581 -2.2373 -1.1653
  116OSM   C15S12140   1.747   4.788   7.904  0.9327  0.1588  0.1460
  116OSM   H15S12141   1.786   4.888   7.874  1.5013 -0.1177 -0.0298
  116OSM   H15T12142   1.845   4.746   7.933  0.5986 -1.1111 -0.5284
  116OSM   C16S12143   1.650   4.797   8.029 -0.3017  0.0106  0.8391
  116OSM   H16S12144   1.553   4.846   8.005 -1.0060 -1.1505  1.2425
  116OSM   H16T12145   1.687   4.872   8.102 -0.1564 -0.5513  1.3474
  116OSM   C17S12146   1.638   4.661   8.103  0.6230 -0.4942  0.1753
  116OSM   H17S12147   1.737   4.615   8.118  0.9260  0.2883  0.5998
  116OSM   H17T12148   1.580   4.586   8.045 -0.8559  0.6449  0.1260
  116OSM   C18S12149   1.561   4.674   8.234 -0.0508 -0.2741  0.2771
  116OSM   H18S12150   1.459   4.718   8.221  0.7458  1.4589 -0.3742
  116OSM   H18T12151   1.622   4.733   8.305  0.6196 -2.1810  1.3094
  116OSM   H18U12152   1.549   4.574   8.279 -0.2905 -0.4710 -0.2219
  116OSM    C1F12153   2.248   4.474   6.674  0.7404  0.3114 -0.3585
  116OSM     OF12154   2.320   4.552   6.613  0.1947  0.5363 -0.1243
  116OSM    C2F12155   2.317   4.377   6.767  0.3596 -0.2833 -0.0179
  116OSM    H2F12156   2.416   4.351   6.724 -0.0290 -0.1739 -0.9790
  116OSM    H2G12157   2.256   4.284   6.763 -1.1850  0.6859  0.7895
  116OSM    C3F12158   2.336   4.426   6.915  0.3841 -0.4616  0.9908
  116OSM    H3F12159   2.235   4.457   6.949  0.0890 -0.4717  0.1379
  116OSM    H3G12160   2.412   4.506   6.914  1.3888 -1.3981  0.5221
  116OSM    C4F12161   2.394   4.325   7.009 -0.1133 -0.2762  0.5017
  116OSM    H4F12162   2.498   4.295   6.983  0.6726  0.1844  3.0052
  116OSM    H4G12163   2.338   4.230   6.991 -0.2577  0.1186 -1.2213
  116OSM    C5F12164   2.398   4.362   7.159  0.3763  0.0861  0.0349
  116OSM    H5F12165   2.472   4.295   7.208  1.3606  0.1206 -1.3820
  116OSM    H5G12166   2.299   4.353   7.209  0.0234  1.4352 -0.4022
  116OSM    C6F12167   2.443   4.505   7.191 -0.0481  0.2073 -0.9887
  116OSM    H6F12168   2.363   4.574   7.156  0.3373  0.0549 -2.1629
  116OSM    H6G12169   2.533   4.534   7.133  0.1451 -1.4105 -1.5156
  116OSM    C7F12170   2.470   4.540   7.338 -0.0801  0.1028 -0.0101
  116OSM    H7F12171   2.464   4.651   7.341  1.0475  0.1549  1.2557
  116OSM    H7G12172   2.573   4.510   7.366 -0.4270 -1.0409  0.0486
  116OSM    C8F12173   2.375   4.474   7.442 -0.1070  0.2964 -0.1306
  116OSM    H8F12174   2.391   4.365   7.452 -1.9350  0.1902  1.7707
  116OSM    H8G12175   2.271   4.496   7.412  0.2009  3.6558  0.9799
  116OSM    C9F12176   2.401   4.536   7.575 -0.0517 -0.6380  0.2898
  116OSM    H9F12177   2.494   4.594   7.582  0.6532 -1.6396 -0.6599
  116OSM   C10F12178   2.307   4.562   7.673 -0.1475  0.6311 -0.1647
  116OSM   H10F12179   2.336   4.627   7.757  0.8972  1.1222 -0.8868
  116OSM   C11F12180   2.165   4.516   7.668 -0.5302  0.0541 -0.0685
  116OSM   H11F12181   2.153   4.405   7.660  0.7572 -0.1511  0.6063
  116OSM   H11G12182   2.117   4.549   7.574 -2.0292  0.4855  0.8263
  116OSM   C12F12183   2.075   4.559   7.776  0.1010 -0.1612  0.2472
  116OSM   H12F12184   1.969   4.537   7.752  0.6485 -1.3571 -1.1139
  116OSM   H12G12185   2.085   4.670   7.784  2.0032 -0.2779 -0.3068
  116OSM   C13F12186   2.128   4.505   7.908 -0.3368  0.2831  0.1047
  116OSM   H13F12187   2.203   4.573   7.953 -1.0451 -0.4636  2.4580
  116OSM   H13G12188   2.181   4.410   7.882  2.6818  2.2209 -1.1550
  116OSM   C14F12189   2.012   4.468   7.999  0.2198 -0.1467  0.1102
  116OSM   H14F12190   1.945   4.394   7.950 -0.1148  1.2579 -1.6293
  116OSM   H14G12191   1.959   4.563   8.025  0.7131 -0.1827  1.2525
  116OSM   C15F12192   2.067   4.400   8.127 -0.3485  0.5796  0.0472
  116OSM   H15F12193   2.113   4.475   8.196 -1.9721  1.4404  0.2210
  116OSM   H15G12194   2.138   4.321   8.097 -1.0900 -0.1003  0.0668
  116OSM   C16F12195   1.951   4.337   8.208 -0.7307 -0.5138  0.2750
  116OSM   H16F12196   1.901   4.274   8.132 -1.3682 -1.5648  1.5469
  116OSM   H16G12197   1.881   4.417   8.242  0.3319 -0.1374  1.5927
  116OSM   C17F12198   1.983   4.249   8.332 -0.0441 -0.8947 -0.3469
  116OSM   H17F12199   2.070   4.184   8.313  1.2387  0.9419 -0.9442
  116OSM   H17G12200   1.898   4.185   8.364  0.4122  0.2248  3.3039
  116OSM   C18F12201   2.019   4.343   8.448 -0.0943  0.1749 -0.3485
  116OSM   H18F12202   2.072   4.279   8.521  0.4961  0.1951 -0.7583
  116OSM   H18G12203   1.928   4.390   8.491  0.1116  2.2312 -2.0720
  116OSM   H18H12204   2.083   4.426   8.409 -1.0261  0.2509 -1.7530
  117OSM      N12205   1.023   6.396   6.267 -0.4410 -0.0535 -0.7706
  117OSM    C1512206   0.949   6.312   6.370  0.2157 -1.4426  0.3916
  117OSM   H15A12207   1.014   6.249   6.428  2.2516  0.7366  0.5586
  117OSM   H15B12208   0.881   6.245   6.319  0.5054  0.6502 -2.9085
  117OSM   H15C12209   0.897   6.382   6.434  0.2829 -0.0182 -1.0741
  117OSM    C1412210   1.108   6.308   6.183  0.1692  0.0443 -0.1495
  117OSM   H14A12211   1.051   6.257   6.107 -1.4947  0.6971  0.6321
  117OSM   H14B12212   1.156   6.222   6.228  0.4268 -0.3719 -1.2051
  117OSM   H14C12213   1.178   6.369   6.127 -0.5271  1.8854  0.9312
  117OSM    C1312214   0.925   6.468   6.179 -0.1196  0.0809  0.1465
  117OSM   H13A12215   0.988   6.538   6.127 -0.3114 -1.5153 -2.2885
  117OSM   H13B12216   0.837   6.506   6.230  0.3886 -1.0963  1.9807
  117OSM   H13C12217   0.887   6.416   6.093 -1.7356 -1.5690  1.7986
  117OSM    C1212218   1.105   6.499   6.341 -0.4356 -0.5553  0.5662
  117OSM   H12A12219   1.168   6.442   6.409 -0.9577 -1.3061  0.4276
  117OSM   H12B12220   1.048   6.559   6.411 -0.0281  2.4083 -1.5859
  117OSM    C1112221   1.200   6.591   6.263 -0.5034 -0.0141  0.1609
  117OSM   H11A12222   1.269   6.521   6.212 -0.0314  0.0463  0.7167
  117OSM   H11B12223   1.262   6.647   6.336 -0.4427 -1.2393  1.0495
  117OSM      P12224   1.068   6.796   6.226 -0.0060 -0.2551  0.0633
  117OSM    O1312225   1.162   6.907   6.212 -0.6098  0.1012  0.1567
  117OSM    O1412226   0.932   6.810   6.165 -1.2090  0.4341 -0.4115
  117OSM    O1112227   1.046   6.765   6.380  0.0649  0.5093 -0.6262
  117OSM    O1212228   1.135   6.671   6.168  0.3149 -0.2311 -0.5513
  117OSM    C1S12229   1.104   6.821   6.499  0.0869 -0.3166  0.3056
  117OSM    H1S12230   1.131   6.922   6.462 -1.1311  0.2428  0.9035
  117OSM    H1T12231   1.196   6.768   6.534 -0.9522 -1.7635  0.9057
  117OSM     NF12232   1.033   6.915   6.717 -0.2058  0.7081 -0.0620
  117OSM    HNF12233   1.063   6.860   6.795  1.2264  0.8308 -0.5075
  117OSM    C2S12234   0.985   6.837   6.603 -0.6926 -0.1019 -0.2601
  117OSM    H2S12235   0.905   6.897   6.554 -0.4645  1.5325  1.3376
  117OSM    C3S12236   0.926   6.695   6.622  0.2858  0.3349 -0.1278
  117OSM    H3S12237   1.010   6.623   6.632  0.5138  0.7993  1.5761
  117OSM     O312238   0.849   6.659   6.513  0.2810  0.4321  0.4999
  117OSM    HO312239   0.852   6.721   6.440  0.0745  0.2201  0.3072
  117OSM    C4S12240   0.838   6.693   6.745 -0.5459 -0.5897 -0.0895
  117OSM    H4S12241   0.734   6.727   6.729 -0.8944 -2.3729 -1.9652
  117OSM    C5S12242   0.875   6.636   6.863 -0.0953 -0.0911 -0.2604
  117OSM    H5S12243   0.970   6.581   6.869 -1.3092 -2.0940  0.9700
  117OSM    C6S12244   0.792   6.642   6.992 -0.5481  0.0679  0.1521
  117OSM    H6S12245   0.697   6.695   6.970  0.1612  0.5204 -1.9493
  117OSM    H6T12246   0.849   6.713   7.056 -1.4141  0.2415  0.7355
  117OSM    C7S12247   0.762   6.513   7.065  0.4142  0.1408 -0.3620
  117OSM    H7S12248   0.850   6.454   7.097 -1.4919 -2.6314 -0.0017
  117OSM    H7T12249   0.709   6.444   6.996  2.0478 -0.8314 -0.6576
  117OSM    C8S12250   0.694   6.546   7.201 -0.6097 -0.1418  0.6995
  117OSM    H8S12251   0.687   6.656   7.212  0.2334 -0.0532  0.3860
  117OSM    H8T12252   0.762   6.503   7.277 -0.3917 -2.2078 -0.6369
  117OSM    C9S12253   0.556   6.476   7.221 -0.2437 -0.4192 -0.4675
  117OSM    H9S12254   0.577   6.370   7.193  1.8918 -0.3351  0.7478
  117OSM    H9T12255   0.497   6.523   7.139  0.7983  2.7778  0.5383
  117OSM   C10S12256   0.482   6.499   7.352 -0.0943 -0.0180  0.2822
  117OSM   H10S12257   0.373   6.495   7.331  0.1756 -1.2968 -0.8715
  117OSM   H10T12258   0.515   6.592   7.403 -1.1619  0.4849  0.0693
  117OSM   C11S12259   0.519   6.389   7.457 -0.0125  0.0547 -0.1437
  117OSM   H11S12260   0.603   6.423   7.522  0.5436 -2.2184  0.3641
  117OSM   H11T12261   0.561   6.305   7.398 -0.0472 -0.2840  0.3189
  117OSM   C12S12262   0.401   6.340   7.552  0.2078 -0.2281 -0.0013
  117OSM   H12S12263   0.450   6.270   7.624 -0.8348 -1.4868 -0.5143
  117OSM   H12T12264   0.322   6.300   7.486  0.5979  2.4639 -2.1781
  117OSM   C13S12265   0.346   6.456   7.633 -0.4362  0.1865  0.0542
  117OSM   H13S12266   0.272   6.404   7.698  0.3351 -2.4231 -1.1388
  117OSM   H13T12267   0.304   6.538   7.570 -0.2178 -0.5577 -1.0702
  117OSM   C14S12268   0.457   6.526   7.717  0.2884  0.0165  0.4397
  117OSM   H14S12269   0.519   6.577   7.640  1.2735 -1.8838 -0.0591
  117OSM   H14T12270   0.518   6.452   7.773 -0.0298  0.7984  1.8486
  117OSM   C15S12271   0.400   6.630   7.822 -0.0891  0.2646 -0.1466
  117OSM   H15S12272   0.468   6.643   7.909 -0.6174 -0.1949  0.3390
  117OSM   H15T12273   0.311   6.587   7.874  0.6582 -0.2894  0.6857
  117OSM   C16S12274   0.371   6.770   7.763 -0.0832  0.2880  0.4121
  117OSM   H16S12275   0.322   6.747   7.666 -1.9470  1.0716  1.1617
  117OSM   H16T12276   0.470   6.817   7.741  0.4146 -1.5420 -1.5452
  117OSM   C17S12277   0.284   6.859   7.848  0.4345  0.0536 -0.3565
  117OSM   H17S12278   0.177   6.827   7.847  0.6325 -0.6334 -0.0688
  117OSM   H17T12279   0.292   6.958   7.798 -2.2727 -0.4273 -1.8824
  117OSM   C18S12280   0.335   6.880   7.986 -0.1856 -0.5397 -0.4578
  117OSM   H18S12281   0.296   6.974   8.029 -1.8224 -0.7983 -1.3425
  117OSM   H18T12282   0.445   6.897   7.979 -0.2109 -0.0832  0.2020
  117OSM   H18U12283   0.309   6.797   8.054  0.2928 -0.2039  0.1356
  117OSM    C1F12284   1.067   7.043   6.712 -0.0641  1.3530 -0.0483
  117OSM     OF12285   1.059   7.110   6.605  0.1800  0.1027 -0.3144
  117OSM    C2F12286   1.121   7.114   6.840 -0.6478  0.4831  0.3700
  117OSM    H2F12287   1.038   7.157   6.899 -0.0526  0.2767  1.3687
  117OSM    H2G12288   1.176   7.207   6.812 -0.0868  0.1356  0.2974
  117OSM    C3F12289   1.196   7.015   6.930  0.6005  0.6780  0.3787
  117OSM    H3F12290   1.294   6.998   6.880  1.2263  4.1962  0.3117
  117OSM    H3G12291   1.151   6.916   6.949 -0.2509  1.0283  0.1928
  117OSM    C4F12292   1.243   7.075   7.058  0.4343  0.6729 -0.1672
  117OSM    H4F12293   1.162   7.138   7.102  0.3162  0.7469 -0.4892
  117OSM    H4G12294   1.325   7.145   7.034  0.7674  0.8029  1.2783
  117OSM    C5F12295   1.301   6.961   7.155 -0.1871  0.1472 -0.1321
  117OSM    H5F12296   1.349   7.006   7.244 -1.2695  4.3997 -1.5475
  117OSM    H5G12297   1.373   6.897   7.100  2.1161  2.3951  0.1506
  117OSM    C6F12298   1.190   6.870   7.207 -0.2594 -0.0673 -0.1935
  117OSM    H6F12299   1.147   6.810   7.125 -1.5901 -1.8706  1.7835
  117OSM    H6G12300   1.116   6.935   7.260 -0.8206 -2.5194  2.1277
  117OSM    C7F12301   1.238   6.773   7.317  0.5596 -0.1130  0.5841
  117OSM    H7F12302   1.255   6.829   7.411 -0.5268  1.2701 -0.0360
  117OSM    H7G12303   1.333   6.727   7.281 -0.1443  0.4833 -2.1747
  117OSM    C8F12304   1.133   6.664   7.355  0.5282 -1.1313  0.3807
  117OSM    H8F12305   1.099   6.608   7.265  0.2830  0.6076 -0.6188
  117OSM    H8G12306   1.042   6.716   7.390 -0.2161 -2.8544  1.0820
  117OSM    C9F12307   1.182   6.556   7.448  0.4284 -0.1130  0.2505
  117OSM    H9F12308   1.230   6.476   7.389 -1.0522  0.0610 -1.2171
  117OSM   C10F12309   1.171   6.547   7.581  0.9164 -0.0115  0.2380
  117OSM   H10F12310   1.216   6.464   7.637 -1.0653 -2.1500 -1.2506
  117OSM   C11F12311   1.107   6.642   7.671  0.1525 -0.5751  0.2853
  117OSM   H11F12312   1.032   6.710   7.624 -1.7109 -2.0684  1.0199
  117OSM   H11G12313   1.186   6.704   7.717 -1.9271  1.9517  0.5935
  117OSM   C12F12314   1.037   6.575   7.789  0.2888 -0.0177 -0.1576
  117OSM   H12F12315   1.039   6.645   7.875 -1.3050 -1.4156  1.0298
  117OSM   H12G12316   1.107   6.499   7.831 -1.5405  0.3926  3.7895
  117OSM   C13F12317   0.901   6.506   7.758 -0.5133  0.7158 -0.7552
  117OSM   H13F12318   0.919   6.449   7.664 -1.3633  1.2369 -1.2318
  117OSM   H13G12319   0.830   6.585   7.728  0.5342  0.9888 -2.6431
  117OSM   C14F12320   0.852   6.410   7.865  0.2277  0.1191 -0.4752
  117OSM   H14F12321   0.931   6.339   7.895 -0.6946 -1.0883 -0.8267
  117OSM   H14G12322   0.768   6.353   7.818  0.5351  0.0043 -0.8845
  117OSM   C15F12323   0.807   6.471   7.995  0.1089 -0.1186  0.4287
  117OSM   H15F12324   0.721   6.538   7.974  0.4265  0.2763  0.3816
  117OSM   H15G12325   0.890   6.539   8.026  1.5150 -1.0365 -1.2021
  117OSM   C16F12326   0.761   6.380   8.104  0.6882  0.3230  0.0547
  117OSM   H16F12327   0.826   6.290   8.106  0.8763  0.4714  0.5871
  117OSM   H16G12328   0.662   6.335   8.082  0.1849  1.4922 -0.1258
  117OSM   C17F12329   0.745   6.443   8.240  0.7735  0.0019 -0.6345
  117OSM   H17F12330   0.837   6.494   8.275 -0.2784  1.5686 -0.0815
  117OSM   H17G12331   0.670   6.526   8.234 -1.3493 -1.7834  0.4460
  117OSM   C18F12332   0.709   6.341   8.345  0.0129 -0.6533 -0.1966
  117OSM   H18F12333   0.686   6.386   8.444 -3.2529 -0.1873 -1.1217
  117OSM   H18G12334   0.793   6.271   8.363  1.5615  0.7064 -1.9350
  117OSM   H18H12335   0.617   6.282   8.328 -0.7825  0.6846 -0.6215
  118OSM      N12336   4.416   2.374   6.107 -0.9250  0.0743 -0.5275
  118OSM    C1512337   4.437   2.340   5.963  0.3002  0.5799  0.4414
  118OSM   H15A12338   4.410   2.242   5.928 -0.8801  1.5845 -1.5458
  118OSM   H15B12339   4.544   2.342   5.951  0.2962 -0.9863 -0.0045
  118OSM   H15C12340   4.398   2.414   5.895  0.7776  0.7669  0.3716
  118OSM    C1412341   4.480   2.512   6.136 -0.1996 -0.2696  0.0714
  118OSM   H14A12342   4.578   2.527   6.093  0.5240 -0.1134  1.7626
  118OSM   H14B12343   4.500   2.525   6.241 -2.3361  1.9177  0.2511
  118OSM   H14C12344   4.417   2.594   6.106 -1.8370 -1.0183  1.3486
  118OSM    C1312345   4.268   2.369   6.129  0.2815  0.0995 -0.4971
  118OSM   H13A12346   4.218   2.434   6.059  0.0859  0.3800 -0.0970
  118OSM   H13B12347   4.256   2.417   6.225 -1.3182 -1.1575 -0.0502
  118OSM   H13C12348   4.232   2.267   6.123 -0.6535  0.5281 -2.6926
  118OSM    C1212349   4.478   2.259   6.187 -0.2888  0.6009 -0.6892
  118OSM   H12A12350   4.469   2.288   6.290  1.8591  1.3330 -0.6953
  118OSM   H12B12351   4.585   2.259   6.173 -0.1365  1.4020  0.4835
  118OSM    C1112352   4.438   2.106   6.170 -0.1255 -0.0564  0.1627
  118OSM   H11A12353   4.513   2.053   6.233  0.1699  0.1029 -0.0559
  118OSM   H11B12354   4.456   2.087   6.062  0.1680  0.3645  0.1368
  118OSM      P12355   4.220   1.984   6.160  0.8673 -0.3562 -0.0041
  118OSM    O1312356   4.147   2.026   6.036  0.2799  0.4743 -0.2650
  118OSM    O1412357   4.288   1.851   6.155 -0.1255 -0.5649  0.1576
  118OSM    O1112358   4.104   1.987   6.268  0.1032 -0.0835 -0.5854
  118OSM    O1212359   4.309   2.093   6.220  0.7217 -0.0925  0.1308
  118OSM    C1S12360   4.117   1.916   6.393 -0.0381  0.6366  0.0945
  118OSM    H1S12361   4.176   1.823   6.382  2.2339  2.0689 -0.3132
  118OSM    H1T12362   4.010   1.903   6.421 -0.6438  2.3460 -1.2954
  118OSM     NF12363   4.192   1.937   6.623  0.7072 -0.1882  0.3915
  118OSM    HNF12364   4.119   1.944   6.690 -0.1302  1.3064 -0.6657
  118OSM    C2S12365   4.189   2.012   6.498  0.5242 -0.1250  0.1754
  118OSM    H2S12366   4.292   2.033   6.461  0.5443 -2.0211 -0.8763
  118OSM    C3S12367   4.120   2.149   6.506  0.2009 -0.3981 -0.1909
  118OSM    H3S12368   4.012   2.131   6.521 -0.5205  1.4274 -2.8732
  118OSM     O312369   4.132   2.231   6.390  0.6452  0.0210  0.4025
  118OSM    HO312370   4.191   2.192   6.325  1.0048  0.9428  0.1661
  118OSM    C4S12371   4.169   2.220   6.624  0.1487  0.3091 -0.8320
  118OSM    H4S12372   4.276   2.197   6.638 -0.3200 -0.6946  1.1761
  118OSM    C5S12373   4.101   2.303   6.704 -0.3600  0.2796  0.0535
  118OSM    H5S12374   4.001   2.332   6.668  0.2091  0.5656 -1.3173
  118OSM    C6S12375   4.156   2.375   6.829 -0.0400 -0.0316  0.4742
  118OSM    H6S12376   4.136   2.484   6.833 -1.1492 -0.1762 -0.5657
  118OSM    H6T12377   4.267   2.379   6.831 -0.0539  0.3276  0.4923
  118OSM    C7S12378   4.102   2.315   6.964 -0.3322  0.0367  0.1926
  118OSM    H7S12379   4.133   2.209   6.975  0.6230  0.3465  0.4633
  118OSM    H7T12380   3.991   2.325   6.957 -0.4372 -1.4515 -0.5654
  118OSM    C8S12381   4.138   2.406   7.086 -0.1726 -0.1071  0.0740
  118OSM    H8S12382   4.100   2.502   7.045 -0.0623  0.6829  1.7809
  118OSM    H8T12383   4.249   2.408   7.100  0.2171 -3.5042 -1.9426
  118OSM    C9S12384   4.071   2.339   7.209  0.9284  0.6329 -0.7019
  118OSM    H9S12385   4.106   2.234   7.219 -0.5563  0.2354  0.6661
  118OSM    H9T12386   3.963   2.328   7.182  1.4838  2.0452 -3.6879
  118OSM   C10S12387   4.080   2.413   7.339  0.5820 -0.9527  0.0977
  118OSM   H10S12388   4.012   2.500   7.327  0.0570 -1.3627  0.0799
  118OSM   H10T12389   4.183   2.450   7.357  1.3038 -2.3677 -0.9827
  118OSM   C11S12390   4.040   2.333   7.454  0.3932  0.1147 -0.1244
  118OSM   H11S12391   4.105   2.244   7.466 -0.1471 -0.4770 -1.4452
  118OSM   H11T12392   3.942   2.282   7.436  0.7357 -0.6212  0.0848
  118OSM   C12S12393   4.036   2.403   7.588 -0.1585 -0.6267  0.7376
  118OSM   H12S12394   3.965   2.488   7.602  1.9481  0.9188  2.2892
  118OSM   H12T12395   4.136   2.444   7.613  0.4889 -1.9203  0.2772
  118OSM   C13S12396   3.999   2.308   7.704  0.4183 -0.6509  0.1971
  118OSM   H13S12397   4.055   2.215   7.681  0.3793 -0.0426 -2.6014
  118OSM   H13T12398   3.892   2.283   7.692  0.3896 -1.1120  1.3834
  118OSM   C14S12399   4.012   2.374   7.848 -0.3112 -0.0151  0.4674
  118OSM   H14S12400   3.977   2.478   7.827 -0.9006 -0.5020 -0.9987
  118OSM   H14T12401   4.120   2.393   7.865  0.0155 -2.0157  0.6739
  118OSM   C15S12402   3.948   2.296   7.958 -0.3704  0.0523 -0.0066
  118OSM   H15S12403   3.985   2.192   7.946 -1.7378 -0.3666 -0.6279
  118OSM   H15T12404   3.840   2.300   7.935 -0.3733  2.5228  0.3172
  118OSM   C16S12405   3.974   2.343   8.102 -0.1459  0.8459 -0.4309
  118OSM   H16S12406   3.919   2.439   8.101  1.1318  1.6531  2.2710
  118OSM   H16T12407   4.083   2.352   8.122 -0.2882 -0.7447  1.1228
  118OSM   C17S12408   3.914   2.242   8.201 -0.2586 -0.3315 -0.1223
  118OSM   H17S12409   3.975   2.149   8.194  0.6271  0.3015 -0.8523
  118OSM   H17T12410   3.810   2.223   8.167 -0.8466  1.7285  0.4823
  118OSM   C18S12411   3.904   2.290   8.346 -0.2233  0.2081 -0.3285
  118OSM   H18S12412   3.858   2.208   8.406 -2.3934  3.0128  2.0349
  118OSM   H18T12413   3.837   2.378   8.354 -1.6604 -0.9215  0.3361
  118OSM   H18U12414   4.002   2.317   8.392  0.4576 -3.5908  0.6421
  118OSM    C1F12415   4.278   1.839   6.636 -0.3690 -0.0153 -0.3033
  118OSM     OF12416   4.373   1.836   6.565  0.0219  0.1731  0.5310
  118OSM    C2F12417   4.255   1.735   6.738 -0.9672 -0.1579  0.2879
  118OSM    H2F12418   4.160   1.681   6.719  0.2876 -3.0636  2.0073
  118OSM    H2G12419   4.230   1.781   6.836  4.1108 -0.3281  1.7675
  118OSM    C3F12420   4.385   1.641   6.744 -0.2268 -1.1188  0.5692
  118OSM    H3F12421   4.470   1.711   6.762 -0.3423 -0.5749 -0.9600
  118OSM    H3G12422   4.390   1.587   6.647  1.6039  0.8614 -0.4900
  118OSM    C4F12423   4.365   1.539   6.859 -0.2744 -0.6479 -0.1018
  118OSM    H4F12424   4.445   1.462   6.859  0.1555 -0.2130  1.1844
  118OSM    H4G12425   4.262   1.499   6.851 -0.9329  0.8904  0.4722
  118OSM    C5F12426   4.380   1.616   6.994 -0.5639  0.0779 -0.0518
  118OSM    H5F12427   4.300   1.693   7.000 -1.2212 -0.7309  2.1426
  118OSM    H5G12428   4.482   1.658   7.000  0.3281 -2.1722  1.1448
  118OSM    C6F12429   4.355   1.528   7.120  0.0415 -0.1330 -0.1939
  118OSM    H6F12430   4.419   1.438   7.121  0.4165  0.1323  0.2095
  118OSM    H6G12431   4.253   1.485   7.122  0.0487 -0.2309 -1.3605
  118OSM    C7F12432   4.372   1.606   7.259 -0.2695 -0.5091 -0.1653
  118OSM    H7F12433   4.294   1.685   7.248 -0.3248 -0.8351 -2.3533
  118OSM    H7G12434   4.473   1.652   7.259 -0.6577  0.3732  0.2788
  118OSM    C8F12435   4.352   1.518   7.385 -0.4657 -0.2615  0.0853
  118OSM    H8F12436   4.433   1.442   7.388  0.5289  0.7621 -0.3379
  118OSM    H8G12437   4.260   1.462   7.360 -0.1811 -0.0425 -1.4554
  118OSM    C9F12438   4.328   1.607   7.505 -0.1147  0.5404 -0.1960
  118OSM    H9F12439   4.380   1.704   7.507 -1.1630  1.0937  1.1990
  118OSM   C10F12440   4.226   1.587   7.595 -0.4265 -0.2174 -0.4675
  118OSM   H10F12441   4.221   1.660   7.678  0.0318 -1.0023  0.2622
  118OSM   C11F12442   4.131   1.473   7.614 -0.4954  0.0093  0.4593
  118OSM   H11F12443   4.136   1.403   7.528 -0.0071  0.0482  0.4540
  118OSM   H11G12444   4.028   1.510   7.631 -1.2792 -0.7172 -2.3451
  118OSM   C12F12445   4.170   1.397   7.747  0.2379  0.6020 -1.0463
  118OSM   H12F12446   4.267   1.344   7.733  1.1213  2.0386 -0.4401
  118OSM   H12G12447   4.098   1.313   7.748  1.1082 -0.1735 -2.2465
  118OSM   C13F12448   4.171   1.476   7.876 -0.7027  0.3508 -0.7382
  118OSM   H13F12449   4.078   1.535   7.891 -0.8711 -0.3093  0.8159
  118OSM   H13G12450   4.268   1.531   7.878 -1.6596  2.0165  2.9285
  118OSM   C14F12451   4.194   1.378   7.990 -0.1122  0.0059 -0.6524
  118OSM   H14F12452   4.296   1.337   7.971 -0.8727 -1.0008 -2.6711
  118OSM   H14G12453   4.123   1.293   7.992 -0.3713  0.2137 -1.0034
  118OSM   C15F12454   4.171   1.439   8.136  0.4874  0.4825 -0.7536
  118OSM   H15F12455   4.237   1.528   8.147 -0.8025  1.6320 -1.9688
  118OSM   H15G12456   4.214   1.368   8.210  0.0211  1.5189  0.5266
  118OSM   C16F12457   4.028   1.478   8.176 -0.0247 -0.7225 -0.3852
  118OSM   H16F12458   3.950   1.408   8.137  0.2768 -0.9895 -0.5123
  118OSM   H16G12459   4.012   1.573   8.120 -1.7281 -0.5934  0.2838
  118OSM   C17F12460   4.008   1.489   8.334 -0.1696 -0.3537  0.8256
  118OSM   H17F12461   4.021   1.385   8.370 -0.1002 -1.2334 -1.6337
  118OSM   H17G12462   3.902   1.520   8.350 -0.6761 -0.1311 -2.5669
  118OSM   C18F12463   4.117   1.568   8.410 -0.6311 -0.1151  0.3027
  118OSM   H18F12464   4.207   1.585   8.347 -0.3568  1.2424  1.0548
  118OSM   H18G12465   4.145   1.517   8.504 -0.7174 -0.0702  0.3522
  118OSM   H18H12466   4.082   1.668   8.443  1.1473  1.0531 -1.2409
  119OSM      N12467   4.764   0.151   5.641  0.1965 -1.0477  0.2357
  119OSM    C1512468   4.815   0.287   5.606 -0.4258 -0.7609 -0.4275
  119OSM   H15A12469   4.906   0.286   5.547  1.3998  0.0673  2.2695
  119OSM   H15B12470   4.840   0.338   5.697  0.2966 -0.6533 -0.6776
  119OSM   H15C12471   4.749   0.354   5.554 -3.1136 -2.4071  0.7807
  119OSM    C1412472   4.635   0.166   5.710 -0.0939 -0.2678  0.6990
  119OSM   H14A12473   4.587   0.074   5.742 -1.1324  0.2920  0.7983
  119OSM   H14B12474   4.571   0.219   5.641 -0.9925 -2.0361  0.1383
  119OSM   H14C12475   4.646   0.228   5.798 -0.8012 -1.0530  1.3580
  119OSM    C1312476   4.749   0.086   5.512 -0.1312  0.4897  0.5936
  119OSM   H13A12477   4.844   0.066   5.463 -1.6475 -4.7241 -0.5676
  119OSM   H13B12478   4.686   0.136   5.440 -2.8810  0.9550  3.2469
  119OSM   H13C12479   4.715  -0.015   5.527  0.1054 -0.0675 -2.3784
  119OSM    C1212480   4.867   0.077   5.723 -0.6311 -0.4790 -0.3133
  119OSM   H12A12481   4.959   0.084   5.667 -0.0144 -0.4834  0.6847
  119OSM   H12B12482   4.842  -0.028   5.716 -2.1670 -0.2553  1.2873
  119OSM    C1112483   4.889   0.116   5.869 -0.1178  0.1971 -0.9757
  119OSM   H11A12484   4.970   0.068   5.927  0.6077 -0.1660 -2.2935
  119OSM   H11B12485   4.801   0.081   5.927  1.5107 -2.5534 -0.0713
  119OSM      P12486   5.004   0.347   5.919 -0.4704 -0.2026  0.0996
  119OSM    O1312487   5.125   0.291   5.863 -0.2229 -0.5477 -0.3403
  119OSM    O1412488   4.972   0.483   5.867 -0.2623 -0.0416 -0.2096
  119OSM    O1112489   5.003   0.346   6.076 -0.3653  0.2219  0.5257
  119OSM    O1212490   4.888   0.255   5.886  0.5339 -0.3641  0.4206
  119OSM    C1S12491   4.942   0.248   6.164  0.4101  0.4644  0.5534
  119OSM    H1S12492   4.979   0.145   6.144 -2.3733 -0.9586  2.4011
  119OSM    H1T12493   4.832   0.239   6.161  0.4066  0.6413  0.0939
  119OSM     NF12494   4.967   0.170   6.394  0.2806 -0.6904  0.1769
  119OSM    HNF12495   4.897   0.188   6.462  0.3583 -0.5434  0.2184
  119OSM    C2S12496   4.986   0.285   6.311  0.1900  0.7167 -0.0062
  119OSM    H2S12497   5.096   0.294   6.303  0.0606  1.0392 -1.4655
  119OSM    C3S12498   4.911   0.410   6.358 -0.0726 -0.0240  0.7730
  119OSM    H3S12499   4.802   0.388   6.356 -0.1225  0.2019  0.9723
  119OSM     O312500   4.925   0.521   6.276  0.3986  0.4166 -0.9219
  119OSM    HO312501   4.943   0.480   6.191 -0.2269  1.0986 -1.3927
  119OSM    C4S12502   4.945   0.445   6.498  0.2801 -0.1889 -0.1731
  119OSM    H4S12503   4.884   0.389   6.571 -1.6597 -2.2101 -3.2048
  119OSM    C5S12504   5.023   0.540   6.555 -0.0368 -0.0492  0.0036
  119OSM    H5S12505   5.093   0.589   6.487  0.1203 -0.3784 -0.0749
  119OSM    C6S12506   5.047   0.563   6.703 -0.1011 -0.3648  1.0002
  119OSM    H6S12507   5.029   0.672   6.714  0.2296 -0.1166 -0.8517
  119OSM    H6T12508   5.155   0.568   6.726  0.2004 -0.9230 -0.2729
  119OSM    C7S12509   4.964   0.484   6.806  0.2697 -0.5448 -0.0841
  119OSM    H7S12510   4.982   0.375   6.794  1.1511 -0.5956  1.6010
  119OSM    H7T12511   4.855   0.490   6.784  0.0715  0.6200  1.1982
  119OSM    C8S12512   4.999   0.513   6.952 -0.4043 -0.7827 -0.0635
  119OSM    H8S12513   5.023   0.621   6.957  1.4362 -1.1845  0.2959
  119OSM    H8T12514   5.086   0.455   6.991  0.5326  2.6297  3.2232
  119OSM    C9S12515   4.891   0.468   7.043 -0.3533  0.4174 -0.5574
  119OSM    H9S12516   4.860   0.362   7.026  3.2690 -0.5831 -1.2656
  119OSM    H9T12517   4.805   0.534   7.017 -1.0481 -0.6218 -0.9579
  119OSM   C10S12518   4.927   0.467   7.192  0.8826  0.2053 -0.1328
  119OSM   H10S12519   5.017   0.406   7.216  0.6738  0.2121  0.6660
  119OSM   H10T12520   4.849   0.414   7.252  1.7645 -2.8313 -1.5586
  119OSM   C11S12521   4.942   0.605   7.255  0.3413 -0.8425 -0.5780
  119OSM   H11S12522   4.862   0.669   7.212  0.6513  0.3246  0.5320
  119OSM   H11T12523   5.044   0.630   7.218  0.5660 -2.4082 -1.0450
  119OSM   C12S12524   4.930   0.594   7.408 -0.7137 -0.0679 -0.1671
  119OSM   H12S12525   5.023   0.546   7.445 -0.3913 -0.5996 -1.6234
  119OSM   H12T12526   4.840   0.538   7.443 -1.5368  0.4503 -1.3902
  119OSM   C13S12527   4.924   0.733   7.481  0.0920 -0.3129 -0.2351
  119OSM   H13S12528   4.841   0.800   7.450  0.0255 -0.6159 -0.7173
  119OSM   H13T12529   5.008   0.799   7.450 -0.0832  0.4358  0.8363
  119OSM   C14S12530   4.940   0.709   7.638 -0.4693 -0.2347 -0.0688
  119OSM   H14S12531   4.883   0.622   7.677 -1.6553 -1.0428 -3.4002
  119OSM   H14T12532   4.907   0.800   7.692 -2.1143 -0.4438 -0.6949
  119OSM   C15S12533   5.089   0.704   7.667 -0.6274  0.5840  0.0088
  119OSM   H15S12534   5.148   0.794   7.638  0.7224 -0.9845 -2.2589
  119OSM   H15T12535   5.133   0.612   7.624  1.1582  1.4534 -0.0802
  119OSM   C16S12536   5.102   0.690   7.820  0.2246  0.4116  0.3359
  119OSM   H16S12537   5.198   0.647   7.855 -0.3318 -1.0999  0.0766
  119OSM   H16T12538   5.014   0.631   7.855  0.4677 -0.4912 -0.5300
  119OSM   C17S12539   5.114   0.820   7.899 -0.1057 -0.5314  0.5819
  119OSM   H17S12540   5.038   0.891   7.859  0.1720  0.6617  2.1070
  119OSM   H17T12541   5.207   0.868   7.863 -1.1611 -0.9137 -2.8280
  119OSM   C18S12542   5.115   0.809   8.047  0.2119 -0.5527 -0.1206
  119OSM   H18S12543   5.173   0.726   8.091  0.3272  0.6985  2.1574
  119OSM   H18T12544   5.012   0.784   8.082  0.1854  2.1077  1.8437
  119OSM   H18U12545   5.137   0.902   8.103  0.3763  0.6614 -2.1415
  119OSM    C1F12546   5.057   0.062   6.397  0.3271 -0.2465  0.0762
  119OSM     OF12547   5.162   0.062   6.332  0.2399  0.2651 -0.2658
  119OSM    C2F12548   5.021  -0.039   6.509  0.7237  0.8958 -0.7036
  119OSM    H2F12549   5.053  -0.140   6.476  0.5578  0.7394 -0.3846
  119OSM    H2G12550   4.912  -0.054   6.525  1.1286  0.4375  1.7694
  119OSM    C3F12551   5.105  -0.014   6.641 -0.4523  0.4244 -0.0703
  119OSM    H3F12552   5.213  -0.016   6.612 -0.7726 -0.7704 -1.2546
  119OSM    H3G12553   5.083  -0.101   6.707 -1.5365 -0.5519 -1.6711
  119OSM    C4F12554   5.072   0.116   6.717 -0.0460 -0.2965 -0.3196
  119OSM    H4F12555   4.963   0.111   6.739  0.0934 -1.0556  0.2546
  119OSM    H4G12556   5.099   0.200   6.650 -2.0990  0.8096  0.1864
  119OSM    C5F12557   5.143   0.140   6.851 -0.9301 -0.3739 -0.1760
  119OSM    H5F12558   5.123   0.246   6.880 -2.0542 -0.0764 -2.0048
  119OSM    H5G12559   5.251   0.118   6.835 -0.8743 -1.3904  1.4853
  119OSM    C6F12560   5.093   0.068   6.981 -0.0462  0.0792 -0.3407
  119OSM    H6F12561   5.124  -0.038   6.977  0.9266  0.3360  0.2512
  119OSM    H6G12562   4.982   0.082   6.982 -0.3845 -2.2340 -2.0662
  119OSM    C7F12563   5.141   0.133   7.113 -0.3544 -0.0239  0.3515
  119OSM    H7F12564   5.111   0.240   7.114  2.6186  0.8422  0.0821
  119OSM    H7G12565   5.252   0.136   7.116 -0.2781 -0.9762 -1.1212
  119OSM    C8F12566   5.083   0.061   7.229  0.8155  0.1905 -0.3401
  119OSM    H8F12567   5.124  -0.043   7.228 -0.3731 -0.3430  1.9900
  119OSM    H8G12568   4.972   0.059   7.229  0.7831  1.9376 -1.4766
  119OSM    C9F12569   5.111   0.132   7.356  0.1524  0.3506 -0.8036
  119OSM    H9F12570   5.091   0.240   7.351  1.6890  0.6607 -0.7669
  119OSM   C10F12571   5.159   0.081   7.474 -0.4792 -0.8326 -0.4551
  119OSM   H10F12572   5.158   0.140   7.566  0.6071 -1.8853  0.2346
  119OSM   C11F12573   5.202  -0.064   7.500  0.7265 -0.2756 -0.3564
  119OSM   H11F12574   5.296  -0.064   7.559  0.7826 -0.5753 -0.4478
  119OSM   H11G12575   5.226  -0.123   7.409  2.0454 -0.8598  0.3563
  119OSM   C12F12576   5.098  -0.133   7.588 -0.3721  0.0130  0.0417
  119OSM   H12F12577   5.103  -0.244   7.580  0.2041  0.1279 -1.3148
  119OSM   H12G12578   4.997  -0.109   7.549 -0.1913  1.2790  0.3231
  119OSM   C13F12579   5.100  -0.098   7.740 -0.0574  0.1029  0.8969
  119OSM   H13F12580   5.039  -0.004   7.738 -0.1849  0.0108  0.3396
  119OSM   H13G12581   5.206  -0.083   7.769  0.0689  2.7059 -0.7406
  119OSM   C14F12582   5.047  -0.202   7.831 -0.2197 -0.7678 -0.1933
  119OSM   H14F12583   5.072  -0.298   7.781  1.8109 -1.8190  2.6802
  119OSM   H14G12584   4.936  -0.204   7.845  0.1765 -0.7245  3.6915
  119OSM   C15F12585   5.118  -0.207   7.964 -0.1908 -0.3420  0.4130
  119OSM   H15F12586   5.109  -0.107   8.011  0.4182  0.3445 -0.9180
  119OSM   H15G12587   5.224  -0.239   7.950  0.0745  1.2871 -1.5635
  119OSM   C16F12588   5.050  -0.306   8.055  0.5015 -0.2871 -0.2116
  119OSM   H16F12589   5.062  -0.412   8.024 -0.4976 -0.4609 -0.0275
  119OSM   H16G12590   4.941  -0.283   8.054  0.0760 -2.0639  1.4762
  119OSM   C17F12591   5.083  -0.288   8.210  0.7199  0.3716  0.0173
  119OSM   H17F12592   5.010  -0.356   8.260  0.7282  1.2993  1.3208
  119OSM   H17G12593   5.072  -0.180   8.235  1.6996  0.8190 -1.4688
  119OSM   C18F12594   5.225  -0.313   8.241 -0.0624 -0.3108 -0.1808
  119OSM   H18F12595   5.258  -0.245   8.323 -0.2727 -0.3731 -0.0459
  119OSM   H18G12596   5.291  -0.287   8.155 -0.2163 -2.0157 -0.8236
  119OSM   H18H12597   5.236  -0.415   8.282  0.6328 -0.7040 -1.3095
  120OSM      N12598   2.320   5.600   6.541  0.4170  1.0272  0.4890
  120OSM    C1512599   2.354   5.635   6.681  0.4804  0.4518  0.2627
  120OSM   H15A12600   2.410   5.553   6.724 -0.8864 -0.1633  0.9270
  120OSM   H15B12601   2.274   5.647   6.753  0.6545  1.1349  0.3392
  120OSM   H15C12602   2.417   5.722   6.693 -1.6122  2.2491 -1.5519
  120OSM    C1412603   2.239   5.712   6.483  0.0386 -0.0993 -0.1899
  120OSM   H14A12604   2.251   5.715   6.375  0.0641  1.6116 -0.1502
  120OSM   H14B12605   2.281   5.804   6.518  0.8418 -0.2185 -0.8267
  120OSM   H14C12606   2.138   5.706   6.520 -0.2886 -0.4853 -1.1283
  120OSM    C1312607   2.447   5.602   6.465  0.7499  0.2585 -0.2770
  120OSM   H13A12608   2.497   5.697   6.480 -2.4297  2.1243 -1.0414
  120OSM   H13B12609   2.425   5.598   6.359  2.1977 -0.4125 -0.5651
  120OSM   H13C12610   2.510   5.519   6.490  0.3563 -0.2349 -0.8914
  120OSM    C1212611   2.238   5.475   6.530  0.7949  0.7639  0.5765
  120OSM   H12A12612   2.150   5.495   6.590  0.8588 -0.0059  0.9257
  120OSM   H12B12613   2.291   5.389   6.569 -1.1911 -1.2710 -1.1177
  120OSM    C1112614   2.183   5.437   6.391  0.3204 -0.3614 -0.3938
  120OSM   H11A12615   2.120   5.520   6.353 -0.5202 -1.0709 -0.5699
  120OSM   H11B12616   2.109   5.356   6.407  2.6908 -2.3316  0.9471
  120OSM      P12617   2.353   5.261   6.297  0.1790  0.2662 -0.2209
  120OSM    O1312618   2.284   5.196   6.183  0.1133  0.1960 -0.5765
  120OSM    O1412619   2.499   5.270   6.279 -0.5164 -0.1333 -0.4234
  120OSM    O1112620   2.313   5.192   6.436 -0.6572 -0.0460 -0.2824
  120OSM    O1212621   2.295   5.409   6.304  0.1008 -0.6344  0.8419
  120OSM    C1S12622   2.403   5.173   6.549  0.5926 -0.5381 -0.1246
  120OSM    H1S12623   2.451   5.268   6.582 -2.2956  1.6226 -1.8909
  120OSM    H1T12624   2.492   5.109   6.533  1.4641  0.0465  2.1852
  120OSM     NF12625   2.429   5.150   6.794  0.1024  0.9483  0.1524
  120OSM    HNF12626   2.493   5.074   6.805  0.0492  0.7318 -0.9753
  120OSM    C2S12627   2.334   5.123   6.684  0.4962  0.2812 -0.4228
  120OSM    H2S12628   2.235   5.172   6.690  1.5881  2.3387  1.5424
  120OSM    C3S12629   2.300   4.979   6.664 -0.8002 -0.1505 -0.4800
  120OSM    H3S12630   2.387   4.916   6.635 -1.1543 -0.0538 -1.7934
  120OSM     O312631   2.207   4.954   6.559  0.2788 -0.7419 -0.0260
  120OSM    HO312632   2.194   5.047   6.537 -0.9942 -0.4451  1.8890
  120OSM    C4S12633   2.250   4.930   6.791  0.3554 -0.3575 -0.1304
  120OSM    H4S12634   2.323   4.862   6.839 -0.2582 -0.4630  0.6640
  120OSM    C5S12635   2.131   4.939   6.861  0.3637 -0.3108  0.0776
  120OSM    H5S12636   2.040   4.981   6.816 -0.3008 -0.9913  0.7773
  120OSM    C6S12637   2.102   4.887   6.998  0.5538  0.3546 -0.3371
  120OSM    H6S12638   2.019   4.814   6.996  1.1600 -0.4094  1.3119
  120OSM    H6T12639   2.063   4.969   7.063 -0.7607 -0.2014 -0.4187
  120OSM    C7S12640   2.213   4.825   7.079 -0.7617  0.5452  0.4389
  120OSM    H7S12641   2.300   4.893   7.079 -0.6687  0.4261  0.7628
  120OSM    H7T12642   2.229   4.727   7.029 -4.0953 -0.8141  1.9000
  120OSM    C8S12643   2.186   4.800   7.232  0.2157  0.0984 -0.1689
  120OSM    H8S12644   2.270   4.754   7.288  0.8301 -1.1012 -2.0460
  120OSM    H8T12645   2.102   4.727   7.241  0.4599 -0.4359 -2.1410
  120OSM    C9S12646   2.135   4.926   7.318  0.0513 -0.0917  0.0139
  120OSM    H9S12647   2.051   4.979   7.268  0.3389 -0.4085 -0.8213
  120OSM    H9T12648   2.215   5.002   7.327  0.0350  0.1919 -1.9247
  120OSM   C10S12649   2.105   4.880   7.465 -0.1138 -0.0265 -0.2420
  120OSM   H10S12650   2.171   4.792   7.481  1.6237  1.1859 -0.5860
  120OSM   H10T12651   2.003   4.849   7.497  0.5213 -1.1602  0.7357
  120OSM   C11S12652   2.152   4.991   7.566  0.3409  0.7285  0.5962
  120OSM   H11S12653   2.114   5.090   7.534  1.3358  1.8330  2.6596
  120OSM   H11T12654   2.263   4.986   7.569  0.3190 -2.6775 -1.6564
  120OSM   C12S12655   2.111   4.961   7.708 -0.3216 -0.1319  0.6614
  120OSM   H12S12656   2.170   4.871   7.737  1.2794  0.5652 -0.4144
  120OSM   H12T12657   2.002   4.941   7.710 -0.4668  0.5319  4.6118
  120OSM   C13S12658   2.139   5.077   7.809 -0.8918  0.0944 -0.0366
  120OSM   H13S12659   2.078   5.160   7.767  0.3989  0.6843 -0.7671
  120OSM   H13T12660   2.242   5.117   7.799  0.3176 -2.3016  2.1572
  120OSM   C14S12661   2.098   5.033   7.955  0.3285 -0.3674  0.2998
  120OSM   H14S12662   1.987   5.028   7.945  0.2097 -0.4574  1.5901
  120OSM   H14T12663   2.121   5.114   8.026 -1.6574  0.2293  0.3091
  120OSM   C15S12664   2.156   4.906   8.015  0.4830 -0.5818 -0.1111
  120OSM   H15S12665   2.266   4.910   7.996  0.6721  1.3458  1.1872
  120OSM   H15T12666   2.112   4.822   7.958  1.2712 -1.1353  0.0763
  120OSM   C16S12667   2.112   4.893   8.160  0.3347 -0.5309  0.1853
  120OSM   H16S12668   2.170   4.961   8.227  0.9823 -0.6930 -0.2117
  120OSM   H16T12669   2.143   4.793   8.196  1.4970 -1.0054 -2.0909
  120OSM   C17S12670   1.959   4.898   8.175 -0.6517 -0.5618 -0.0163
  120OSM   H17S12671   1.921   4.834   8.092  2.2860  0.2163 -2.0586
  120OSM   H17T12672   1.918   4.999   8.156 -1.9108 -0.6459  2.0691
  120OSM   C18S12673   1.924   4.847   8.314 -0.2259  0.3025  0.4309
  120OSM   H18S12674   1.960   4.911   8.397  1.9199  1.2484 -1.2100
  120OSM   H18T12675   1.944   4.738   8.322 -0.5806  0.2499  0.6096
  120OSM   H18U12676   1.813   4.838   8.314 -0.0844 -1.6330 -0.2770
  120OSM    C1F12677   2.468   5.268   6.844  0.4590 -0.2258  0.3896
  120OSM     OF12678   2.400   5.369   6.808  0.5607 -0.2782  0.1030
  120OSM    C2F12679   2.575   5.266   6.950  0.0902 -0.1334 -0.6740
  120OSM    H2F12680   2.633   5.171   6.945  0.3736 -0.0471  0.7389
  120OSM    H2G12681   2.522   5.272   7.047 -0.8226  0.7242 -1.2129
  120OSM    C3F12682   2.663   5.390   6.949  0.1095 -0.3443  0.0906
  120OSM    H3F12683   2.601   5.480   6.967  0.6479 -0.0245  0.3553
  120OSM    H3G12684   2.721   5.414   6.857 -2.0016  2.4166 -0.5974
  120OSM    C4F12685   2.767   5.401   7.068  0.3242 -0.0963  0.0654
  120OSM    H4F12686   2.825   5.493   7.045 -0.0927 -0.3285 -2.0489
  120OSM    H4G12687   2.832   5.311   7.074 -0.7020 -0.7287  1.9314
  120OSM    C5F12688   2.693   5.414   7.197  0.1214 -0.2589 -1.1183
  120OSM    H5F12689   2.651   5.317   7.231 -2.0140  0.1106 -2.6231
  120OSM    H5G12690   2.619   5.497   7.197  0.3689 -0.0213  0.8790
  120OSM    C6F12691   2.783   5.469   7.316  0.1585  0.0327 -0.2586
  120OSM    H6F12692   2.806   5.573   7.285  3.6440 -1.3026 -2.5510
  120OSM    H6G12693   2.874   5.405   7.321 -0.9022 -1.7237 -2.4421
  120OSM    C7F12694   2.707   5.454   7.445  0.1823 -0.0176  0.4229
  120OSM    H7F12695   2.694   5.344   7.456 -1.5034 -0.1793 -2.4898
  120OSM    H7G12696   2.605   5.497   7.431  0.3959 -0.1233 -1.5519
  120OSM    C8F12697   2.770   5.506   7.573 -0.0086  0.0453 -0.5592
  120OSM    H8F12698   2.697   5.501   7.657 -1.5807  0.5956 -1.8442
  120OSM    H8G12699   2.797   5.613   7.563 -0.1543  0.3546  1.9937
  120OSM    C9F12700   2.891   5.429   7.620 -0.4815  0.4659 -0.0837
  120OSM    H9F12701   2.966   5.417   7.540 -2.4455  1.9949 -2.2364
  120OSM   C10F12702   2.907   5.369   7.742  0.1301  0.2214  0.3473
  120OSM   H10F12703   3.006   5.325   7.764 -0.2419 -0.2692  1.0596
  120OSM   C11F12704   2.801   5.356   7.854 -0.2368  0.3485  0.7034
  120OSM   H11F12705   2.782   5.248   7.869  0.5309 -0.2013 -2.1597
  120OSM   H11G12706   2.709   5.416   7.834  0.1582  1.3019  1.6943
  120OSM   C12F12707   2.877   5.416   7.976  1.1271 -0.4546 -0.0713
  120OSM   H12F12708   2.906   5.523   7.972  4.4208 -1.2194  1.4924
  120OSM   H12G12709   2.970   5.365   8.007  1.1683 -0.3511 -0.0270
  120OSM   C13F12710   2.793   5.396   8.105 -0.4581  0.1822  0.0766
  120OSM   H13F12711   2.830   5.309   8.164 -1.7946  0.4199  1.3040
  120OSM   H13G12712   2.686   5.380   8.080 -0.0483  0.7197 -2.0883
  120OSM   C14F12713   2.788   5.525   8.197  0.9720  0.0440 -0.0980
  120OSM   H14F12714   2.745   5.612   8.143 -1.3160 -0.5763  0.6665
  120OSM   H14G12715   2.893   5.551   8.222  0.3747  2.4644  0.0364
  120OSM   C15F12716   2.697   5.518   8.316  0.4031 -0.0588 -0.1771
  120OSM   H15F12717   2.731   5.438   8.385 -1.2381 -0.2452  0.4302
  120OSM   H15G12718   2.594   5.486   8.288  0.9994 -0.8450 -1.5423
  120OSM   C16F12719   2.704   5.649   8.387 -0.1531 -0.1959  0.4450
  120OSM   H16F12720   2.674   5.731   8.318  1.1808  1.3361  1.6290
  120OSM   H16G12721   2.809   5.671   8.415  0.0616 -1.9123  0.9989
  120OSM   C17F12722   2.622   5.659   8.516 -0.6881  0.8372  1.6306
  120OSM   H17F12723   2.658   5.756   8.556  1.3816  0.2815  1.1972
  120OSM   H17G12724   2.658   5.582   8.588  1.2672 -1.1517 -1.3533
  120OSM   C18F12725   2.469   5.658   8.519 -0.7342 -0.1481  0.1185
  120OSM   H18F12726   2.433   5.687   8.620 -0.7756 -2.7449  0.9037
  120OSM   H18G12727   2.434   5.553   8.503  0.0935 -0.4415  0.1861
  120OSM   H18H12728   2.423   5.716   8.436 -0.7048  0.3270  0.4371
  121OSM      N12729   4.713   6.406   6.005 -0.2687  0.7708 -0.3533
  121OSM    C1512730   4.711   6.553   6.021 -0.2025  0.1316 -0.0721
  121OSM   H15A12731   4.788   6.578   6.092  1.4408 -0.4618 -1.6228
  121OSM   H15B12732   4.622   6.588   6.073 -0.7395 -1.1712 -0.0973
  121OSM   H15C12733   4.732   6.617   5.937 -0.6604  1.3591  0.7285
  121OSM    C1412734   4.613   6.370   5.892  0.8186  0.6058  0.5057
  121OSM   H14A12735   4.630   6.272   5.850 -1.5535  0.7829 -0.9473
  121OSM   H14B12736   4.615   6.437   5.807 -1.0148 -1.2794 -1.0730
  121OSM   H14C12737   4.514   6.363   5.934  0.1865 -1.9289 -1.3094
  121OSM    C1312738   4.852   6.361   5.974 -0.6256 -0.4280 -0.9130
  121OSM   H13A12739   4.895   6.437   5.910 -1.0843  1.7106  1.2760
  121OSM   H13B12740   4.859   6.267   5.921 -2.7516 -0.9710 -0.2805
  121OSM   H13C12741   4.910   6.350   6.064 -1.6487 -1.6814 -0.4035
  121OSM    C1212742   4.661   6.339   6.143 -0.1219  0.0522  0.0681
  121OSM   H12A12743   4.725   6.375   6.222 -0.4364  0.4544  0.1387
  121OSM   H12B12744   4.672   6.231   6.142 -1.6648 -0.1125  0.2913
  121OSM    C1112745   4.509   6.366   6.169  0.4027  0.0602  0.1851
  121OSM   H11A12746   4.472   6.314   6.261  0.3408 -0.6838 -0.2588
  121OSM   H11B12747   4.445   6.329   6.086 -1.0333  0.0655  1.2687
  121OSM      P12748   4.353   6.577   6.144  0.1650  0.4980 -0.2903
  121OSM    O1312749   4.392   6.703   6.076 -0.4778 -0.3649  0.0625
  121OSM    O1412750   4.261   6.481   6.072  0.3166  0.2609  0.2986
  121OSM    O1112751   4.282   6.607   6.279  0.3391 -0.0756  0.2002
  121OSM    O1212752   4.490   6.510   6.189 -0.4583  0.5681 -0.7074
  121OSM    C1S12753   4.300   6.549   6.404  0.2396 -0.6530  0.9665
  121OSM    H1S12754   4.384   6.477   6.417 -0.3076 -1.5194 -0.2147
  121OSM    H1T12755   4.208   6.495   6.433 -1.1964 -0.2260 -2.5329
  121OSM     NF12756   4.326   6.594   6.646  0.5570  0.5767  0.5001
  121OSM    HNF12757   4.247   6.546   6.684  0.4563 -0.4961 -1.0239
  121OSM    C2S12758   4.315   6.655   6.515 -0.7576  0.0077  0.1093
  121OSM    H2S12759   4.407   6.708   6.484 -0.7113  1.0307  1.8937
  121OSM    C3S12760   4.192   6.760   6.506 -1.1438  0.7959 -0.3771
  121OSM    H3S12761   4.100   6.703   6.533  0.3565 -1.3365  0.3823
  121OSM     O312762   4.176   6.817   6.381  0.3931  0.3940 -0.2089
  121OSM    HO312763   4.226   6.763   6.319 -0.6491 -2.9785  1.7918
  121OSM    C4S12764   4.217   6.861   6.618  0.7165  0.5081  0.0556
  121OSM    H4S12765   4.306   6.926   6.609  0.9498  0.0717 -0.8332
  121OSM    C5S12766   4.136   6.884   6.720 -0.1256  0.1495 -0.1726
  121OSM    H5S12767   4.041   6.831   6.733  0.9228 -1.3438  1.8127
  121OSM    C6S12768   4.173   6.993   6.822  0.2166 -0.0463  0.5931
  121OSM    H6S12769   4.095   7.070   6.806  1.1250  0.4329 -1.6123
  121OSM    H6T12770   4.270   7.044   6.807  2.8858 -4.6892  1.2435
  121OSM    C7S12771   4.155   6.934   6.964  0.2294 -0.1196 -0.1705
  121OSM    H7S12772   4.215   6.843   6.988  0.2764 -0.4331 -1.4382
  121OSM    H7T12773   4.051   6.896   6.981 -0.2020  0.8740 -0.5780
  121OSM    C8S12774   4.184   7.051   7.060 -0.6921  0.5750  0.5958
  121OSM    H8S12775   4.105   7.128   7.047  0.1484  1.4912  0.8749
  121OSM    H8T12776   4.285   7.091   7.038 -0.3464  0.6726  2.2773
  121OSM    C9S12777   4.182   7.001   7.201  0.2094  0.1984 -1.0888
  121OSM    H9S12778   4.277   6.948   7.225  0.3597  0.5703 -0.8632
  121OSM    H9T12779   4.099   6.928   7.213  0.2619  0.2190 -0.5937
  121OSM   C10S12780   4.162   7.112   7.308  0.2353  0.4404 -0.4230
  121OSM   H10S12781   4.063   7.162   7.299 -0.1992 -0.9001 -4.0304
  121OSM   H10T12782   4.239   7.190   7.288  3.5441 -2.5870 -0.1021
  121OSM   C11S12783   4.173   7.047   7.450  0.1049 -0.7066 -0.2234
  121OSM   H11S12784   4.265   6.985   7.453 -0.4597 -1.4929  0.8977
  121OSM   H11T12785   4.088   6.976   7.456 -0.2451 -0.1147  2.5186
  121OSM   C12S12786   4.176   7.144   7.568  0.3347  0.4386  0.5459
  121OSM   H12S12787   4.081   7.200   7.575 -0.1033 -0.5419  2.9277
  121OSM   H12T12788   4.262   7.215   7.560 -0.9573  2.2629  2.2366
  121OSM   C13S12789   4.196   7.065   7.698  0.1606  0.6527  0.0530
  121OSM   H13S12790   4.283   6.996   7.699 -0.5386 -0.2492  1.6765
  121OSM   H13T12791   4.100   7.009   7.704  0.4298  0.3066  1.1795
  121OSM   C14S12792   4.214   7.163   7.814  0.5606 -0.5282 -0.2674
  121OSM   H14S12793   4.130   7.235   7.819  0.5987 -0.6326  1.9896
  121OSM   H14T12794   4.307   7.224   7.809  0.7607 -0.7559  0.6664
  121OSM   C15S12795   4.224   7.090   7.943  0.5074  0.3055  0.1470
  121OSM   H15S12796   4.290   7.002   7.933  0.0093  0.1494 -2.0586
  121OSM   H15T12797   4.127   7.047   7.977  1.1508 -1.2538  0.0451
  121OSM   C16S12798   4.270   7.191   8.050 -0.5361 -0.3352 -0.8618
  121OSM   H16S12799   4.196   7.273   8.056  1.1575  1.1456  0.6666
  121OSM   H16T12800   4.360   7.250   8.020 -0.9804  1.4743  1.2354
  121OSM   C17S12801   4.294   7.140   8.190 -0.7910 -0.2379 -1.0985
  121OSM   H17S12802   4.208   7.082   8.231  0.5700 -1.6911 -0.2709
  121OSM   H17T12803   4.297   7.226   8.260  0.4850 -2.7019  1.9624
  121OSM   C18S12804   4.420   7.060   8.196 -0.1763 -0.7292 -0.6020
  121OSM   H18S12805   4.512   7.113   8.166 -0.9761  0.1219 -1.5760
  121OSM   H18T12806   4.406   6.969   8.133  0.0031 -0.5705 -0.8681
  121OSM   H18U12807   4.441   7.034   8.302 -0.2737 -0.0463 -0.4157
  121OSM    C1F12808   4.448   6.553   6.679 -0.1782 -0.5293  0.0481
  121OSM     OF12809   4.543   6.580   6.610  0.6794  0.2223  0.0246
  121OSM    C2F12810   4.461   6.471   6.810  0.5069  0.3930 -0.0172
  121OSM    H2F12811   4.544   6.399   6.797 -0.1341 -0.0476 -1.7956
  121OSM    H2G12812   4.367   6.413   6.827  1.1285 -0.2032  1.4746
  121OSM    C3F12813   4.477   6.560   6.937 -0.0837  0.7533  0.5831
  121OSM    H3F12814   4.397   6.637   6.924 -1.0217 -0.1275  1.0963
  121OSM    H3G12815   4.576   6.609   6.924  0.2556 -0.4887 -1.6522
  121OSM    C4F12816   4.476   6.486   7.072 -0.1747  0.3593 -0.0997
  121OSM    H4F12817   4.559   6.413   7.077 -0.0055  0.6717  2.3335
  121OSM    H4G12818   4.381   6.429   7.082  0.2115  0.0509  2.0853
  121OSM    C5F12819   4.500   6.566   7.197 -0.6858  0.0868 -0.6908
  121OSM    H5F12820   4.453   6.667   7.199  3.1089  1.9215 -1.1091
  121OSM    H5G12821   4.605   6.597   7.213 -1.3939  0.7902  2.9205
  121OSM    C6F12822   4.479   6.481   7.320 -0.2976  0.3568 -0.1751
  121OSM    H6F12823   4.546   6.392   7.318  1.0781  1.3890 -0.6896
  121OSM    H6G12824   4.380   6.431   7.309  0.7259 -1.4066 -1.5554
  121OSM    C7F12825   4.501   6.571   7.443 -0.8901  1.0266 -0.3853
  121OSM    H7F12826   4.460   6.672   7.419 -0.8231  0.8686 -1.1942
  121OSM    H7G12827   4.609   6.579   7.467 -0.6602  1.0635 -1.3942
  121OSM    C8F12828   4.423   6.524   7.562  0.1578 -0.6327  0.3233
  121OSM    H8F12829   4.448   6.422   7.597 -1.0308 -1.2716 -0.6305
  121OSM    H8G12830   4.315   6.515   7.536 -0.5753  2.2663  2.2628
  121OSM    C9F12831   4.435   6.619   7.676 -0.0046  0.9944 -0.5217
  121OSM    H9F12832   4.537   6.656   7.696  0.6801 -0.0366 -1.9691
  121OSM   C10F12833   4.331   6.664   7.752 -0.3639  0.4534  0.2927
  121OSM   H10F12834   4.360   6.724   7.839  0.6526  0.0149  0.2636
  121OSM   C11F12835   4.182   6.636   7.736  0.2140 -0.4204  0.5859
  121OSM   H11F12836   4.169   6.582   7.640  0.0898 -1.2917  1.0847
  121OSM   H11G12837   4.143   6.740   7.730  1.0612  0.0880  3.2669
  121OSM   C12F12838   4.110   6.552   7.839 -0.3704  0.2568  0.3008
  121OSM   H12F12839   4.183   6.476   7.872  1.7131  1.0479 -2.2687
  121OSM   H12G12840   4.022   6.502   7.794  0.6214 -1.1687 -0.0976
  121OSM   C13F12841   4.069   6.611   7.982 -1.0052  0.0921  0.3726
  121OSM   H13F12842   4.019   6.526   8.032 -0.1367 -1.0391 -0.6570
  121OSM   H13G12843   3.993   6.691   7.970  0.4269  1.3802 -0.3437
  121OSM   C14F12844   4.191   6.668   8.065  0.3548  0.4710  0.0405
  121OSM   H14F12845   4.236   6.759   8.021  1.6384  0.0580  0.4714
  121OSM   H14G12846   4.267   6.587   8.070  2.9601  2.8527  0.2058
  121OSM   C15F12847   4.148   6.709   8.213  0.8091 -0.4127  0.2694
  121OSM   H15F12848   4.081   6.637   8.265 -1.6083  1.3343 -0.3481
  121OSM   H15G12849   4.079   6.796   8.213  0.6436 -0.5402  1.0381
  121OSM   C16F12850   4.271   6.741   8.301  0.4596 -0.5075  0.6074
  121OSM   H16F12851   4.344   6.783   8.228  2.3236 -1.3537  1.9640
  121OSM   H16G12852   4.314   6.645   8.337  1.1670  0.4376  2.2902
  121OSM   C17F12853   4.240   6.827   8.415 -0.5885  0.1764  0.0483
  121OSM   H17F12854   4.148   6.789   8.464 -0.2820 -1.9658 -0.9844
  121OSM   H17G12855   4.220   6.932   8.385  2.1438  0.8391  0.3757
  121OSM   C18F12856   4.356   6.822   8.522 -0.1264  0.1803  0.1450
  121OSM   H18F12857   4.343   6.891   8.608  0.3756  1.2411 -0.6278
  121OSM   H18G12858   4.449   6.839   8.463 -1.3753  0.8820 -1.6526
  121OSM   H18H12859   4.358   6.717   8.560 -0.9301  1.0008  2.5169
  122OSM      N12860   3.117   2.559   5.734  0.1026  0.5031 -0.3240
  122OSM    C1512861   3.056   2.442   5.669 -0.7542  0.3605 -0.3011
  122OSM   H15A12862   2.970   2.480   5.615 -0.6377 -0.9175 -1.4126
  122OSM   H15B12863   3.020   2.380   5.749 -0.9254  2.4108  1.2616
  122OSM   H15C12864   3.112   2.383   5.597 -1.5151 -0.8879  0.1320
  122OSM    C1412865   3.178   2.634   5.614 -0.3006  0.2429 -0.2273
  122OSM   H14A12866   3.252   2.574   5.563 -1.9416 -1.4376 -0.6798
  122OSM   H14B12867   3.233   2.717   5.654  0.9194 -0.8741  0.4230
  122OSM   H14C12868   3.096   2.670   5.553 -1.3625 -1.6409  0.0375
  122OSM    C1312869   3.008   2.636   5.798 -0.0347  0.6689 -0.8030
  122OSM   H13A12870   2.952   2.584   5.874  1.1435 -0.2083 -0.5331
  122OSM   H13B12871   2.932   2.675   5.732 -0.5005 -1.7773 -1.7633
  122OSM   H13C12872   3.050   2.731   5.828 -1.8575  1.8788 -1.9394
  122OSM    C1212873   3.222   2.512   5.832  0.2725  0.3669  0.0597
  122OSM   H12A12874   3.282   2.600   5.852 -0.9621  1.9378 -2.7981
  122OSM   H12B12875   3.295   2.443   5.792 -1.0063 -0.0923 -1.5313
  122OSM    C1112876   3.185   2.459   5.970 -0.1616 -0.8237  0.0905
  122OSM   H11A12877   3.140   2.547   6.019  1.4635 -0.0238  0.1853
  122OSM   H11B12878   3.281   2.443   6.024 -0.2081  0.0509  0.4296
  122OSM      P12879   2.964   2.334   6.038 -0.0312  0.1901  0.3207
  122OSM    O1312880   2.884   2.450   5.983  0.3006 -0.7512  0.3347
  122OSM    O1412881   2.903   2.199   6.025 -0.2627 -0.1179 -0.9440
  122OSM    O1112882   2.995   2.358   6.189  0.4016 -0.4878  0.7240
  122OSM    O1212883   3.110   2.336   5.972  0.2171 -0.3836  0.4405
  122OSM    C1S12884   3.086   2.270   6.253  0.3786  0.1813 -0.4994
  122OSM    H1S12885   3.169   2.269   6.178  0.5816  1.4705 -0.2951
  122OSM    H1T12886   3.044   2.167   6.251 -2.4934  1.1821  3.4358
  122OSM     NF12887   3.248   2.249   6.435  0.5290 -0.2916 -0.0055
  122OSM    HNF12888   3.239   2.183   6.510 -0.6378 -0.0078  0.1236
  122OSM    C2S12889   3.122   2.321   6.395 -0.0718  0.7188 -0.3574
  122OSM    H2S12890   3.144   2.428   6.379  1.8943  0.5355  0.9459
  122OSM    C3S12891   2.994   2.301   6.487 -0.8152  1.0877 -0.1123
  122OSM    H3S12892   2.953   2.200   6.465 -0.1821  0.9153 -0.5027
  122OSM     O312893   2.889   2.392   6.456 -0.5667  0.6803  0.1592
  122OSM    HO312894   2.918   2.426   6.371  0.6651 -0.0576  0.2705
  122OSM    C4S12895   3.037   2.314   6.628  0.5552 -1.0598 -0.1736
  122OSM    H4S12896   3.072   2.221   6.676 -0.3242  0.0159  2.6493
  122OSM    C5S12897   3.025   2.420   6.713 -0.1706 -0.5205 -0.2990
  122OSM    H5S12898   3.001   2.518   6.669  1.8570 -1.5305 -3.8547
  122OSM    C6S12899   3.075   2.407   6.854 -0.2867 -0.4972  0.2871
  122OSM    H6S12900   3.129   2.502   6.871  0.6290 -0.9974  0.2048
  122OSM    H6T12901   3.152   2.326   6.858 -0.2184 -0.3838  2.0304
  122OSM    C7S12902   2.966   2.378   6.961 -0.1244  1.1690  0.6150
  122OSM    H7S12903   2.913   2.284   6.938 -1.3291  2.0407 -0.2591
  122OSM    H7T12904   2.890   2.459   6.965  1.2073  2.6223 -1.9333
  122OSM    C8S12905   3.026   2.368   7.102 -0.0162 -0.1860  0.6649
  122OSM    H8S12906   3.049   2.473   7.131  2.1292  0.4343 -3.0406
  122OSM    H8T12907   3.124   2.315   7.106  1.5480  2.6307  1.1730
  122OSM    C9S12908   2.943   2.293   7.212 -0.1606  0.2767  0.0781
  122OSM    H9S12909   2.928   2.192   7.168 -1.5892  1.7093 -2.9386
  122OSM    H9T12910   2.847   2.349   7.215 -0.0394  0.5677 -1.2212
  122OSM   C10S12911   3.001   2.300   7.357  0.9302  0.7603 -0.1522
  122OSM   H10S12912   3.109   2.274   7.355  0.6973 -0.1340 -2.0730
  122OSM   H10T12913   2.946   2.230   7.424 -0.4131  0.4143 -1.5751
  122OSM   C11S12914   2.992   2.438   7.425  0.2965 -0.5461 -0.0668
  122OSM   H11S12915   2.884   2.450   7.448  0.5742 -0.8556  1.4602
  122OSM   H11T12916   3.030   2.526   7.369 -0.7699 -0.5425 -0.7911
  122OSM   C12S12917   3.053   2.424   7.564  0.3403  0.2122  0.0780
  122OSM   H12S12918   3.063   2.521   7.618 -1.1432 -0.7823  2.2205
  122OSM   H12T12919   3.155   2.381   7.554 -1.0654 -2.6147 -2.9693
  122OSM   C13S12920   2.972   2.332   7.659  0.2502 -0.1687 -0.0594
  122OSM   H13S12921   2.974   2.227   7.622 -0.6097  0.3247 -1.5251
  122OSM   H13T12922   2.866   2.365   7.663 -0.5436 -2.3511 -2.3598
  122OSM   C14S12923   3.036   2.320   7.798 -0.2221  0.4064 -0.9470
  122OSM   H14S12924   3.024   2.415   7.854  2.1820 -0.4944  1.1960
  122OSM   H14T12925   3.146   2.314   7.786  0.0506  2.2464  0.3842
  122OSM   C15S12926   2.990   2.192   7.873 -0.8371 -0.7820 -0.0119
  122OSM   H15S12927   3.029   2.107   7.812  1.5076 -0.0201  0.3679
  122OSM   H15T12928   2.880   2.185   7.887 -0.5055 -1.2903  2.4987
  122OSM   C16S12929   3.047   2.188   8.008  0.3157  0.5024  0.1606
  122OSM   H16S12930   3.004   2.272   8.067 -0.2663  0.6434 -0.4551
  122OSM   H16T12931   3.152   2.219   7.994  0.7543 -1.3795 -0.9091
  122OSM   C17S12932   3.031   2.047   8.079 -0.2320 -0.5372 -1.1249
  122OSM   H17S12933   3.078   1.968   8.016  0.2796 -1.5031  0.4444
  122OSM   H17T12934   2.928   2.014   8.104 -0.3151 -0.4635 -1.3628
  122OSM   C18S12935   3.113   2.040   8.212  0.2828 -0.1586  0.2236
  122OSM   H18S12936   3.073   2.108   8.290  1.5695  1.2765 -0.3352
  122OSM   H18T12937   3.217   2.076   8.194  0.2152 -0.5247 -0.9693
  122OSM   H18U12938   3.119   1.935   8.248  0.9550 -0.5948 -1.1266
  122OSM    C1F12939   3.365   2.280   6.374  0.0287  0.0973  0.4187
  122OSM     OF12940   3.383   2.376   6.305  0.2597  0.1464 -0.4729
  122OSM    C2F12941   3.470   2.169   6.387 -0.1124  0.7491 -0.2609
  122OSM    H2F12942   3.481   2.111   6.292 -1.5062 -1.4541  0.8649
  122OSM    H2G12943   3.442   2.103   6.471 -1.1910  1.4592 -0.0509
  122OSM    C3F12944   3.612   2.227   6.411  0.4010 -0.5890 -0.6790
  122OSM    H3F12945   3.640   2.291   6.324  0.9876 -1.3392 -1.0516
  122OSM    H3G12946   3.681   2.140   6.415  2.1717  0.8526  0.9249
  122OSM    C4F12947   3.611   2.305   6.540  0.0380  1.0972 -0.3309
  122OSM    H4F12948   3.536   2.386   6.547 -0.7979  0.2400  1.1730
  122OSM    H4G12949   3.711   2.354   6.536  0.9962 -0.6366  1.2317
  122OSM    C5F12950   3.616   2.213   6.663  0.1722 -0.3581 -0.0788
  122OSM    H5F12951   3.718   2.169   6.666 -0.6804 -2.5265 -1.5239
  122OSM    H5G12952   3.548   2.125   6.663 -1.1201  0.6384  0.2191
  122OSM    C6F12953   3.591   2.294   6.790 -0.5453 -0.1044 -0.6642
  122OSM    H6F12954   3.483   2.311   6.813 -0.5984  0.9037 -1.5862
  122OSM    H6G12955   3.626   2.399   6.777 -1.8925  0.1208 -2.8725
  122OSM    C7F12956   3.634   2.207   6.911 -0.2873 -0.3738 -0.4473
  122OSM    H7F12957   3.741   2.177   6.920 -0.1397  0.7006  1.7533
  122OSM    H7G12958   3.584   2.112   6.883  1.4385 -1.2432 -0.6517
  122OSM    C8F12959   3.587   2.273   7.042  0.0913 -0.2211  0.0913
  122OSM    H8F12960   3.477   2.289   7.041 -0.1721 -1.5869  2.6214
  122OSM    H8G12961   3.641   2.370   7.046  0.6674 -0.5636  0.8343
  122OSM    C9F12962   3.616   2.191   7.169  0.1700 -0.1359  0.1445
  122OSM    H9F12963   3.620   2.085   7.140  0.3288 -0.1491  0.2170
  122OSM   C10F12964   3.628   2.229   7.298  0.1612 -0.3803  0.2402
  122OSM   H10F12965   3.640   2.155   7.379 -1.5185  1.0688  1.8675
  122OSM   C11F12966   3.611   2.376   7.335 -1.0998 -0.2050 -0.1745
  122OSM   H11F12967   3.577   2.435   7.247 -1.7608  1.0015  0.8742
  122OSM   H11G12968   3.704   2.432   7.358 -1.8766  0.0837  2.3467
  122OSM   C12F12969   3.506   2.413   7.447  0.3360  0.2089 -0.2738
  122OSM   H12F12970   3.407   2.369   7.424 -0.7161  1.7868  1.0704
  122OSM   H12G12971   3.505   2.524   7.447  0.4164  0.2181  0.9145
  122OSM   C13F12972   3.550   2.376   7.590 -0.7038  0.7546  0.3957
  122OSM   H13F12973   3.658   2.391   7.612 -0.2856 -1.1351 -0.3371
  122OSM   H13G12974   3.539   2.266   7.600  1.3899  0.4813 -0.1824
  122OSM   C14F12975   3.461   2.445   7.696  0.0120 -0.4068  0.6687
  122OSM   H14F12976   3.356   2.415   7.678  0.4988 -0.7167 -1.8282
  122OSM   H14G12977   3.468   2.555   7.680 -1.3552 -0.1374  1.7806
  122OSM   C15F12978   3.513   2.396   7.836 -0.0210  0.8797  0.1641
  122OSM   H15F12979   3.459   2.448   7.918 -0.3290  1.2351 -0.2657
  122OSM   H15G12980   3.616   2.436   7.838  0.0517  0.7127 -0.1632
  122OSM   C16F12981   3.491   2.247   7.863 -0.1693  0.3339  0.5193
  122OSM   H16F12982   3.569   2.194   7.803  0.8819  2.3310  0.0711
  122OSM   H16G12983   3.388   2.217   7.833  0.1005  0.1086 -0.2090
  122OSM   C17F12984   3.504   2.214   8.013  0.1664  0.2872 -0.3669
  122OSM   H17F12985   3.426   2.272   8.067 -0.7320 -2.1843  1.0767
  122OSM   H17G12986   3.602   2.247   8.052  0.9842 -1.1053 -1.2273
  122OSM   C18F12987   3.484   2.061   8.038  0.0988 -0.1527  0.6658
  122OSM   H18F12988   3.494   2.052   8.148  0.5744 -1.2056  0.5430
  122OSM   H18G12989   3.565   2.001   7.991  0.3434  0.0012  0.8887
  122OSM   H18H12990   3.381   2.036   8.007  0.2234 -0.3643  0.4221
  123OSM      N12991   1.470   4.610   6.282  0.3665  0.0742 -0.6895
  123OSM    C1512992   1.572   4.560   6.183 -0.1398 -0.0507  0.4186
  123OSM   H15A12993   1.524   4.511   6.100  0.2080  0.9706 -0.3846
  123OSM   H15B12994   1.649   4.499   6.228  1.0837  0.5246 -0.8620
  123OSM   H15C12995   1.619   4.636   6.125 -0.1110  0.8582  1.6133
  123OSM    C1412996   1.367   4.699   6.208 -0.2214 -0.3896 -0.0191
  123OSM   H14A12997   1.415   4.789   6.172 -0.1723 -0.4872 -0.1937
  123OSM   H14B12998   1.290   4.739   6.272  0.1439  0.1854  0.0633
  123OSM   H14C12999   1.315   4.642   6.133 -1.7770  0.1433  0.6308
  123OSM    C1313000   1.396   4.492   6.334  0.3366 -0.6202 -0.1714
  123OSM   H13A13001   1.324   4.526   6.407 -2.6683 -2.0720 -2.3721
  123OSM   H13B13002   1.462   4.418   6.377  0.4672 -0.5540 -0.2586
  123OSM   H13C13003   1.342   4.445   6.254 -0.5414 -0.0967  0.1077
  123OSM    C1213004   1.533   4.693   6.385 -0.0177  0.2540 -0.2037
  123OSM   H12A13005   1.595   4.760   6.327  1.7328 -1.9665 -0.9995
  123OSM   H12B13006   1.610   4.637   6.437  1.0530  0.4026 -1.5932
  123OSM    C1113007   1.441   4.765   6.493  0.4957 -0.5879  0.3936
  123OSM   H11A13008   1.383   4.842   6.437  1.4538 -1.7961 -2.3641
  123OSM   H11B13009   1.515   4.819   6.556  0.5277  0.1856 -0.2998
  123OSM      P13010   1.214   4.682   6.598 -0.0016  0.0134 -0.6163
  123OSM    O1313011   1.132   4.691   6.474 -0.7717 -0.2516  0.5372
  123OSM    O1413012   1.178   4.577   6.692  0.0945  0.1168 -0.5817
  123OSM    O1113013   1.202   4.822   6.669  0.3096  0.6632 -0.5192
  123OSM    O1213014   1.368   4.662   6.560 -0.4458 -0.4719  0.2153
  123OSM    C1S13015   1.239   4.847   6.800  0.0660  0.0446 -0.0554
  123OSM    H1S13016   1.319   4.923   6.795  0.4283 -0.4781 -2.7908
  123OSM    H1T13017   1.293   4.762   6.847 -1.8721  0.1121  2.3998
  123OSM     NF13018   1.185   4.921   7.028  0.5260 -0.1014  0.3385
  123OSM    HNF13019   1.161   4.853   7.098 -0.7232 -1.1481 -1.0784
  123OSM    C2S13020   1.129   4.910   6.893 -0.3128  0.2252 -0.1036
  123OSM    H2S13021   1.108   5.008   6.843 -0.7331 -0.5214 -1.4145
  123OSM    C3S13022   0.998   4.824   6.885  0.5310 -0.0794  0.4030
  123OSM    H3S13023   1.020   4.719   6.915 -3.3534 -1.1386 -0.1710
  123OSM     O313024   0.936   4.814   6.754  0.3601  0.2128 -0.4249
  123OSM    HO313025   1.011   4.800   6.696  1.1650 -1.0252  0.8771
  123OSM    C4S13026   0.899   4.882   6.978 -0.6694  0.4701  0.3267
  123OSM    H4S13027   0.860   4.984   6.962  1.7819  1.1864 -1.2980
  123OSM    C5S13028   0.839   4.830   7.091 -0.1632  0.3087 -0.4333
  123OSM    H5S13029   0.871   4.730   7.123 -1.3787 -0.2219 -0.8518
  123OSM    C6S13030   0.744   4.906   7.175 -0.3023 -0.4991 -0.5579
  123OSM    H6S13031   0.654   4.843   7.194  1.9798 -3.2974  1.5026
  123OSM    H6T13032   0.714   5.003   7.131  1.6605  1.0636  1.4549
  123OSM    C7S13033   0.826   4.946   7.294  1.2589  0.3642  0.1186
  123OSM    H7S13034   0.901   5.022   7.262  0.6698 -0.8436 -4.4228
  123OSM    H7T13035   0.886   4.860   7.332 -0.3981 -1.0848 -0.5012
  123OSM    C8S13036   0.752   5.005   7.407  0.6366 -0.8121 -0.0843
  123OSM    H8S13037   0.665   4.941   7.434 -0.6429  0.4055 -1.2604
  123OSM    H8T13038   0.694   5.093   7.371  0.7733 -0.6765  0.0278
  123OSM    C9S13039   0.832   5.035   7.538 -0.0956  0.2744  0.5042
  123OSM    H9S13040   0.883   5.131   7.518 -2.3286  0.9938 -1.9511
  123OSM    H9T13041   0.894   4.946   7.566  0.2972  0.5988  0.6737
  123OSM   C10S13042   0.732   5.060   7.648 -0.7781 -0.2501  0.1530
  123OSM   H10S13043   0.682   4.962   7.663  0.5256 -0.9832 -0.2145
  123OSM   H10T13044   0.660   5.140   7.618 -0.7849  0.1132  1.1187
  123OSM   C11S13045   0.788   5.093   7.790  0.5834  0.5355  0.5603
  123OSM   H11S13046   0.863   5.172   7.766 -1.6503  1.8079 -2.5482
  123OSM   H11T13047   0.844   5.010   7.838  0.3676  1.1809  1.9811
  123OSM   C12S13048   0.670   5.142   7.871  0.5075  0.0577 -0.2033
  123OSM   H12S13049   0.603   5.054   7.878 -0.6794  0.9344 -0.4291
  123OSM   H12T13050   0.622   5.226   7.816  1.4724  1.7327  1.4341
  123OSM   C13S13051   0.695   5.187   8.019  0.1307  0.3993 -0.7682
  123OSM   H13S13052   0.609   5.239   8.064  1.8277  0.2275  2.8811
  123OSM   H13T13053   0.779   5.259   8.025 -1.5658  2.2337  1.9760
  123OSM   C14S13054   0.740   5.071   8.100 -0.4230 -0.0713  0.3793
  123OSM   H14S13055   0.845   5.045   8.078  0.8632  2.5085  3.0811
  123OSM   H14T13056   0.681   4.981   8.071 -1.6065  0.0038  2.4127
  123OSM   C15S13057   0.721   5.089   8.247  0.2268  0.2699  0.5436
  123OSM   H15S13058   0.744   4.987   8.286  0.6876  0.7383  1.5168
  123OSM   H15T13059   0.621   5.123   8.279 -0.8288 -0.6373 -1.7493
  123OSM   C16S13060   0.810   5.193   8.312  0.0603  0.4453  0.3371
  123OSM   H16S13061   0.899   5.213   8.249 -2.0999  0.4379 -2.8118
  123OSM   H16T13062   0.843   5.138   8.403  0.1699 -0.9824 -0.5586
  123OSM   C17S13063   0.746   5.325   8.346  0.5021 -0.1243 -0.1604
  123OSM   H17S13064   0.671   5.305   8.426 -0.4551 -0.1873 -1.0711
  123OSM   H17T13065   0.693   5.365   8.257 -1.2156  1.4860  1.5500
  123OSM   C18S13066   0.843   5.432   8.389  0.1233  0.3416  0.9474
  123OSM   H18S13067   0.789   5.522   8.425 -0.2263  0.0139  1.2429
  123OSM   H18T13068   0.914   5.465   8.310 -0.5252 -0.2619  0.0965
  123OSM   H18U13069   0.901   5.394   8.475  0.5052  0.3224  0.6816
  123OSM    C1F13070   1.265   5.019   7.052 -0.1296 -0.5003 -0.8471
  123OSM     OF13071   1.274   5.119   6.978  0.6452  0.1574 -0.6054
  123OSM    C2F13072   1.334   5.017   7.189  0.4955  0.2509 -0.6941
  123OSM    H2F13073   1.442   5.034   7.166  0.1153  2.4098 -0.9888
  123OSM    H2G13074   1.310   4.926   7.247  0.8201  0.4873 -0.1740
  123OSM    C3F13075   1.283   5.140   7.269 -0.0286 -0.1112 -0.2602
  123OSM    H3F13076   1.175   5.154   7.250  0.1121  0.3829 -0.7053
  123OSM    H3G13077   1.328   5.232   7.225 -4.6009  1.5882 -1.6792
  123OSM    C4F13078   1.291   5.125   7.420 -0.4434  0.0311 -0.0881
  123OSM    H4F13079   1.399   5.126   7.447 -1.1736 -1.3459  3.1719
  123OSM    H4G13080   1.265   5.022   7.453 -0.2813 -0.1033 -0.3764
  123OSM    C5F13081   1.221   5.229   7.505  0.7662  0.1053  0.4552
  123OSM    H5F13082   1.112   5.218   7.487  0.6778 -0.9497  1.5982
  123OSM    H5G13083   1.233   5.331   7.462  0.6004 -0.3314 -0.6508
  123OSM    C6F13084   1.256   5.236   7.648  0.6517 -0.1541  0.0590
  123OSM    H6F13085   1.219   5.328   7.698  1.7250 -1.1702  2.8526
  123OSM    H6G13086   1.366   5.236   7.664  0.8305  0.0089 -1.1553
  123OSM    C7F13087   1.193   5.124   7.736  0.0901 -0.5689 -0.4087
  123OSM    H7F13088   1.242   5.025   7.721 -1.7298 -0.8657 -5.2355
  123OSM    H7G13089   1.085   5.117   7.711  0.0656 -2.0884  0.0421
  123OSM    C8F13090   1.195   5.148   7.884 -0.6032  0.9659  0.3187
  123OSM    H8F13091   1.148   5.070   7.947 -3.0354  1.8141 -0.4133
  123OSM    H8G13092   1.137   5.241   7.897  2.0201  2.9324 -1.4216
  123OSM    C9F13093   1.333   5.181   7.924  0.2428  0.1403 -0.4605
  123OSM    H9F13094   1.387   5.251   7.859  0.5811  1.1074  0.8490
  123OSM   C10F13095   1.400   5.131   8.031  0.8263 -0.3869 -0.3425
  123OSM   H10F13096   1.504   5.160   8.049  0.4553  0.2280  0.9192
  123OSM   C11F13097   1.343   5.032   8.135 -0.9013 -0.1278  0.1080
  123OSM   H11F13098   1.425   4.984   8.194 -0.9609  0.8627  1.0150
  123OSM   H11G13099   1.274   4.958   8.090  0.7734 -1.7498  0.1542
  123OSM   C12F13100   1.267   5.113   8.239  0.1846 -0.4857 -0.1771
  123OSM   H12F13101   1.193   5.186   8.201  0.5090  1.2302  2.3683
  123OSM   H12G13102   1.333   5.173   8.306 -3.5805  0.3812  2.9339
  123OSM   C13F13103   1.178   5.027   8.333 -0.0247 -0.3176  0.3645
  123OSM   H13F13104   1.093   4.984   8.277 -0.9625 -0.0857  1.6087
  123OSM   H13G13105   1.144   5.097   8.412  2.0333  2.4207 -1.0406
  123OSM   C14F13106   1.250   4.907   8.398  0.2047 -0.6571  0.1212
  123OSM   H14F13107   1.303   4.856   8.315 -0.8509 -0.5812 -0.6192
  123OSM   H14G13108   1.163   4.845   8.431 -1.8247  1.8373 -0.3455
  123OSM   C15F13109   1.340   4.935   8.514 -0.0693  0.4694  0.2481
  123OSM   H15F13110   1.276   4.989   8.587  0.6050  1.3616  0.1930
  123OSM   H15G13111   1.423   4.997   8.474 -0.4399  0.8897  0.1261
  123OSM   C16F13112   1.405   4.815   8.583 -0.2141 -0.8852  0.1974
  123OSM   H16F13113   1.484   4.860   8.647 -0.0788  0.0078 -0.5837
  123OSM   H16G13114   1.450   4.752   8.504 -1.0900 -1.8434  0.4523
  123OSM   C17F13115   1.312   4.728   8.679 -0.2475 -0.4247  0.4208
  123OSM   H17F13116   1.230   4.687   8.617 -1.3060 -0.5247  1.8405
  123OSM   H17G13117   1.281   4.787   8.768  1.0287  0.3225  0.3743
  123OSM   C18F13118   1.406   4.612   8.733  0.0036  0.1747 -0.8578
  123OSM   H18F13119   1.458   4.554   8.654 -0.7079  0.4075 -1.5086
  123OSM   H18G13120   1.341   4.535   8.781  0.9745  0.2592  0.5885
  123OSM   H18H13121   1.474   4.657   8.808 -0.2333 -1.7540  0.5371
  124OSM      N13122   2.349   0.838   6.126 -0.0532  0.1667 -0.1249
  124OSM    C1513123   2.355   0.788   5.987  0.1832 -0.1338 -0.1612
  124OSM   H15A13124   2.305   0.845   5.909  1.0854  0.1785 -0.5229
  124OSM   H15B13125   2.304   0.694   5.972 -2.1702  1.3620 -2.0232
  124OSM   H15C13126   2.454   0.797   5.945  0.2026  1.2104  0.1433
  124OSM    C1413127   2.422   0.737   6.215 -0.3968  0.3559  0.2941
  124OSM   H14A13128   2.530   0.731   6.208 -0.4241  0.6928 -0.5278
  124OSM   H14B13129   2.384   0.640   6.188  2.9123 -1.1101  0.7433
  124OSM   H14C13130   2.408   0.756   6.320  1.3262 -0.5799  0.6997
  124OSM    C1313131   2.426   0.959   6.140 -0.2174  0.0450 -0.4079
  124OSM   H13A13132   2.449   0.992   6.241  0.9882 -0.3750 -0.5381
  124OSM   H13B13133   2.373   1.042   6.097 -1.3526 -0.7381 -0.5363
  124OSM   H13C13134   2.525   0.942   6.100 -0.6294  0.7094 -1.7068
  124OSM    C1213135   2.202   0.845   6.175 -0.3754  0.4589 -0.1757
  124OSM   H12A13136   2.204   0.875   6.279  1.1190  0.7039 -0.2598
  124OSM   H12B13137   2.162   0.746   6.159 -1.8402  1.1984 -1.2092
  124OSM    C1113138   2.100   0.933   6.105 -0.8132  0.6742 -0.7453
  124OSM   H11A13139   2.010   0.937   6.170 -0.1000 -2.7867  0.5596
  124OSM   H11B13140   2.078   0.888   6.006  1.9199  2.0993 -2.0663
  124OSM      P13141   2.132   1.185   6.176  0.2890  0.0802 -0.1592
  124OSM    O1313142   2.247   1.266   6.153 -0.6191  0.0433  0.3724
  124OSM    O1413143   2.003   1.251   6.167 -0.8900  0.3986 -0.5844
  124OSM    O1113144   2.148   1.117   6.320 -0.1904 -0.4241  0.2140
  124OSM    O1213145   2.151   1.064   6.073 -0.4886  0.2200 -0.5357
  124OSM    C1S13146   2.135   1.195   6.437  0.6297  0.3466 -0.5078
  124OSM    H1S13147   2.028   1.204   6.467  0.7009  0.8938 -0.4099
  124OSM    H1T13148   2.169   1.300   6.428 -2.8208  1.7338  1.6640
  124OSM     NF13149   2.147   1.156   6.682 -0.4853 -0.0835  0.3038
  124OSM    HNF13150   2.221   1.172   6.746  1.5728 -0.2458 -1.9495
  124OSM    C2S13151   2.193   1.114   6.556  0.5182 -0.2065  0.8931
  124OSM    H2S13152   2.172   1.007   6.535 -1.2145  0.2329  0.3076
  124OSM    C3S13153   2.352   1.128   6.540  0.5365 -0.0689  0.2019
  124OSM    H3S13154   2.372   1.236   6.556 -1.0385  0.2425  0.1814
  124OSM     O313155   2.399   1.093   6.411 -0.3241  0.2497  0.1157
  124OSM    HO313156   2.315   1.100   6.364  0.3022  0.7097 -0.9628
  124OSM    C4S13157   2.431   1.041   6.648 -0.0789 -0.2473 -0.0239
  124OSM    H4S13158   2.415   0.932   6.642 -0.4812 -0.3469  2.3276
  124OSM    C5S13159   2.509   1.098   6.743 -0.9795 -0.1350  0.3460
  124OSM    H5S13160   2.518   1.208   6.743  0.5625 -0.2551  0.6876
  124OSM    C6S13161   2.572   1.036   6.863 -0.4217  0.1880 -0.0297
  124OSM    H6S13162   2.682   1.056   6.868 -0.0334 -1.8604  0.0246
  124OSM    H6T13163   2.552   0.927   6.875 -2.8470  0.3322 -2.3207
  124OSM    C7S13164   2.535   1.099   6.997 -0.3441  0.0392 -0.5616
  124OSM    H7S13165   2.428   1.079   7.022 -1.1623  3.7272 -0.8364
  124OSM    H7T13166   2.545   1.209   6.992  0.5141  0.1080  2.0619
  124OSM    C8S13167   2.613   1.041   7.127 -0.0686  0.0128 -0.4011
  124OSM    H8S13168   2.717   1.078   7.121  0.3653 -0.8988  1.2209
  124OSM    H8T13169   2.600   0.931   7.122 -1.1634 -0.0047  1.7929
  124OSM    C9S13170   2.556   1.091   7.262  0.4434  0.5658  0.2292
  124OSM    H9S13171   2.453   1.050   7.272  0.7040  0.0409  0.8553
  124OSM    H9T13172   2.546   1.201   7.267 -2.2361  0.4141 -0.7230
  124OSM   C10S13173   2.646   1.052   7.379  0.1259  0.5484 -0.8601
  124OSM   H10S13174   2.747   1.095   7.360  0.4276  0.4398  0.4661
  124OSM   H10T13175   2.657   0.943   7.397 -2.0321  0.4888  0.3718
  124OSM   C11S13176   2.579   1.108   7.508  0.5496  0.1695  0.1144
  124OSM   H11S13177   2.474   1.072   7.505 -0.0984  1.9765  0.6596
  124OSM   H11T13178   2.580   1.219   7.500 -2.9258  0.1741 -1.1525
  124OSM   C12S13179   2.642   1.069   7.641 -0.6053  0.0679 -0.0324
  124OSM   H12S13180   2.736   1.127   7.654 -0.8032  0.4633 -0.3435
  124OSM   H12T13181   2.678   0.965   7.633  2.5177  1.0261  0.8616
  124OSM   C13S13182   2.561   1.089   7.773 -0.2262 -0.1127 -0.1309
  124OSM   H13S13183   2.468   1.030   7.762  0.6157 -1.7579  1.5412
  124OSM   H13T13184   2.544   1.198   7.787  1.8769 -0.1254  3.0283
  124OSM   C14S13185   2.627   1.045   7.904 -0.3353  0.0930  1.2700
  124OSM   H14S13186   2.734   1.071   7.918  1.0871 -3.3900 -2.1735
  124OSM   H14T13187   2.629   0.934   7.905  0.8317  0.0758 -0.6924
  124OSM   C15S13188   2.560   1.096   8.032 -0.3446  0.4207 -0.0542
  124OSM   H15S13189   2.449   1.102   8.024 -0.4099 -1.4188 -0.6897
  124OSM   H15T13190   2.581   1.204   8.050 -0.9396  0.8446 -1.8328
  124OSM   C16S13191   2.601   1.028   8.166  0.2690  0.2114  0.4403
  124OSM   H16S13192   2.712   1.020   8.174  0.2353 -0.1757  0.5207
  124OSM   H16T13193   2.551   0.929   8.174  0.0130  0.2622 -0.5162
  124OSM   C17S13194   2.562   1.117   8.286  0.5110  0.1644  0.0461
  124OSM   H17S13195   2.452   1.126   8.304  0.3207 -0.3699 -0.8275
  124OSM   H17T13196   2.590   1.224   8.277 -0.0768  0.2426 -0.9303
  124OSM   C18S13197   2.627   1.066   8.426 -0.2661 -0.4473 -0.4081
  124OSM   H18S13198   2.597   0.959   8.430  0.3258 -0.7116 -2.3889
  124OSM   H18T13199   2.582   1.126   8.508  2.1258  2.8301 -1.3776
  124OSM   H18U13200   2.738   1.070   8.425 -0.2535 -0.6926  0.0349
  124OSM    C1F13201   2.028   1.127   6.733  0.1734  0.4660 -0.1077
  124OSM     OF13202   1.945   1.064   6.669  0.3791 -0.3145 -0.0131
  124OSM    C2F13203   1.997   1.168   6.879  0.6252  0.6607  0.8115
  124OSM    H2F13204   1.949   1.087   6.937  0.6379 -0.1127 -0.2646
  124OSM    H2G13205   1.930   1.255   6.862  0.3028  0.4084  0.8068
  124OSM    C3F13206   2.121   1.218   6.960  0.1637 -0.1016  0.0055
  124OSM    H3F13207   2.185   1.290   6.904  0.5990  0.1383  0.8079
  124OSM    H3G13208   2.191   1.136   6.986  0.2117 -0.1008 -0.1177
  124OSM    C4F13209   2.081   1.279   7.094  0.2280 -0.0654 -0.1768
  124OSM    H4F13210   2.028   1.200   7.150  0.1270  0.3682  0.3430
  124OSM    H4G13211   2.003   1.357   7.080  0.6470  0.5940  1.1397
  124OSM    C5F13212   2.199   1.334   7.164  0.3665 -0.1004  0.2612
  124OSM    H5F13213   2.238   1.422   7.110  0.2013  0.1729  0.5902
  124OSM    H5G13214   2.280   1.260   7.180 -0.4264 -1.1603 -0.4972
  124OSM    C6F13215   2.158   1.368   7.308 -0.4432 -0.7540  0.2651
  124OSM    H6F13216   2.096   1.288   7.354 -1.2357 -0.5052 -0.3743
  124OSM    H6G13217   2.103   1.464   7.313  1.8115  0.5336  1.7182
  124OSM    C7F13218   2.273   1.386   7.403  0.0791 -1.3768  0.1225
  124OSM    H7F13219   2.325   1.289   7.422  0.3879 -1.0306  1.0604
  124OSM    H7G13220   2.234   1.421   7.501 -0.9025 -2.1792  0.0259
  124OSM    C8F13221   2.383   1.495   7.367 -0.4118 -0.7413 -0.0308
  124OSM    H8F13222   2.342   1.596   7.349  0.6261 -0.4414 -0.7593
  124OSM    H8G13223   2.415   1.471   7.263 -1.8680  0.7506 -0.8470
  124OSM    C9F13224   2.516   1.501   7.427 -0.1691  0.3229  0.4086
  124OSM    H9F13225   2.583   1.430   7.376  0.9633  1.3371  0.4415
  124OSM   C10F13226   2.559   1.580   7.527  0.7214  0.3284  0.0310
  124OSM   H10F13227   2.667   1.580   7.546  0.2841  3.2501  2.8128
  124OSM   C11F13228   2.488   1.687   7.609  0.2855  0.2245  0.7329
  124OSM   H11F13229   2.386   1.710   7.572  0.1412 -0.7070  0.5327
  124OSM   H11G13230   2.549   1.778   7.591 -0.6795  0.3425 -2.0508
  124OSM   C12F13231   2.483   1.672   7.761  0.3116  0.4216  0.5111
  124OSM   H12F13232   2.442   1.762   7.811 -1.0825  0.5891 -0.8972
  124OSM   H12G13233   2.581   1.638   7.800  1.6495  0.3181 -2.7972
  124OSM   C13F13234   2.398   1.544   7.811 -0.1543  0.0685 -0.2459
  124OSM   H13F13235   2.447   1.454   7.768  0.8923 -0.4501  1.9546
  124OSM   H13G13236   2.300   1.567   7.764  0.6497 -0.1839 -2.1019
  124OSM   C14F13237   2.379   1.525   7.957 -0.7878  0.0895 -0.2756
  124OSM   H14F13238   2.326   1.616   7.994  0.4682  0.0948  1.6322
  124OSM   H14G13239   2.476   1.530   8.011 -0.2763 -1.8942 -1.0046
  124OSM   C15F13240   2.311   1.392   7.993  0.7012  0.2388  0.5197
  124OSM   H15F13241   2.342   1.370   8.097 -0.1214 -0.6839  0.5780
  124OSM   H15G13242   2.356   1.308   7.936  2.5625  1.6709 -0.1565
  124OSM   C16F13243   2.160   1.382   7.977  0.3237 -0.5675  0.2602
  124OSM   H16F13244   2.101   1.471   8.004 -0.2432 -0.9888  0.4196
  124OSM   H16G13245   2.123   1.303   8.046 -0.1731 -0.7834 -0.2534
  124OSM   C17F13246   2.117   1.330   7.835  0.1578  0.2056 -0.3365
  124OSM   H17F13247   2.152   1.400   7.755  0.1944  0.1242 -0.3919
  124OSM   H17G13248   2.007   1.338   7.823 -0.1315 -0.6041  1.7104
  124OSM   C18F13249   2.153   1.183   7.803  0.0700  0.5925 -0.7271
  124OSM   H18F13250   2.106   1.164   7.705 -0.5110  0.2345 -0.3800
  124OSM   H18G13251   2.109   1.115   7.879  2.5738  1.1124  1.2652
  124OSM   H18H13252   2.262   1.159   7.801 -0.4259 -1.7921 -0.5012
  125OSM      N13253   4.960   5.491   5.841  0.2746 -0.0395 -0.3803
  125OSM    C1513254   4.916   5.526   5.706 -0.5769  0.2758  0.2572
  125OSM   H15A13255   4.928   5.446   5.635 -1.7795  0.5799 -0.3031
  125OSM   H15B13256   4.984   5.601   5.667  1.3729 -1.9094 -0.6708
  125OSM   H15C13257   4.812   5.553   5.697 -0.0664  2.0044 -0.7404
  125OSM    C1413258   4.866   5.389   5.893 -0.5118  0.4780  0.3581
  125OSM   H14A13259   4.881   5.296   5.840 -1.5158  1.0677 -0.9711
  125OSM   H14B13260   4.763   5.417   5.877 -0.5464  0.8107  1.1486
  125OSM   H14C13261   4.863   5.371   6.000 -0.4878 -3.4505 -0.2251
  125OSM    C1313262   5.099   5.437   5.841 -0.6266 -1.0246 -0.6341
  125OSM   H13A13263   5.129   5.415   5.942 -0.4888 -0.1049 -0.4645
  125OSM   H13B13264   5.167   5.515   5.811 -0.5577 -0.0159  2.0257
  125OSM   H13C13265   5.124   5.355   5.776  3.5033 -0.8604  0.6209
  125OSM    C1213266   4.961   5.608   5.936 -0.1076  0.4461  0.8514
  125OSM   H12A13267   5.058   5.654   5.928  0.2216 -0.5201 -0.8131
  125OSM   H12B13268   4.969   5.565   6.035  1.4160 -1.3451 -0.0318
  125OSM    C1113269   4.842   5.706   5.929  0.4144  0.0605 -0.5608
  125OSM   H11A13270   4.811   5.746   5.830  0.0849  1.3915  0.0632
  125OSM   H11B13271   4.868   5.796   5.989 -3.5840  2.5138 -2.2530
  125OSM      P13272   4.616   5.721   6.052 -0.1308  0.5778  0.0056
  125OSM    O1313273   4.568   5.812   5.947  0.7410 -0.2539  0.0066
  125OSM    O1413274   4.515   5.622   6.104  0.0420 -0.7227  0.3260
  125OSM    O1113275   4.668   5.810   6.178  0.3332  0.0671  0.9097
  125OSM    O1213276   4.729   5.637   5.993  0.3429  0.2412 -0.3588
  125OSM    C1S13277   4.652   5.785   6.315 -0.7106  0.1225  0.1045
  125OSM    H1S13278   4.700   5.690   6.348 -2.2189 -1.3143 -1.7003
  125OSM    H1T13279   4.544   5.784   6.338 -0.8745 -1.9225 -0.6251
  125OSM     NF13280   4.717   5.884   6.537  0.6026  0.2255  0.6795
  125OSM    HNF13281   4.636   5.919   6.582  0.2086 -0.2150  0.3097
  125OSM    C2S13282   4.723   5.904   6.397  0.3407  0.3560  0.0968
  125OSM    H2S13283   4.831   5.909   6.372  0.6752 -1.9578  0.9275
  125OSM    C3S13284   4.665   6.035   6.358 -0.3036 -0.3384 -0.3092
  125OSM    H3S13285   4.559   6.037   6.391 -0.8909  0.1353 -2.1949
  125OSM     O313286   4.654   6.063   6.215  0.3199  0.8102  0.5684
  125OSM    HO313287   4.664   5.973   6.183 -2.1963  0.0671  1.6927
  125OSM    C4S13288   4.722   6.151   6.433  0.8659  0.0770 -0.4340
  125OSM    H4S13289   4.679   6.171   6.532  0.9603 -0.8212 -0.2133
  125OSM    C5S13290   4.831   6.217   6.397 -0.0490 -0.9593  0.4366
  125OSM    H5S13291   4.885   6.183   6.308 -3.2026 -1.2006 -1.4637
  125OSM    C6S13292   4.893   6.334   6.464 -0.8627 -0.1086 -0.4277
  125OSM    H6S13293   4.849   6.426   6.421 -0.2859 -0.4403 -1.7268
  125OSM    H6T13294   5.002   6.324   6.445 -0.7958 -0.9497  0.3439
  125OSM    C7S13295   4.875   6.333   6.616 -1.1834 -0.2458 -0.0819
  125OSM    H7S13296   4.912   6.237   6.660 -2.9255 -1.1357 -0.5184
  125OSM    H7T13297   4.767   6.336   6.640 -1.4573 -0.9365 -1.2345
  125OSM    C8S13298   4.940   6.454   6.691 -0.0941 -0.4692 -0.0478
  125OSM    H8S13299   4.903   6.543   6.635 -1.2084 -0.3291  0.8854
  125OSM    H8T13300   5.050   6.453   6.684 -0.1532  2.4208 -2.1687
  125OSM    C9S13301   4.890   6.455   6.842 -0.3373 -0.4459  0.3021
  125OSM    H9S13302   4.944   6.364   6.878 -0.8969 -1.4682 -1.3552
  125OSM    H9T13303   4.781   6.440   6.858 -0.8254 -0.4399 -2.7398
  125OSM   C10S13304   4.927   6.585   6.907 -0.3216  0.3692 -0.6458
  125OSM   H10S13305   4.876   6.667   6.852  0.8480 -0.1660 -2.5971
  125OSM   H10T13306   5.038   6.598   6.908 -0.0256 -1.8805 -0.6407
  125OSM   C11S13307   4.874   6.584   7.053 -0.1750 -0.1964  0.3337
  125OSM   H11S13308   4.764   6.591   7.042  0.1434  1.2930 -2.2328
  125OSM   H11T13309   4.904   6.683   7.095  1.7825 -1.1031  1.1390
  125OSM   C12S13310   4.931   6.470   7.142  0.0157  0.5185 -0.2034
  125OSM   H12S13311   5.041   6.478   7.143 -0.0472  1.6793 -1.6274
  125OSM   H12T13312   4.902   6.365   7.117  1.0001  0.3302 -0.5709
  125OSM   C13S13313   4.885   6.496   7.282  0.0604  0.0809  0.4232
  125OSM   H13S13314   4.774   6.493   7.283  0.0519  0.5597  1.3825
  125OSM   H13T13315   4.916   6.596   7.319  1.1910  0.4987 -1.5850
  125OSM   C14S13316   4.934   6.388   7.378 -0.8778 -0.5037 -0.0539
  125OSM   H14S13317   5.042   6.409   7.391 -1.3938  2.3219 -0.0885
  125OSM   H14T13318   4.916   6.288   7.333  0.9527 -0.3271 -1.2039
  125OSM   C15S13319   4.863   6.391   7.508 -0.9097 -0.7945 -0.3401
  125OSM   H15S13320   4.757   6.359   7.502 -0.3203 -3.9942  3.8636
  125OSM   H15T13321   4.871   6.496   7.546  0.1033 -1.2982  0.8805
  125OSM   C16S13322   4.933   6.298   7.612 -0.0705  0.0548  0.1201
  125OSM   H16S13323   5.042   6.317   7.621 -0.2019  0.4120  0.9455
  125OSM   H16T13324   4.915   6.195   7.573  0.5661  0.5318 -1.5133
  125OSM   C17S13325   4.872   6.307   7.750  0.5968  0.3371 -0.0241
  125OSM   H17S13326   4.763   6.319   7.734  0.5755 -0.6627 -0.6466
  125OSM   H17T13327   4.902   6.400   7.802 -2.2517  0.2456  1.9092
  125OSM   C18S13328   4.898   6.195   7.850 -0.0882 -0.0596 -0.5130
  125OSM   H18S13329   4.862   6.094   7.820 -1.4607 -0.4099  2.2151
  125OSM   H18T13330   4.842   6.226   7.940 -1.3408  0.3502 -1.4216
  125OSM   H18U13331   5.003   6.202   7.885  0.4392 -1.9322 -1.6212
  125OSM    C1F13332   4.799   5.794   6.596 -0.4894  0.5035  0.1778
  125OSM     OF13333   4.905   5.759   6.545  0.6323 -0.3047 -0.3881
  125OSM    C2F13334   4.745   5.728   6.721 -0.4200 -0.8269 -0.4752
  125OSM    H2F13335   4.638   5.754   6.734  0.3832  2.2738  0.2846
  125OSM    H2G13336   4.803   5.786   6.795 -0.8402  1.6702 -2.0244
  125OSM    C3F13337   4.765   5.572   6.725  0.2467  0.2182 -0.1979
  125OSM    H3F13338   4.872   5.545   6.715 -0.0469 -0.1726 -2.8796
  125OSM    H3G13339   4.713   5.538   6.632  2.0918  0.0580 -1.1933
  125OSM    C4F13340   4.707   5.502   6.850  0.3322  0.0218  0.0721
  125OSM    H4F13341   4.709   5.392   6.841 -2.7346 -0.1307  0.7720
  125OSM    H4G13342   4.603   5.536   6.866  0.0584 -0.4097 -0.8087
  125OSM    C5F13343   4.787   5.527   6.990  0.5492  0.4701 -0.7602
  125OSM    H5F13344   4.793   5.637   7.006 -2.2757  0.5076  0.3549
  125OSM    H5G13345   4.890   5.490   6.975  0.9458  0.8425  0.9498
  125OSM    C6F13346   4.722   5.451   7.108 -0.1209 -0.8327  0.1603
  125OSM    H6F13347   4.713   5.343   7.083  0.2928 -1.2461  1.7456
  125OSM    H6G13348   4.617   5.485   7.122 -0.7973 -1.4477 -3.0551
  125OSM    C7F13349   4.808   5.460   7.240 -0.3117 -0.7035 -0.1585
  125OSM    H7F13350   4.852   5.562   7.247  0.3714 -0.7423 -3.1048
  125OSM    H7G13351   4.891   5.387   7.232  0.5113  0.3301 -1.0824
  125OSM    C8F13352   4.738   5.448   7.373  0.0421 -0.1851 -0.1985
  125OSM    H8F13353   4.650   5.517   7.379  1.9985  2.1998  3.1218
  125OSM    H8G13354   4.814   5.490   7.442  2.4476  1.5959 -3.7903
  125OSM    C9F13355   4.718   5.304   7.402 -1.2041  0.8705 -0.0383
  125OSM    H9F13356   4.648   5.254   7.333 -0.9669  0.8658 -0.2761
  125OSM   C10F13357   4.755   5.239   7.511  0.1415 -0.0464  0.1596
  125OSM   H10F13358   4.743   5.130   7.503 -0.8428 -0.1216  2.3489
  125OSM   C11F13359   4.832   5.292   7.629  0.2290  0.4428  0.3754
  125OSM   H11F13360   4.800   5.255   7.729  1.0277 -0.7244  0.2103
  125OSM   H11G13361   4.818   5.402   7.632 -0.5744  0.4017 -1.3405
  125OSM   C12F13362   4.987   5.267   7.626  0.3565  0.0416  0.0593
  125OSM   H12F13363   5.038   5.340   7.560  0.6879 -1.8822 -1.8789
  125OSM   H12G13364   5.012   5.173   7.572 -1.4698 -0.8482  0.7109
  125OSM   C13F13365   5.046   5.244   7.769  0.7673 -0.0797  0.5329
  125OSM   H13F13366   4.992   5.167   7.828  0.8020 -0.1928  0.4181
  125OSM   H13G13367   5.066   5.339   7.823  0.9573 -0.9732  2.0642
  125OSM   C14F13368   5.180   5.160   7.755  0.5022  0.6208 -0.3540
  125OSM   H14F13369   5.240   5.205   7.673  1.8293 -0.6976 -0.1325
  125OSM   H14G13370   5.171   5.054   7.724  2.8810  0.3848 -0.3363
  125OSM   C15F13371   5.260   5.171   7.886 -1.4290  0.1100  0.0640
  125OSM   H15F13372   5.273   5.281   7.896  0.4488  0.0732 -1.7247
  125OSM   H15G13373   5.359   5.125   7.867 -2.1751 -0.3604 -2.8502
  125OSM   C16F13374   5.209   5.102   8.015  0.5509  0.6797 -0.4360
  125OSM   H16F13375   5.195   4.992   8.011 -0.1579  0.7487 -0.1462
  125OSM   H16G13376   5.110   5.146   8.040  0.1141 -0.4193 -0.2290
  125OSM   C17F13377   5.306   5.130   8.127 -0.2534 -0.1012  0.3123
  125OSM   H17F13378   5.332   5.238   8.131  0.0646 -0.0779 -2.0505
  125OSM   H17G13379   5.391   5.066   8.095 -0.8297  0.0469 -1.5438
  125OSM   C18F13380   5.264   5.085   8.263  0.1892 -0.7874 -0.1568
  125OSM   H18F13381   5.352   5.084   8.331  0.0587 -0.6479  0.0152
  125OSM   H18G13382   5.217   4.984   8.265  1.1719 -1.2843 -1.7610
  125OSM   H18H13383   5.184   5.155   8.297  1.3765  1.2616 -1.5377
  126OSM      N13384   1.993   4.040   6.263 -0.4232 -0.0505  0.2866
  126OSM    C1513385   1.915   4.082   6.144  0.7976  0.5687 -1.0953
  126OSM   H15A13386   1.842   4.006   6.122 -0.6700  2.1930 -1.9290
  126OSM   H15B13387   1.976   4.098   6.056 -3.4721  1.1265 -4.1569
  126OSM   H15C13388   1.874   4.177   6.174 -0.5660 -0.5419  0.6678
  126OSM    C1413389   2.036   3.900   6.255  0.6045 -0.4050 -0.1952
  126OSM   H14A13390   2.101   3.881   6.339  2.5150 -0.2365 -1.6042
  126OSM   H14B13391   2.087   3.894   6.160  0.6511 -0.5268 -0.1628
  126OSM   H14C13392   1.961   3.822   6.249  0.7003 -0.5111 -0.0065
  126OSM    C1313393   2.120   4.129   6.280  0.0100  0.1432  0.3176
  126OSM   H13A13394   2.164   4.104   6.376  1.4138  0.9230 -0.1118
  126OSM   H13B13395   2.085   4.231   6.274  1.2188  0.5669  0.3509
  126OSM   H13C13396   2.193   4.098   6.207  0.1152 -0.4698  0.6764
  126OSM    C1213397   1.903   4.057   6.380  0.2584  0.6611  0.1065
  126OSM   H12A13398   1.816   3.999   6.355  1.5553  0.5241 -4.5548
  126OSM   H12B13399   1.867   4.159   6.372 -0.1278  0.5819  0.8252
  126OSM    C1113400   1.961   4.040   6.520 -0.3303 -0.7410 -0.6732
  126OSM   H11A13401   1.892   4.059   6.605  0.2441 -0.8786 -0.1716
  126OSM   H11B13402   2.038   4.121   6.514 -0.7148 -0.4612 -2.0792
  126OSM      P13403   2.145   3.908   6.638  0.0659  0.3478  0.0480
  126OSM    O1313404   2.180   3.767   6.665 -0.1602  0.2166 -0.6708
  126OSM    O1413405   2.250   3.993   6.575 -0.4647 -0.5135  0.5443
  126OSM    O1113406   2.090   3.983   6.767 -0.7570 -0.3345 -0.4688
  126OSM    O1213407   2.011   3.912   6.544  0.2281  0.3129 -0.0069
  126OSM    C1S13408   1.983   3.939   6.849  0.1626  0.6187 -0.4777
  126OSM    H1S13409   2.023   3.844   6.890 -0.4290  0.7646  0.4411
  126OSM    H1T13410   1.892   3.908   6.795  0.5496 -2.1994  0.3968
  126OSM     NF13411   1.857   4.012   7.052  0.0778  0.0752 -0.5982
  126OSM    HNF13412   1.763   4.035   7.029 -0.0054 -0.6715 -1.0035
  126OSM    C2S13413   1.957   4.050   6.954  0.1348 -0.8438 -0.3666
  126OSM    H2S13414   2.052   4.060   7.010  0.7371 -1.3733 -1.2981
  126OSM    C3S13415   1.912   4.178   6.885  0.3169  0.1696 -0.2319
  126OSM    H3S13416   1.811   4.164   6.839 -0.6715  2.9950  0.9503
  126OSM     O313417   1.989   4.222   6.775 -0.1154  0.6919 -0.7391
  126OSM    HO313418   2.054   4.152   6.773 -0.8372 -0.2046  3.1078
  126OSM    C4S13419   1.893   4.296   6.980  1.1553  0.4611  0.7404
  126OSM    H4S13420   1.791   4.334   6.997 -0.2159 -3.3221  1.4106
  126OSM    C5S13421   1.993   4.357   7.047 -0.8765 -0.0435 -0.0243
  126OSM    H5S13422   2.097   4.324   7.033 -1.0884 -0.8028  0.1824
  126OSM    C6S13423   1.974   4.471   7.138  0.5209 -0.5567  0.8681
  126OSM    H6S13424   1.868   4.505   7.142  0.5885 -0.4533  1.8686
  126OSM    H6T13425   2.035   4.561   7.115 -0.1404 -0.0341  1.1474
  126OSM    C7S13426   2.008   4.435   7.283 -0.4710 -0.2712  0.3032
  126OSM    H7S13427   2.007   4.528   7.344  1.7602 -1.1255  1.7259
  126OSM    H7T13428   2.111   4.395   7.296 -0.3498  0.0609  0.3586
  126OSM    C8S13429   1.909   4.327   7.333 -0.0795 -0.5793  0.5196
  126OSM    H8S13430   1.941   4.230   7.287  1.1232  0.1616 -0.2319
  126OSM    H8T13431   1.807   4.353   7.296  1.0420 -0.2222 -2.5339
  126OSM    C9S13432   1.906   4.316   7.488 -0.4885  0.1179 -0.2002
  126OSM    H9S13433   1.875   4.417   7.520 -2.4463 -1.0224  1.6093
  126OSM    H9T13434   2.008   4.308   7.532 -1.1283  2.4604  1.8072
  126OSM   C10S13435   1.808   4.214   7.543 -0.2059 -0.2165  0.1249
  126OSM   H10S13436   1.856   4.114   7.542  1.9499  0.7558  0.8422
  126OSM   H10T13437   1.712   4.220   7.489 -0.6060  1.4420  0.9744
  126OSM   C11S13438   1.768   4.253   7.683  1.1153  0.2490  0.5825
  126OSM   H11S13439   1.724   4.355   7.688  0.2643  0.1030 -2.9101
  126OSM   H11T13440   1.861   4.250   7.743  0.2034  1.7164  2.1353
  126OSM   C12S13441   1.668   4.162   7.755  0.3637 -0.0310  0.0861
  126OSM   H12S13442   1.695   4.055   7.752  1.1764  0.1662  0.2090
  126OSM   H12T13443   1.573   4.185   7.702  0.1484 -1.1725 -0.0386
  126OSM   C13S13444   1.655   4.194   7.901  0.0981 -0.3701 -0.4986
  126OSM   H13S13445   1.671   4.303   7.912 -1.1716 -0.2566  0.4560
  126OSM   H13T13446   1.736   4.142   7.956  0.8421 -0.6593 -1.8503
  126OSM   C14S13447   1.509   4.175   7.948 -0.5915  0.2079 -0.0079
  126OSM   H14S13448   1.472   4.073   7.924  0.6665 -1.0271  3.0315
  126OSM   H14T13449   1.443   4.248   7.896 -1.6353  0.7975  2.0661
  126OSM   C15S13450   1.490   4.203   8.098 -0.4235  0.4083  1.0747
  126OSM   H15S13451   1.477   4.312   8.112  2.1012  1.0403 -1.2075
  126OSM   H15T13452   1.582   4.161   8.145 -1.2380 -0.3306  2.0219
  126OSM   C16S13453   1.376   4.136   8.175 -0.1817  0.2886  0.3594
  126OSM   H16S13454   1.382   4.027   8.155 -1.2440  0.1958  0.5251
  126OSM   H16T13455   1.277   4.167   8.135  0.8389 -0.9415 -3.3292
  126OSM   C17S13456   1.385   4.171   8.319 -0.3302  0.0485  0.3911
  126OSM   H17S13457   1.411   4.276   8.345 -1.6890  0.3622  0.5610
  126OSM   H17T13458   1.458   4.108   8.374  1.7209  1.5491 -0.5379
  126OSM   C18S13459   1.254   4.146   8.389  0.0125 -0.2195  0.0738
  126OSM   H18S13460   1.183   4.225   8.358  1.5114  1.9215  1.9150
  126OSM   H18T13461   1.261   4.158   8.499 -1.0691  0.6138  0.0620
  126OSM   H18U13462   1.215   4.043   8.372  1.5022 -1.2342  2.4727
  126OSM    C1F13463   1.888   3.941   7.160 -0.1478 -0.1867  0.3125
  126OSM     OF13464   2.003   3.908   7.185 -0.2665 -0.4749  0.1369
  126OSM    C2F13465   1.774   3.900   7.248 -0.2842  0.0308  0.3322
  126OSM    H2F13466   1.693   3.865   7.181  0.3370 -2.4215  0.8231
  126OSM    H2G13467   1.737   3.992   7.298 -0.5478  0.2265 -0.2185
  126OSM    C3F13468   1.827   3.811   7.363  0.1230 -0.4212 -0.5083
  126OSM    H3F13469   1.913   3.855   7.418 -0.8521  2.4597 -1.1724
  126OSM    H3G13470   1.864   3.718   7.316  2.6533  0.2535  0.0893
  126OSM    C4F13471   1.709   3.778   7.464 -0.2379  0.2222  0.6706
  126OSM    H4F13472   1.623   3.745   7.402  0.8752 -2.7523  0.6068
  126OSM    H4G13473   1.680   3.869   7.519 -1.3380 -0.2478  0.8893
  126OSM    C5F13474   1.749   3.664   7.561 -0.0116  0.0299  0.0038
  126OSM    H5F13475   1.801   3.581   7.509  1.7458  0.5333  0.9099
  126OSM    H5G13476   1.648   3.625   7.587 -0.1706  0.2805 -0.2422
  126OSM    C6F13477   1.833   3.705   7.681 -0.8585 -0.7985  0.3709
  126OSM    H6F13478   1.819   3.814   7.702 -0.8769 -0.6367 -0.4421
  126OSM    H6G13479   1.940   3.707   7.651 -1.0202  0.2809 -0.1673
  126OSM    C7F13480   1.817   3.623   7.809 -0.2674 -0.2821  0.3358
  126OSM    H7F13481   1.831   3.514   7.795  0.3318 -0.2895  0.9728
  126OSM    H7G13482   1.714   3.638   7.845 -0.5488 -3.9269  1.2332
  126OSM    C8F13483   1.896   3.684   7.929 -0.4715  0.3093  0.1434
  126OSM    H8F13484   1.870   3.792   7.934 -2.1054  0.0168 -1.5337
  126OSM    H8G13485   2.005   3.677   7.911 -0.1895  1.0729  1.4838
  126OSM    C9F13486   1.856   3.615   8.060  1.1068 -0.0737 -0.0176
  126OSM    H9F13487   1.871   3.506   8.057 -0.5637 -0.3195 -0.1418
  126OSM   C10F13488   1.802   3.666   8.180 -0.5448  0.5317 -0.0767
  126OSM   H10F13489   1.787   3.600   8.266 -0.5826  0.9108  0.2079
  126OSM   C11F13490   1.758   3.810   8.206 -0.3489 -0.3285  0.8162
  126OSM   H11F13491   1.663   3.804   8.264 -0.8677  0.4868  0.0654
  126OSM   H11G13492   1.731   3.864   8.113 -1.5249 -0.3776  1.1222
  126OSM   C12F13493   1.864   3.896   8.279  0.7151 -0.0853  0.0604
  126OSM   H12F13494   1.826   4.000   8.289 -0.4767 -0.5352  0.3251
  126OSM   H12G13495   1.967   3.893   8.239  1.1691  0.6223  1.1651
  126OSM   C13F13496   1.881   3.844   8.424  0.4975 -0.7931  0.3550
  126OSM   H13F13497   1.915   3.738   8.418 -0.4380 -1.0774  0.0373
  126OSM   H13G13498   1.783   3.842   8.475  1.0028 -2.1029  1.2991
  126OSM   C14F13499   1.977   3.941   8.494  0.6991 -0.0574  0.4072
  126OSM   H14F13500   1.936   4.042   8.513  0.1312 -0.4303  1.1949
  126OSM   H14G13501   2.064   3.960   8.427 -0.4870 -0.8618 -1.3772
  126OSM   C15F13502   2.020   3.894   8.637 -0.1809 -0.5504  0.1516
  126OSM   H15F13503   2.069   3.796   8.623 -0.5182 -0.8978  1.3270
  126OSM   H15G13504   1.926   3.890   8.697 -1.3650  0.0991 -1.6213
  126OSM   C16F13505   2.114   3.992   8.701 -0.3704 -0.0960 -1.1001
  126OSM   H16F13506   2.061   4.090   8.709 -0.5168 -0.2466 -0.1005
  126OSM   H16G13507   2.205   4.007   8.640  0.4752 -0.7190 -0.0119
  126OSM   C17F13508   2.187   3.934   8.826 -0.2137  0.0926 -0.2603
  126OSM   H17F13509   2.254   3.850   8.799  2.5872  2.2156 -0.2006
  126OSM   H17G13510   2.108   3.885   8.886  0.2703 -0.0204  0.2858
  126OSM   C18F13511   2.282   4.040   8.896  0.5649  0.5485 -0.7822
  126OSM   H18F13512   2.222   4.128   8.925  1.1356  0.1751  1.6421
  126OSM   H18G13513   2.352   4.075   8.817  1.8198  2.6575  1.2311
  126OSM   H18H13514   2.333   3.996   8.984 -1.7756  0.3805  0.5220
  127OSM      N13515   0.679   4.502   6.395  0.0415  0.4704 -0.1336
  127OSM    C1513516   0.794   4.406   6.352  0.0174  0.2955  0.1978
  127OSM   H15A13517   0.856   4.384   6.438 -2.1778 -0.8162  1.5283
  127OSM   H15B13518   0.855   4.454   6.276  0.9134  1.3707  1.5750
  127OSM   H15C13519   0.759   4.307   6.327  0.4689 -0.0361  0.8867
  127OSM    C1413520   0.589   4.539   6.273 -0.3747 -0.8538 -0.5024
  127OSM   H14A13521   0.521   4.620   6.297 -0.5329 -0.1506 -3.1864
  127OSM   H14B13522   0.520   4.456   6.259 -2.4794  0.0515  3.6335
  127OSM   H14C13523   0.652   4.552   6.187  1.6154  1.4158  1.2356
  127OSM    C1313524   0.603   4.430   6.503 -0.2103  0.7448  0.0189
  127OSM   H13A13525   0.496   4.445   6.499 -0.3712 -0.3688  0.0431
  127OSM   H13B13526   0.647   4.432   6.601 -1.4753  1.3517  0.5869
  127OSM   H13C13527   0.628   4.326   6.492  1.1521  0.8433  2.0899
  127OSM    C1213528   0.741   4.626   6.453  0.0350  0.5144 -0.2044
  127OSM   H12A13529   0.795   4.683   6.380 -0.5077  0.5312 -0.5983
  127OSM   H12B13530   0.802   4.600   6.538 -1.4684  0.3325  0.8596
  127OSM    C1113531   0.646   4.725   6.527 -0.2429  0.2543 -0.5086
  127OSM   H11A13532   0.704   4.790   6.597  1.4071  0.8598 -2.3972
  127OSM   H11B13533   0.575   4.669   6.591  0.3871  0.6981  0.5942
  127OSM      P13534   0.649   4.926   6.361  0.4556  0.2173 -0.3863
  127OSM    O1313535   0.789   4.893   6.322 -0.0723 -0.2464  0.0524
  127OSM    O1413536   0.564   4.976   6.256 -0.3363 -0.5737  0.2595
  127OSM    O1113537   0.650   5.027   6.480 -0.6498  0.7739 -0.0962
  127OSM    O1213538   0.577   4.803   6.429 -0.1851  0.0083  0.0174
  127OSM    C1S13539   0.548   5.030   6.585  0.2492  0.2565  0.2422
  127OSM    H1S13540   0.507   4.932   6.616  1.1516 -0.1298  0.2413
  127OSM    H1T13541   0.475   5.111   6.567  0.2402  0.8350  2.6345
  127OSM     NF13542   0.530   5.086   6.826  0.0197  0.0772 -1.1404
  127OSM    HNF13543   0.513   5.178   6.861  1.3690  0.4349 -1.3936
  127OSM    C2S13544   0.625   5.070   6.714 -0.0515  0.0099  0.0150
  127OSM    H2S13545   0.686   4.979   6.732 -2.0056 -0.9000  2.3364
  127OSM    C3S13546   0.714   5.196   6.684  0.2107 -0.0722 -1.4829
  127OSM    H3S13547   0.656   5.271   6.626 -0.9122 -1.1419 -1.7526
  127OSM     O313548   0.835   5.172   6.609  0.5918 -0.2923 -0.1160
  127OSM    HO313549   0.818   5.098   6.549  1.3744  0.4442 -1.2717
  127OSM    C4S13550   0.764   5.261   6.812  0.3978 -0.5629  0.5166
  127OSM    H4S13551   0.688   5.323   6.861  1.8059  0.0662  1.9436
  127OSM    C5S13552   0.880   5.249   6.875  0.0241  0.5105 -0.3579
  127OSM    H5S13553   0.967   5.210   6.819  0.0880  1.0134 -0.6102
  127OSM    C6S13554   0.927   5.323   6.995  0.3461  0.5163  0.0985
  127OSM    H6S13555   0.932   5.432   6.971 -0.5348  0.8005  1.1687
  127OSM    H6T13556   1.027   5.293   7.033 -0.0202 -1.0154 -0.1376
  127OSM    C7S13557   0.832   5.318   7.117  0.3081 -0.0761  0.2500
  127OSM    H7S13558   0.809   5.219   7.161 -0.6889  0.2704  0.5356
  127OSM    H7T13559   0.735   5.362   7.085  0.1817  0.8363  1.8090
  127OSM    C8S13560   0.876   5.412   7.239  0.7933  0.7151  0.0131
  127OSM    H8S13561   0.888   5.512   7.191  2.4743 -0.1458 -1.4071
  127OSM    H8T13562   0.970   5.360   7.268 -0.2326 -1.3440 -0.2753
  127OSM    C9S13563   0.770   5.422   7.342 -0.6268  0.3817  0.5100
  127OSM    H9S13564   0.720   5.328   7.373  0.0984  0.5781  2.3595
  127OSM    H9T13565   0.696   5.503   7.322  1.1742  1.3923 -2.3075
  127OSM   C10S13566   0.823   5.457   7.484 -0.7669  0.5156 -0.7118
  127OSM   H10S13567   0.902   5.532   7.462  0.4821 -0.7090 -0.5689
  127OSM   H10T13568   0.883   5.370   7.520 -0.5242  1.5489  1.4945
  127OSM   C11S13569   0.708   5.491   7.585 -0.0032 -0.3114  0.1922
  127OSM   H11S13570   0.662   5.394   7.613 -0.5185 -0.0019  0.4291
  127OSM   H11T13571   0.625   5.550   7.540  0.1396 -0.7345 -0.6317
  127OSM   C12S13572   0.761   5.579   7.701  0.3748  0.1928 -0.6341
  127OSM   H12S13573   0.764   5.686   7.671 -0.4388  0.0435 -1.2767
  127OSM   H12T13574   0.867   5.553   7.723  0.5764  1.0480 -0.5640
  127OSM   C13S13575   0.672   5.557   7.827 -0.1883  0.8558 -0.3868
  127OSM   H13S13576   0.722   5.617   7.906 -0.6180  0.7343 -0.0242
  127OSM   H13T13577   0.670   5.452   7.862  0.9333  1.4204  1.4780
  127OSM   C14S13578   0.531   5.602   7.803  0.4242 -0.3532 -0.2861
  127OSM   H14S13579   0.493   5.545   7.715 -0.0878 -0.4229 -0.0224
  127OSM   H14T13580   0.531   5.711   7.783  4.5733  0.2511  2.2364
  127OSM   C15S13581   0.445   5.557   7.926 -0.2080  0.2925 -0.5616
  127OSM   H15S13582   0.459   5.448   7.940  0.5264  0.5647  0.8758
  127OSM   H15T13583   0.338   5.576   7.904 -0.6740 -0.5789  0.8865
  127OSM   C16S13584   0.476   5.630   8.061  0.5100 -0.1005 -0.3001
  127OSM   H16S13585   0.471   5.739   8.040 -0.6869 -0.2819 -1.0052
  127OSM   H16T13586   0.577   5.600   8.098 -0.6751 -0.7685  2.5721
  127OSM   C17S13587   0.370   5.583   8.167  0.4404 -0.0167 -0.4342
  127OSM   H17S13588   0.273   5.632   8.144  0.0949 -0.6611 -0.3369
  127OSM   H17T13589   0.402   5.615   8.268  1.4178 -0.1974 -0.6767
  127OSM   C18S13590   0.339   5.436   8.176 -0.0262  0.1499  0.9997
  127OSM   H18S13591   0.259   5.408   8.105 -0.1731 -1.0285  1.6248
  127OSM   H18T13592   0.304   5.423   8.281 -1.4418 -1.9391  0.2764
  127OSM   H18U13593   0.431   5.379   8.153  1.2631  1.6883  2.1949
  127OSM    C1F13594   0.469   4.991   6.887  0.1908  0.4845  0.2758
  127OSM     OF13595   0.490   4.871   6.869 -0.1317 -0.3421 -0.3154
  127OSM    C2F13596   0.371   5.046   6.981 -0.0856  0.3273 -0.1404
  127OSM    H2F13597   0.291   5.092   6.920  1.1581  1.4674 -0.9324
  127OSM    H2G13598   0.420   5.128   7.038  0.0604 -0.6817  1.2323
  127OSM    C3F13599   0.336   4.931   7.083 -0.1972 -0.1838  0.0332
  127OSM    H3F13600   0.434   4.893   7.120 -0.2024  2.3005  2.7746
  127OSM    H3G13601   0.295   4.841   7.032 -0.8844 -0.9380  1.8786
  127OSM    C4F13602   0.237   4.990   7.183 -0.2135  0.3268 -0.5661
  127OSM    H4F13603   0.136   4.983   7.137 -0.6846  0.4267  0.4517
  127OSM    H4G13604   0.255   5.100   7.190 -1.6010  0.5797 -0.8911
  127OSM    C5F13605   0.230   4.915   7.319 -0.2178  0.3053 -0.1921
  127OSM    H5F13606   0.315   4.924   7.391 -0.1355  1.7073 -0.4665
  127OSM    H5G13607   0.223   4.805   7.302 -1.5844  0.4847 -0.7832
  127OSM    C6F13608   0.101   4.950   7.398  0.3146  0.2101 -0.7016
  127OSM    H6F13609   0.010   4.900   7.360  1.1214 -2.8721  1.2754
  127OSM    H6G13610   0.074   5.058   7.401 -0.1366  0.0824 -0.1633
  127OSM    C7F13611   0.121   4.920   7.542 -0.7013 -0.4082  0.3565
  127OSM    H7F13612   0.200   4.985   7.586 -0.2956 -1.0031  0.5102
  127OSM    H7G13613   0.147   4.813   7.555 -0.8954 -0.2476  2.1483
  127OSM    C8F13614  -0.002   4.960   7.631 -0.0497  0.5284 -0.2887
  127OSM    H8F13615  -0.094   4.911   7.592 -0.2070  0.2807  0.3861
  127OSM    H8G13616  -0.014   5.070   7.619 -0.3996  0.4473 -0.7212
  127OSM    C9F13617   0.015   4.925   7.776  0.5719 -0.2916 -0.2138
  127OSM    H9F13618   0.020   4.818   7.799 -2.9540 -0.8039 -1.4504
  127OSM   C10F13619   0.008   5.006   7.889 -0.1521 -0.1812  0.0878
  127OSM   H10F13620   0.025   4.951   7.983  0.9694  2.2651  1.3520
  127OSM   C11F13621  -0.024   5.148   7.903  0.6720 -0.0471  0.6197
  127OSM   H11F13622  -0.111   5.173   7.968 -1.0704 -4.4717  0.1177
  127OSM   H11G13623  -0.051   5.191   7.804  1.9693  1.1837  0.7855
  127OSM   C12F13624   0.107   5.222   7.951  1.1999 -0.2931 -0.0595
  127OSM   H12F13625   0.139   5.196   8.054  0.8618 -2.4854 -0.4800
  127OSM   H12G13626   0.083   5.330   7.946 -0.3685 -0.5143  1.6600
  127OSM   C13F13627   0.232   5.199   7.864 -0.0944  0.0552  0.3511
  127OSM   H13F13628   0.255   5.090   7.863 -0.0565  0.0320  2.2649
  127OSM   H13G13629   0.320   5.239   7.920  0.8850 -1.8990  0.2440
  127OSM   C14F13630   0.222   5.275   7.725  0.0756 -0.4263  0.7756
  127OSM   H14F13631   0.197   5.381   7.746  3.3554  0.1976  1.7079
  127OSM   H14G13632   0.133   5.238   7.669 -0.2958  0.0662  1.0400
  127OSM   C15F13633   0.339   5.255   7.632  0.3726 -0.2370 -0.0172
  127OSM   H15F13634   0.352   5.147   7.606 -0.0222 -0.6735  1.5274
  127OSM   H15G13635   0.436   5.288   7.676  0.2995 -1.0159  0.7490
  127OSM   C16F13636   0.326   5.341   7.507 -0.1974  0.1282 -0.1619
  127OSM   H16F13637   0.341   5.448   7.535  1.6567 -0.3267  0.6536
  127OSM   H16G13638   0.221   5.330   7.474  0.0705  1.3238 -1.4835
  127OSM   C17F13639   0.431   5.303   7.400  0.3634 -0.5103 -0.0085
  127OSM   H17F13640   0.411   5.206   7.351 -0.7230 -0.2092 -0.1913
  127OSM   H17G13641   0.534   5.307   7.443 -0.0959 -0.4704  1.1180
  127OSM   C18F13642   0.416   5.406   7.287  0.4406 -0.1196  0.9041
  127OSM   H18F13643   0.489   5.391   7.205 -2.0722  0.1416 -1.4304
  127OSM   H18G13644   0.417   5.513   7.315 -0.7982  0.8375 -2.4250
  127OSM   H18H13645   0.314   5.402   7.242 -0.1410 -1.2877  2.2688
  128OSM      N13646   6.305   2.370   6.492 -0.4737 -0.5151  0.0814
  128OSM    C1513647   6.176   2.312   6.437 -0.1388 -0.0474 -0.2395
  128OSM   H15A13648   6.098   2.385   6.451 -0.7633 -0.4745 -1.3558
  128OSM   H15B13649   6.141   2.229   6.496 -1.8433  1.3274  0.6953
  128OSM   H15C13650   6.183   2.273   6.336 -1.0174 -1.0378  0.0697
  128OSM    C1413651   6.291   2.407   6.633  0.1879  0.6225 -0.4724
  128OSM   H14A13652   6.254   2.328   6.698  1.7587  0.3586  0.1056
  128OSM   H14B13653   6.211   2.479   6.640 -0.8549 -0.6410  1.2584
  128OSM   H14C13654   6.385   2.437   6.676  0.2236  1.9965 -1.4795
  128OSM    C1313655   6.419   2.263   6.475 -0.2949 -0.0847  0.5173
  128OSM   H13A13656   6.403   2.177   6.538  0.2711 -1.1130 -0.7058
  128OSM   H13B13657   6.516   2.307   6.492  0.2199 -0.9804 -0.0407
  128OSM   H13C13658   6.420   2.218   6.377 -0.0483  0.9000  0.0545
  128OSM    C1213659   6.349   2.496   6.405  0.2143 -0.0244 -0.4556
  128OSM   H12A13660   6.267   2.562   6.429 -0.4004 -1.4278  1.4758
  128OSM   H12B13661   6.340   2.469   6.301  4.0594 -0.2429 -0.7887
  128OSM    C1113662   6.481   2.566   6.439 -0.1169 -0.2593 -0.3304
  128OSM   H11A13663   6.478   2.557   6.549 -1.4570 -1.3601 -0.4364
  128OSM   H11B13664   6.470   2.674   6.414  0.9908  0.0400  0.4373
  128OSM      P13665   6.739   2.557   6.400  0.0798  0.1246 -0.1895
  128OSM    O1313666   6.819   2.448   6.337  0.5298  0.7979  0.0591
  128OSM    O1413667   6.758   2.690   6.346 -0.2124  0.0917  0.3981
  128OSM    O1113668   6.752   2.566   6.557 -0.2104 -0.2648 -0.1876
  128OSM    O1213669   6.591   2.504   6.379 -0.0272 -0.5956 -0.8697
  128OSM    C1S13670   6.747   2.434   6.620  0.0445  0.0539 -0.6638
  128OSM    H1S13671   6.830   2.372   6.581  1.4112  1.5578 -0.1887
  128OSM    H1T13672   6.651   2.382   6.597  1.3110 -1.3365 -3.0029
  128OSM     NF13673   6.808   2.349   6.851 -0.4835 -0.4139  0.2385
  128OSM    HNF13674   6.730   2.293   6.875 -0.1630  0.7501  4.5196
  128OSM    C2S13675   6.766   2.462   6.773  0.3190 -0.6185  0.2830
  128OSM    H2S13676   6.847   2.538   6.777 -1.1689  1.0409 -0.8404
  128OSM    C3S13677   6.625   2.515   6.820 -0.1342 -0.0846 -0.7846
  128OSM    H3S13678   6.540   2.451   6.788  0.8968 -1.7607 -0.2072
  128OSM     O313679   6.603   2.645   6.771 -0.1289 -0.2618 -0.7889
  128OSM    HO313680   6.676   2.670   6.714  0.9859 -1.3327  0.1295
  128OSM    C4S13681   6.623   2.520   6.967  1.0943 -0.8570  0.1033
  128OSM    H4S13682   6.694   2.594   7.008  0.6120 -0.2247 -0.2078
  128OSM    C5S13683   6.543   2.443   7.044 -0.1860  0.0698 -0.2813
  128OSM    H5S13684   6.476   2.373   6.993 -0.4994 -0.1572  0.4247
  128OSM    C6S13685   6.557   2.437   7.196  0.2012  0.1656 -0.4361
  128OSM    H6S13686   6.457   2.450   7.242  0.7914  0.1273  0.8774
  128OSM    H6T13687   6.620   2.523   7.227  0.2531  0.0617 -0.2550
  128OSM    C7S13688   6.627   2.306   7.248 -0.0166 -0.4566  0.2451
  128OSM    H7S13689   6.700   2.275   7.170 -0.4285  0.0614 -0.3524
  128OSM    H7T13690   6.558   2.219   7.252 -2.0330  1.1809  1.7977
  128OSM    C8S13691   6.701   2.318   7.384 -0.4706 -0.7047 -0.5708
  128OSM    H8S13692   6.802   2.364   7.391  0.0832 -1.7801 -1.2254
  128OSM    H8T13693   6.717   2.218   7.428  0.1590 -0.6542 -0.6844
  128OSM    C9S13694   6.618   2.392   7.493 -0.7356  0.3444 -0.4424
  128OSM    H9S13695   6.516   2.347   7.492 -0.3809 -0.4547 -2.3735
  128OSM    H9T13696   6.626   2.501   7.476  1.1734 -0.0902 -2.4860
  128OSM   C10S13697   6.675   2.365   7.633 -0.3947  0.1785  0.2318
  128OSM   H10S13698   6.781   2.397   7.644 -0.2194 -0.7699  1.4305
  128OSM   H10T13699   6.678   2.257   7.659 -0.5360  0.0657 -0.2222
  128OSM   C11S13700   6.590   2.427   7.745  0.0178  0.0616 -0.2153
  128OSM   H11S13701   6.485   2.393   7.732  0.1649 -1.2484  1.7498
  128OSM   H11T13702   6.592   2.538   7.736  1.4913  0.0690  0.1198
  128OSM   C12S13703   6.640   2.381   7.883  0.5204 -0.3819 -0.4193
  128OSM   H12S13704   6.586   2.446   7.956  2.7489  0.1281  0.8227
  128OSM   H12T13705   6.742   2.423   7.891 -0.0931  1.2015 -0.5537
  128OSM   C13S13706   6.618   2.230   7.922 -0.6282  0.5271 -0.3734
  128OSM   H13S13707   6.657   2.165   7.840 -0.7724 -0.1632  0.1029
  128OSM   H13T13708   6.508   2.216   7.926 -0.5670  0.2820  0.4366
  128OSM   C14S13709   6.673   2.191   8.060 -0.3763 -0.2979  0.6329
  128OSM   H14S13710   6.621   2.102   8.101 -0.9185  0.1580  0.9436
  128OSM   H14T13711   6.650   2.270   8.134  0.9740  1.3120 -0.6477
  128OSM   C15S13712   6.827   2.173   8.076 -0.5517 -0.1090  0.0517
  128OSM   H15S13713   6.891   2.227   8.003 -0.1735  0.7833  1.0412
  128OSM   H15T13714   6.852   2.066   8.060 -1.6700 -0.0679 -2.2250
  128OSM   C16S13715   6.878   2.209   8.213  0.3301  0.7010  0.1394
  128OSM   H16S13716   6.831   2.139   8.285  1.6444 -3.1435 -2.5958
  128OSM   H16T13717   6.873   2.317   8.238 -0.6627  0.8990 -0.9009
  128OSM   C17S13718   7.032   2.213   8.219  0.3210 -0.5119 -0.2957
  128OSM   H17S13719   7.073   2.280   8.141 -0.0451  2.4373  1.9772
  128OSM   H17T13720   7.068   2.115   8.180  0.9713 -0.7501  0.8742
  128OSM   C18S13721   7.115   2.243   8.351  0.2100 -0.3918 -0.0354
  128OSM   H18S13722   7.117   2.353   8.365 -0.9391 -0.3782  0.0453
  128OSM   H18T13723   7.221   2.220   8.325  0.5426 -0.4870  1.3738
  128OSM   H18U13724   7.076   2.193   8.443  1.8187 -1.3182  0.1618
  128OSM    C1F13725   6.926   2.293   6.839 -0.9059 -0.1215  0.1105
  128OSM     OF13726   7.032   2.353   6.817 -0.4920  0.0612  0.7040
  128OSM    C2F13727   6.932   2.148   6.863  0.9446 -0.1256  0.2703
  128OSM    H2F13728   6.909   2.086   6.773  1.3708  0.5966 -0.3394
  128OSM    H2G13729   6.867   2.122   6.950  1.2767  2.3784  1.2840
  128OSM    C3F13730   7.074   2.105   6.906 -0.1687 -0.1217 -0.3519
  128OSM    H3F13731   7.089   2.152   7.006  0.7196 -0.4022 -0.3435
  128OSM    H3G13732   7.137   2.148   6.826 -2.8718  2.7265 -1.0313
  128OSM    C4F13733   7.099   1.953   6.920  0.7160 -0.2958 -0.4250
  128OSM    H4F13734   7.112   1.920   6.815 -0.4324  0.0854 -0.7030
  128OSM    H4G13735   7.009   1.900   6.959  0.6727 -1.1799 -1.7318
  128OSM    C5F13736   7.216   1.911   6.998 -0.6647  0.1050  0.2751
  128OSM    H5F13737   7.188   1.912   7.105 -0.3932  1.5565  0.3384
  128OSM    H5G13738   7.303   1.979   6.984  0.5603 -1.1959  1.3702
  128OSM    C6F13739   7.260   1.766   6.976  0.0071  1.1032 -0.1152
  128OSM    H6F13740   7.320   1.738   7.065  1.4820  1.2419 -1.0339
  128OSM    H6G13741   7.312   1.755   6.878 -0.9628 -1.2260 -0.3729
  128OSM    C7F13742   7.139   1.667   6.968  0.4112  0.8852 -0.1311
  128OSM    H7F13743   7.179   1.568   6.938 -2.4877 -0.7856  1.3195
  128OSM    H7G13744   7.068   1.698   6.889 -1.8034  2.4879  2.3824
  128OSM    C8F13745   7.074   1.653   7.108 -0.1530  0.6415 -0.8078
  128OSM    H8F13746   7.022   1.749   7.131  2.0461  1.3990  1.2515
  128OSM    H8G13747   7.153   1.644   7.186 -1.0258 -1.1275 -0.1058
  128OSM    C9F13748   6.977   1.539   7.118  0.1417 -0.5526  0.9038
  128OSM    H9F13749   6.919   1.520   7.027  0.1140  1.1027  0.5475
  128OSM   C10F13750   6.966   1.460   7.230  0.4749 -0.1140  0.2757
  128OSM   H10F13751   6.892   1.380   7.244  1.4984 -1.2244 -0.5816
  128OSM   C11F13752   7.033   1.480   7.364  0.0206 -0.0994 -0.2753
  128OSM   H11F13753   7.075   1.582   7.377  0.1168 -0.5179  3.2570
  128OSM   H11G13754   7.111   1.400   7.363  0.0531 -0.0838  0.5005
  128OSM   C12F13755   6.957   1.463   7.502  0.3327 -0.2978  0.1682
  128OSM   H12F13756   6.902   1.367   7.508  0.6601 -0.4490  0.8731
  128OSM   H12G13757   6.882   1.542   7.525 -1.1030 -2.0793  1.7527
  128OSM   C13F13758   7.054   1.465   7.620 -0.3100  0.2970  0.3862
  128OSM   H13F13759   7.109   1.561   7.624  1.6956 -0.7959 -0.2160
  128OSM   H13G13760   7.131   1.388   7.601 -1.6431 -0.4605 -2.1724
  128OSM   C14F13761   6.981   1.424   7.751  0.5554 -1.0968  1.5725
  128OSM   H14F13762   6.938   1.322   7.741  0.5031 -0.9108 -0.1983
  128OSM   H14G13763   6.910   1.506   7.773  1.5299 -0.1593  1.2413
  128OSM   C15F13764   7.079   1.424   7.871  0.1100  0.3064 -0.4866
  128OSM   H15F13765   7.134   1.519   7.885  3.1102 -1.2902 -0.9392
  128OSM   H15G13766   7.156   1.346   7.848 -0.5480  0.2680 -2.7098
  128OSM   C16F13767   6.997   1.390   7.995 -0.2613  0.5800 -0.4297
  128OSM   H16F13768   6.940   1.296   7.984  4.4338 -2.5217  0.0179
  128OSM   H16G13769   6.927   1.472   8.019  1.8562  2.4161 -0.3109
  128OSM   C17F13770   7.073   1.392   8.129  0.5037 -0.0945 -0.0315
  128OSM   H17F13771   7.142   1.478   8.142  2.7618 -2.0370  1.0623
  128OSM   H17G13772   7.143   1.307   8.143  1.2315  0.6317  0.7484
  128OSM   C18F13773   6.976   1.389   8.251  0.2120 -0.3151  0.3569
  128OSM   H18F13774   6.925   1.488   8.247  1.6593  0.4123 -0.5488
  128OSM   H18G13775   7.032   1.384   8.347 -0.1824 -1.2168  0.5478
  128OSM   H18H13776   6.898   1.310   8.250  0.1246 -0.3080 -3.4400
  129OSM      N13777   5.545   4.076   6.093 -0.0712  0.4436 -0.1964
  129OSM    C1513778   5.575   4.150   5.971  0.4644 -0.8254  0.4015
  129OSM   H15A13779   5.635   4.097   5.899  1.0440 -0.0057  0.2717
  129OSM   H15B13780   5.626   4.244   5.985 -0.7972 -0.1924  0.9017
  129OSM   H15C13781   5.483   4.172   5.918  1.2204 -0.5813 -0.8203
  129OSM    C1413782   5.670   4.032   6.172 -0.3595  0.0993  0.2149
  129OSM   H14A13783   5.742   3.989   6.104 -1.6061 -0.5120 -0.7435
  129OSM   H14B13784   5.637   3.960   6.246  1.3572 -1.3588 -0.4116
  129OSM   H14C13785   5.719   4.111   6.228  1.5144 -2.2298  1.9884
  129OSM    C1313786   5.459   4.159   6.180 -0.6429 -0.0137  0.4120
  129OSM   H13A13787   5.364   4.171   6.131 -0.7174 -0.3842  0.4629
  129OSM   H13B13788   5.504   4.254   6.204  1.6278 -1.1987  1.0462
  129OSM   H13C13789   5.435   4.107   6.272  0.6155 -0.3999  0.5283
  129OSM    C1213790   5.478   3.946   6.061  0.1527 -0.1145 -0.6014
  129OSM   H12A13791   5.545   3.889   5.998  2.0474 -0.6479  1.8325
  129OSM   H12B13792   5.389   3.978   6.009  1.0959  2.4249 -0.7105
  129OSM    C1113793   5.424   3.853   6.174  0.1894 -0.2298  0.1353
  129OSM   H11A13794   5.515   3.808   6.219  0.6059  0.3464 -0.1229
  129OSM   H11B13795   5.373   3.768   6.124  0.7769 -1.2589  1.2549
  129OSM      P13796   5.176   3.924   6.241 -0.2446  0.1287  0.1155
  129OSM    O1313797   5.132   4.064   6.274 -0.6821  0.1043  0.2004
  129OSM    O1413798   5.142   3.871   6.111 -0.1292  0.4808 -0.2284
  129OSM    O1113799   5.119   3.825   6.348  0.1998  0.7360 -0.0098
  129OSM    O1213800   5.333   3.915   6.266 -0.4131  0.2263  0.2301
  129OSM    C1S13801   5.198   3.741   6.431 -0.4757  0.7353 -0.4926
  129OSM    H1S13802   5.296   3.700   6.399 -0.3470  0.5109  0.1996
  129OSM    H1T13803   5.141   3.646   6.433  2.2884 -1.0302 -2.2841
  129OSM     NF13804   5.297   3.693   6.649  0.2665 -0.3364  0.3920
  129OSM    HNF13805   5.247   3.649   6.723  0.4161  0.4772  0.9726
  129OSM    C2S13806   5.232   3.793   6.568 -0.5248  0.5244 -0.0610
  129OSM    H2S13807   5.295   3.881   6.541  1.1925 -0.9437 -0.9775
  129OSM    C3S13808   5.105   3.843   6.642 -0.1615  0.0153  0.3070
  129OSM    H3S13809   5.025   3.767   6.656  0.1214 -0.6146 -1.3681
  129OSM     O313810   5.036   3.949   6.584 -0.4303  0.2671 -0.0333
  129OSM    HO313811   5.057   3.931   6.492  0.8739 -0.1392  0.3312
  129OSM    C4S13812   5.148   3.907   6.769 -0.0476 -0.6061  0.2732
  129OSM    H4S13813   5.205   4.001   6.762 -0.0699 -0.6762 -0.8509
  129OSM    C5S13814   5.133   3.849   6.888 -0.1192  0.6954  0.2745
  129OSM    H5S13815   5.067   3.761   6.886 -1.5108  1.7272 -2.9818
  129OSM    C6S13816   5.182   3.900   7.024  0.0876  0.0881 -0.0312
  129OSM    H6S13817   5.233   3.814   7.073  1.7052  1.0721  0.0429
  129OSM    H6T13818   5.091   3.922   7.083  0.8227 -0.2111  1.2232
  129OSM    C7S13819   5.268   4.029   7.028  0.3262 -0.1851 -0.5735
  129OSM    H7S13820   5.194   4.107   7.002  3.6755  3.2563 -0.1922
  129OSM    H7T13821   5.344   4.021   6.947  0.9330 -0.2006 -0.0033
  129OSM    C8S13822   5.336   4.054   7.160 -0.8033  0.7712  0.3802
  129OSM    H8S13823   5.259   4.034   7.238 -0.5572 -0.2395  0.3726
  129OSM    H8T13824   5.355   4.164   7.157 -0.5074  0.6945 -4.9811
  129OSM    C9S13825   5.460   3.969   7.180 -0.2484 -0.1806 -0.1414
  129OSM    H9S13826   5.505   3.951   7.080  0.6327  1.3658 -0.0360
  129OSM    H9T13827   5.422   3.871   7.216 -0.3843 -0.7744 -1.8582
  129OSM   C10S13828   5.558   4.015   7.280 -0.0481  0.5639  0.3789
  129OSM   H10S13829   5.514   4.027   7.381 -1.2092  0.2586 -0.0882
  129OSM   H10T13830   5.603   4.113   7.252 -1.3152  1.5013  1.5513
  129OSM   C11S13831   5.678   3.919   7.308 -0.5670  0.2188  0.2705
  129OSM   H11S13832   5.734   3.903   7.214  0.3480  0.8653  0.7001
  129OSM   H11T13833   5.637   3.820   7.337  0.1392 -0.9527 -2.5493
  129OSM   C12S13834   5.776   3.969   7.418  0.5185 -0.0403  0.3132
  129OSM   H12S13835   5.824   3.887   7.477  1.4845 -0.8860 -1.5976
  129OSM   H12T13836   5.712   4.016   7.495  0.0137 -0.3447  0.0811
  129OSM   C13S13837   5.886   4.060   7.364 -0.3906 -0.4190  1.0232
  129OSM   H13S13838   5.840   4.145   7.310 -0.9095  0.1879  2.3974
  129OSM   H13T13839   5.951   4.011   7.288 -0.7735  0.4410  0.1344
  129OSM   C14S13840   5.999   4.108   7.451 -0.0856  0.0671  0.1043
  129OSM   H14S13841   6.067   4.178   7.397 -1.6765  1.9283  0.4656
  129OSM   H14T13842   6.062   4.027   7.494 -1.3051 -1.4725 -0.9561
  129OSM   C15S13843   5.961   4.182   7.574 -0.1085 -0.0066 -0.2744
  129OSM   H15S13844   5.861   4.228   7.555 -0.7157 -0.4386  1.7861
  129OSM   H15T13845   6.024   4.271   7.598  1.1447 -1.1826  0.8167
  129OSM   C16S13846   5.955   4.093   7.698  0.4343  0.0479 -0.2362
  129OSM   H16S13847   6.057   4.050   7.704  0.2964 -0.2280  0.1770
  129OSM   H16T13848   5.887   4.006   7.686 -2.1376  1.5545  2.6510
  129OSM   C17S13849   5.909   4.169   7.824 -0.1999 -0.3899  0.1761
  129OSM   H17S13850   5.802   4.199   7.811 -0.7368 -1.8716  1.0802
  129OSM   H17T13851   5.956   4.270   7.820  1.4231 -1.1535 -0.4149
  129OSM   C18S13852   5.940   4.092   7.955  0.0210  0.3710 -0.4730
  129OSM   H18S13853   6.045   4.054   7.953 -0.2140 -0.2299 -1.2462
  129OSM   H18T13854   5.876   4.002   7.956  0.5648 -0.0193  0.1898
  129OSM   H18U13855   5.927   4.161   8.042  1.5024  0.6530 -0.4536
  129OSM    C1F13856   5.433   3.666   6.633  0.1456 -0.7071  0.2513
  129OSM     OF13857   5.496   3.720   6.543 -0.2827  0.4990 -0.0603
  129OSM    C2F13858   5.480   3.575   6.734 -0.5418  0.1193 -0.1176
  129OSM    H2F13859   5.529   3.490   6.681 -1.4667  0.5702 -1.6966
  129OSM    H2G13860   5.390   3.533   6.785  1.1681 -0.2920  2.6888
  129OSM    C3F13861   5.586   3.652   6.828 -0.3598  0.1108  0.2473
  129OSM    H3F13862   5.570   3.762   6.833  0.0881  0.3367 -2.5811
  129OSM    H3G13863   5.684   3.631   6.779 -0.7552 -0.3011 -0.3721
  129OSM    C4F13864   5.597   3.603   6.974  0.0603 -0.1025  0.5324
  129OSM    H4F13865   5.598   3.493   6.962  2.0256  0.0099 -0.6433
  129OSM    H4G13866   5.507   3.644   7.024 -0.4651 -0.1334 -0.3854
  129OSM    C5F13867   5.727   3.642   7.038 -0.1650  0.0796 -0.7971
  129OSM    H5F13868   5.725   3.753   7.046  0.6797 -0.0374  1.5452
  129OSM    H5G13869   5.814   3.611   6.977  0.5247  0.4271 -0.0068
  129OSM    C6F13870   5.743   3.575   7.175  0.2750  0.3943  0.4709
  129OSM    H6F13871   5.649   3.568   7.234  0.2483 -1.1443  0.2713
  129OSM    H6G13872   5.809   3.633   7.243 -0.1382 -1.2005  2.2781
  129OSM    C7F13873   5.794   3.430   7.174 -0.1711 -0.6778  0.6686
  129OSM    H7F13874   5.898   3.426   7.134 -0.1856  0.9976  0.4123
  129OSM    H7G13875   5.738   3.375   7.096  0.9829 -1.0142  0.0658
  129OSM    C8F13876   5.796   3.364   7.306  0.7020 -0.1450 -0.0988
  129OSM    H8F13877   5.706   3.390   7.365 -0.2162 -0.2342 -1.4465
  129OSM    H8G13878   5.885   3.398   7.363  1.9771 -1.1954 -1.4124
  129OSM    C9F13879   5.822   3.215   7.298  0.0038  0.8189 -0.6483
  129OSM    H9F13880   5.742   3.155   7.253  0.5996 -1.3964  1.1758
  129OSM   C10F13881   5.918   3.146   7.361 -0.7991 -0.1739  0.6455
  129OSM   H10F13882   5.926   3.040   7.332  1.1747  0.5908 -1.8400
  129OSM   C11F13883   6.030   3.195   7.450 -0.0859 -0.5733 -0.4049
  129OSM   H11F13884   6.041   3.306   7.454  1.7312 -0.7509  0.3119
  129OSM   H11G13885   6.123   3.163   7.399  0.7238  2.4855 -0.9760
  129OSM   C12F13886   6.027   3.138   7.593  0.2624  0.1110  0.4948
  129OSM   H12F13887   6.090   3.216   7.641  0.2213  0.8911 -0.6897
  129OSM   H12G13888   6.070   3.036   7.584  1.2782  0.5172  0.6670
  129OSM   C13F13889   5.890   3.138   7.665  0.5411  0.0494 -0.9321
  129OSM   H13F13890   5.826   3.074   7.600  0.6656  0.5794 -1.5822
  129OSM   H13G13891   5.846   3.238   7.649  0.1237  0.5955  3.1539
  129OSM   C14F13892   5.906   3.102   7.818  0.2429  0.5409 -0.2584
  129OSM   H14F13893   5.808   3.072   7.860 -0.2403 -1.2663 -2.6469
  129OSM   H14G13894   5.951   3.196   7.859 -0.4755  1.2162 -0.9920
  129OSM   C15F13895   5.987   2.982   7.850 -0.0121 -0.2881 -0.6534
  129OSM   H15F13896   6.094   3.000   7.827 -0.9564  0.8165 -4.5157
  129OSM   H15G13897   5.972   2.893   7.785  3.5934 -2.0610  0.8047
  129OSM   C16F13898   5.966   2.929   7.996  0.5437  0.3258  0.7744
  129OSM   H16F13899   5.859   2.899   8.002  0.3680  0.6118 -0.6666
  129OSM   H16G13900   5.989   3.003   8.076  0.3046  0.7118  0.4904
  129OSM   C17F13901   6.052   2.798   8.015  0.0658 -0.4931 -0.5572
  129OSM   H17F13902   6.151   2.840   7.986  0.6076 -0.8242  0.7731
  129OSM   H17G13903   6.026   2.715   7.946 -0.6788 -0.8850  0.1926
  129OSM   C18F13904   6.049   2.744   8.158  0.3353 -0.3144  0.4917
  129OSM   H18F13905   6.121   2.660   8.166 -0.5071 -1.0692  0.2490
  129OSM   H18G13906   5.943   2.714   8.174  0.4738  0.1660  2.4795
  129OSM   H18H13907   6.082   2.814   8.238 -0.3179  2.4969 -1.6299
  130OSM      N13908   5.469   0.387   5.940 -0.4452  0.4447 -0.0766
  130OSM    C1513909   5.504   0.357   5.794 -0.2823 -0.9602 -0.2773
  130OSM   H15A13910   5.431   0.302   5.736  0.8983 -1.2813 -1.4813
  130OSM   H15B13911   5.591   0.294   5.781 -0.0750 -0.4568 -1.3441
  130OSM   H15C13912   5.516   0.445   5.732 -2.4068 -0.3033  0.1973
  130OSM    C1413913   5.366   0.486   5.947 -0.1509 -0.7060  1.0328
  130OSM   H14A13914   5.357   0.511   6.052 -0.6108 -2.3037  1.3800
  130OSM   H14B13915   5.267   0.466   5.908  0.0025  1.6272 -0.6481
  130OSM   H14C13916   5.394   0.586   5.918 -0.6793 -0.7862  0.2341
  130OSM    C1313917   5.411   0.260   6.003  0.2855  0.6276 -0.6939
  130OSM   H13A13918   5.408   0.289   6.107 -0.6581 -0.2097 -0.4773
  130OSM   H13B13919   5.476   0.176   5.982 -0.6315 -0.6970  1.5712
  130OSM   H13C13920   5.312   0.239   5.965 -0.6544 -0.2216  2.1281
  130OSM    C1213921   5.596   0.414   6.017 -0.5803  0.5251  0.8861
  130OSM   H12A13922   5.636   0.506   5.978  0.3277  0.3343  1.3488
  130OSM   H12B13923   5.662   0.331   5.998 -2.6375 -0.9795  0.0690
  130OSM    C1113924   5.582   0.432   6.175  0.0621 -0.7334  0.0278
  130OSM   H11A13925   5.685   0.418   6.216  0.4122 -2.0128 -1.2377
  130OSM   H11B13926   5.521   0.349   6.216 -0.7466 -0.2496 -0.1915
  130OSM      P13927   5.610   0.690   6.225 -0.5762  0.0614  0.2846
  130OSM    O1313928   5.736   0.678   6.146 -0.3159 -0.6802 -0.4670
  130OSM    O1413929   5.522   0.803   6.197 -0.3716 -0.0589 -0.4061
  130OSM    O1113930   5.647   0.693   6.380 -0.2137  0.4504 -0.0716
  130OSM    O1213931   5.524   0.558   6.213 -0.0542  0.0566  0.2096
  130OSM    C1S13932   5.541   0.643   6.471 -0.0808 -0.5718  0.5738
  130OSM    H1S13933   5.514   0.536   6.455 -0.7060 -0.1419 -1.4111
  130OSM    H1T13934   5.439   0.687   6.462  0.2617  0.2861  0.8397
  130OSM     NF13935   5.505   0.573   6.707  0.4485 -0.2361 -0.1037
  130OSM    HNF13936   5.435   0.625   6.755 -0.1995 -0.5199 -0.7223
  130OSM    C2S13937   5.590   0.649   6.620 -0.2049  1.0402 -0.2840
  130OSM    H2S13938   5.690   0.600   6.621  0.6807  2.6073 -3.4804
  130OSM    C3S13939   5.624   0.797   6.666 -0.0111  0.1989  0.3892
  130OSM    H3S13940   5.534   0.862   6.652  0.0301 -0.0485 -1.1236
  130OSM     O313941   5.714   0.862   6.579 -0.0783  0.0213 -0.5002
  130OSM    HO313942   5.717   0.804   6.502  2.2134  0.0155 -0.4228
  130OSM    C4S13943   5.663   0.792   6.812 -0.2683 -0.2100  0.4209
  130OSM    H4S13944   5.588   0.771   6.889 -1.2263  0.5212 -0.3004
  130OSM    C5S13945   5.791   0.800   6.853  0.6194  0.3127  0.0693
  130OSM    H5S13946   5.868   0.825   6.778  2.2630 -1.4611  1.1066
  130OSM    C6S13947   5.833   0.788   6.996  0.3120  0.2263 -0.3319
  130OSM    H6S13948   5.892   0.879   7.018 -0.5562  0.2852  1.9819
  130OSM    H6T13949   5.912   0.711   7.011 -0.0780  0.1509  1.4506
  130OSM    C7S13950   5.735   0.781   7.110 -0.8604  0.4804  0.1589
  130OSM    H7S13951   5.691   0.679   7.118  0.1226  0.1779  2.0816
  130OSM    H7T13952   5.649   0.850   7.106  0.4080  1.9971 -1.1936
  130OSM    C8S13953   5.817   0.808   7.244 -0.0389  0.0411  0.1684
  130OSM    H8S13954   5.815   0.919   7.249  0.3718 -0.0324  2.0083
  130OSM    H8T13955   5.924   0.781   7.237 -0.5457 -2.4184  1.5845
  130OSM    C9S13956   5.750   0.746   7.368 -0.2204  0.0960  0.2799
  130OSM    H9S13957   5.750   0.635   7.364 -0.7797  0.0743  0.8506
  130OSM    H9T13958   5.648   0.789   7.378  0.1744  0.8929  0.9825
  130OSM   C10S13959   5.826   0.784   7.497 -0.1373 -0.7636 -0.0304
  130OSM   H10S13960   5.842   0.894   7.501  2.2832 -1.1211  0.9661
  130OSM   H10T13961   5.921   0.728   7.485  0.6817  0.7529 -0.7236
  130OSM   C11S13962   5.769   0.746   7.632  0.1713  0.4408 -0.9407
  130OSM   H11S13963   5.833   0.787   7.713  0.6806 -0.9663 -0.6070
  130OSM   H11T13964   5.777   0.638   7.656 -0.2025  0.9171  1.4760
  130OSM   C12S13965   5.634   0.803   7.670 -0.6203 -0.5419  0.1429
  130OSM   H12S13966   5.555   0.769   7.600  0.1261 -0.4561 -0.7517
  130OSM   H12T13967   5.637   0.914   7.660  1.1198 -0.6166 -0.3361
  130OSM   C13S13968   5.575   0.769   7.813 -0.2240 -0.0020 -0.5319
  130OSM   H13S13969   5.552   0.661   7.827 -0.7541  0.1008 -0.5709
  130OSM   H13T13970   5.476   0.819   7.813  0.8103  2.1118  1.7955
  130OSM   C14S13971   5.670   0.808   7.938 -0.4067  0.2467 -0.3225
  130OSM   H14S13972   5.711   0.910   7.925 -0.4267  0.3563  0.4615
  130OSM   H14T13973   5.756   0.737   7.945 -1.9083 -1.5786  0.2467
  130OSM   C15S13974   5.582   0.811   8.062 -0.2654 -0.2112 -0.1101
  130OSM   H15S13975   5.562   0.710   8.104 -2.2898  0.4887  0.6837
  130OSM   H15T13976   5.489   0.862   8.027  0.6321 -0.2748 -2.6962
  130OSM   C16S13977   5.637   0.906   8.169 -0.5466  0.5599 -0.6738
  130OSM   H16S13978   5.637   1.010   8.128  0.7679  1.4672  1.5183
  130OSM   H16T13979   5.742   0.877   8.193 -1.2586 -0.8371  0.8058
  130OSM   C17S13980   5.538   0.900   8.292 -0.9356  0.8508 -0.4139
  130OSM   H17S13981   5.557   0.808   8.351 -0.2420  1.4347  0.2683
  130OSM   H17T13982   5.435   0.880   8.255  0.9956 -2.2165 -4.6435
  130OSM   C18S13983   5.551   1.023   8.378  0.6335  0.3139 -0.5789
  130OSM   H18S13984   5.651   1.071   8.380  0.2172  1.1634  0.4706
  130OSM   H18T13985   5.539   0.995   8.485 -0.6670 -2.2956 -1.3617
  130OSM   H18U13986   5.469   1.096   8.356  1.4080  1.3610 -0.0374
  130OSM    C1F13987   5.484   0.443   6.714  0.3322 -0.1210 -0.7100
  130OSM     OF13988   5.522   0.370   6.626  0.3979 -0.5250  0.8834
  130OSM    C2F13989   5.407   0.396   6.836  0.5751  0.5298  0.2069
  130OSM    H2F13990   5.383   0.289   6.823  0.7841  0.6920 -1.6891
  130OSM    H2G13991   5.306   0.442   6.837  1.3471  2.3162 -0.5387
  130OSM    C3F13992   5.464   0.445   6.971 -0.3422  0.7811 -0.0009
  130OSM    H3F13993   5.450   0.555   6.969  1.1086  1.0042  1.2143
  130OSM    H3G13994   5.575   0.441   6.961 -0.2983 -1.4906  1.1040
  130OSM    C4F13995   5.420   0.379   7.096 -0.3778 -0.0395  0.1243
  130OSM    H4F13996   5.451   0.273   7.111  2.6887  0.9008  0.8604
  130OSM    H4G13997   5.311   0.397   7.104 -0.5311  0.2377 -2.2381
  130OSM    C5F13998   5.487   0.454   7.212 -0.5650  1.0847 -0.2185
  130OSM    H5F13999   5.478   0.564   7.217 -1.1495  0.9940  1.2703
  130OSM    H5G14000   5.595   0.434   7.199 -0.4006  2.7268 -1.4033
  130OSM    C6F14001   5.430   0.408   7.348 -0.3643  0.1117  0.4799
  130OSM    H6F14002   5.452   0.300   7.361 -1.6498 -0.3809 -1.3174
  130OSM    H6G14003   5.320   0.424   7.352  0.0076  2.6683  2.8210
  130OSM    C7F14004   5.487   0.483   7.471 -0.2680 -0.0366  0.3034
  130OSM    H7F14005   5.445   0.585   7.466 -0.0041  0.0538 -0.0452
  130OSM    H7G14006   5.598   0.479   7.476 -0.2487 -1.1989 -0.8000
  130OSM    C8F14007   5.436   0.423   7.602 -0.4653 -1.1283  0.8419
  130OSM    H8F14008   5.325   0.423   7.595 -0.3083 -3.3163 -2.4413
  130OSM    H8G14009   5.456   0.496   7.684 -0.4456 -0.8753  0.6108
  130OSM    C9F14010   5.476   0.293   7.650  0.4893  0.2246 -0.5125
  130OSM    H9F14011   5.567   0.256   7.599  0.8788 -1.3721  1.2639
  130OSM   C10F14012   5.412   0.212   7.742  0.0172  0.0277 -0.0656
  130OSM   H10F14013   5.462   0.114   7.744  0.1715  0.0026 -2.7249
  130OSM   C11F14014   5.287   0.210   7.825  0.5282  0.8368 -0.1537
  130OSM   H11F14015   5.293   0.137   7.909  3.8107  1.3998  0.1725
  130OSM   H11G14016   5.201   0.170   7.767  1.8258  1.1315 -2.3349
  130OSM   C12F14017   5.244   0.352   7.877  0.0353 -0.5152  0.2091
  130OSM   H12F14018   5.217   0.407   7.784 -1.1239  0.4909  1.1246
  130OSM   H12G14019   5.329   0.404   7.926 -0.4870  0.0769  0.4853
  130OSM   C13F14020   5.119   0.363   7.968  0.0292 -0.5716 -0.1461
  130OSM   H13F14021   5.028   0.359   7.905 -0.9929 -0.0464  1.2635
  130OSM   H13G14022   5.121   0.466   8.011  1.0362  0.2102 -1.9959
  130OSM   C14F14023   5.124   0.262   8.074  0.2490 -0.0983 -1.0129
  130OSM   H14F14024   5.214   0.282   8.136 -0.0829 -0.9053 -0.2557
  130OSM   H14G14025   5.135   0.159   8.035 -1.1674 -1.0161  0.9037
  130OSM   C15F14026   4.992   0.264   8.154  0.7206  0.6139 -0.1980
  130OSM   H15F14027   4.907   0.229   8.091 -0.3106 -0.5655  1.8201
  130OSM   H15G14028   4.967   0.368   8.185 -0.4717  0.6943 -1.3790
  130OSM   C16F14029   4.983   0.161   8.272  1.4336  0.7381  0.0433
  130OSM   H16F14030   5.038   0.195   8.363  0.5846 -2.0543  1.6652
  130OSM   H16G14031   5.007   0.056   8.248 -1.6008  0.0280 -0.0400
  130OSM   C17F14032   4.834   0.141   8.317 -0.2482 -0.2585  0.1171
  130OSM   H17F14033   4.834   0.072   8.403 -0.4968 -2.2330 -1.4330
  130OSM   H17G14034   4.774   0.113   8.227  1.4671  0.5045 -1.2913
  130OSM   C18F14035   4.775   0.271   8.378  0.0532 -0.4820  0.0451
  130OSM   H18F14036   4.799   0.361   8.318 -0.5158 -1.2902 -1.4132
  130OSM   H18G14037   4.804   0.287   8.484 -1.4050 -0.4714  0.4482
  130OSM   H18H14038   4.665   0.260   8.371  0.0281 -0.8362  1.0079
  131OSM      N14039   5.590   5.209   6.295 -0.0785 -0.1705 -0.0874
  131OSM    C1514040   5.580   5.068   6.237 -0.4405  0.1994 -0.3583
  131OSM   H15A14041   5.557   5.086   6.133 -0.2243  3.3933  0.1024
  131OSM   H15B14042   5.490   5.030   6.282  1.0048  0.9126  3.2790
  131OSM   H15C14043   5.663   5.004   6.265 -1.1103 -0.6145 -0.2184
  131OSM    C1414044   5.485   5.297   6.235  0.1592  0.0837 -0.4790
  131OSM   H14A14045   5.480   5.385   6.296 -0.8477  0.1593 -0.6590
  131OSM   H14B14046   5.388   5.248   6.242  0.6114 -0.5251  1.7166
  131OSM   H14C14047   5.511   5.323   6.133  0.3074  0.9181 -0.2280
  131OSM    C1314048   5.555   5.201   6.438 -0.4881 -0.2776 -1.3619
  131OSM   H13A14049   5.568   5.297   6.486 -0.2843 -0.5943 -0.7764
  131OSM   H13B14050   5.617   5.126   6.484 -0.7639  1.1268  1.4262
  131OSM   H13C14051   5.457   5.156   6.449  0.0272 -0.8382  1.3360
  131OSM    C1214052   5.727   5.267   6.264 -0.6297  0.0085  0.0886
  131OSM   H12A14053   5.729   5.371   6.292 -1.0982 -0.0478  0.3468
  131OSM   H12B14054   5.745   5.261   6.158  1.6005  0.4063  0.4164
  131OSM    C1114055   5.841   5.187   6.340 -0.8037  0.2322 -0.2518
  131OSM   H11A14056   5.835   5.079   6.319 -1.3562  0.1707  0.1888
  131OSM   H11B14057   5.806   5.204   6.444  0.9278  1.8430  0.0966
  131OSM      P14058   6.034   5.227   6.164  0.0850  0.4810  0.6542
  131OSM    O1314059   6.023   5.084   6.114 -0.2263 -0.2153 -0.3777
  131OSM    O1414060   5.983   5.340   6.081 -0.8291 -0.3443 -0.7249
  131OSM    O1114061   6.187   5.258   6.181 -0.8595 -0.7740 -0.2368
  131OSM    O1214062   5.970   5.244   6.312 -0.2188 -0.5014  0.2627
  131OSM    C1S14063   6.226   5.350   6.283  0.0879  0.2916 -0.3140
  131OSM    H1S14064   6.153   5.434   6.286  1.6614  2.0610 -5.8615
  131OSM    H1T14065   6.325   5.394   6.259  0.4240 -0.6563 -0.7093
  131OSM     NF14066   6.303   5.389   6.515 -0.4795  0.2578 -0.4742
  131OSM    HNF14067   6.403   5.391   6.522 -0.2174 -2.7485 -2.2641
  131OSM    C2S14068   6.251   5.291   6.426 -0.1412  0.5106  0.4073
  131OSM    H2S14069   6.152   5.259   6.466  0.0657 -1.7281 -0.7503
  131OSM    C3S14070   6.344   5.171   6.413  0.1483 -0.1491  0.6366
  131OSM    H3S14071   6.448   5.207   6.404  1.6168 -4.2089  0.4511
  131OSM     O314072   6.316   5.065   6.315 -0.1207 -0.3689  0.3930
  131OSM    HO314073   6.264   5.120   6.256 -0.0263  0.6874  1.2783
  131OSM    C4S14074   6.358   5.103   6.543 -0.3280  0.0909  0.3245
  131OSM    H4S14075   6.445   5.136   6.603 -0.3680 -0.3540  0.6313
  131OSM    C5S14076   6.273   5.005   6.592 -0.5446 -0.3132 -0.2566
  131OSM    H5S14077   6.198   4.961   6.525  1.8172 -3.8307 -0.7431
  131OSM    C6S14078   6.285   4.953   6.734 -0.4843 -0.1538  0.1043
  131OSM    H6S14079   6.347   4.861   6.736  3.2584  2.2606  0.0559
  131OSM    H6T14080   6.183   4.927   6.770 -1.4169 -2.1025 -3.6298
  131OSM    C7S14081   6.344   5.050   6.826  0.7353  0.2862 -0.1716
  131OSM    H7S14082   6.297   5.150   6.812 -0.5943 -0.4783 -1.3999
  131OSM    H7T14083   6.454   5.061   6.820  0.8985 -0.8523  0.7435
  131OSM    C8S14084   6.322   5.002   6.974  0.2733 -0.3481 -0.6247
  131OSM    H8S14085   6.396   5.059   7.034  0.8048 -0.8347 -0.8090
  131OSM    H8T14086   6.340   4.893   6.985 -0.0218 -0.5190 -1.7638
  131OSM    C9S14087   6.183   5.044   7.025 -0.0595  0.3741  0.1847
  131OSM    H9S14088   6.104   4.994   6.964 -0.0496 -0.3351  0.7511
  131OSM    H9T14089   6.175   5.153   7.004  0.3427  0.7287  1.8281
  131OSM   C10S14090   6.172   5.015   7.171 -0.6329  0.4857 -0.9552
  131OSM   H10S14091   6.251   5.066   7.230  0.2106  0.1445 -1.7894
  131OSM   H10T14092   6.193   4.908   7.192  3.1679  1.1344 -1.1499
  131OSM   C11S14093   6.039   5.040   7.229 -0.2909  0.1443  0.4877
  131OSM   H11S14094   5.961   4.992   7.166 -1.0032  1.6463  0.1958
  131OSM   H11T14095   6.009   5.144   7.206 -2.2387 -0.2530  1.0767
  131OSM   C12S14096   6.029   5.020   7.377  0.4455 -0.6247 -0.2503
  131OSM   H12S14097   6.090   5.105   7.415  0.7122  0.0276 -2.0941
  131OSM   H12T14098   6.076   4.923   7.405  0.1092 -0.5345  0.6452
  131OSM   C13S14099   5.887   5.023   7.429 -0.0376  0.1183 -0.6681
  131OSM   H13S14100   5.856   4.917   7.440 -1.5867  0.5374 -0.7949
  131OSM   H13T14101   5.811   5.069   7.362 -1.8670 -0.3817  1.0213
  131OSM   C14S14102   5.885   5.080   7.571  0.2626 -0.2650 -0.2223
  131OSM   H14S14103   5.930   5.181   7.570  0.6433 -0.3955  1.7324
  131OSM   H14T14104   5.945   5.013   7.637  1.2927  1.0294  0.1650
  131OSM   C15S14105   5.747   5.092   7.631 -0.3578 -0.6737 -0.1527
  131OSM   H15S14106   5.694   4.996   7.651  0.0557 -0.8439  0.1307
  131OSM   H15T14107   5.685   5.152   7.561  0.2227 -1.6284 -1.4987
  131OSM   C16S14108   5.774   5.171   7.762  0.5972 -0.6862 -0.4316
  131OSM   H16S14109   5.811   5.275   7.748 -1.6925  0.4305  1.4153
  131OSM   H16T14110   5.851   5.110   7.814  1.0479  0.8767  0.7626
  131OSM   C17S14111   5.647   5.177   7.854 -0.8382 -0.2306  0.1702
  131OSM   H17S14112   5.612   5.072   7.870  2.8276 -1.4387  0.8966
  131OSM   H17T14113   5.568   5.241   7.808 -1.0444 -1.0405 -0.6259
  131OSM   C18S14114   5.673   5.241   7.996  0.3842  0.3161  0.2953
  131OSM   H18S14115   5.698   5.349   7.992  1.0112  0.2732  2.0988
  131OSM   H18T14116   5.769   5.202   8.037 -0.3699 -0.2051  1.6162
  131OSM   H18U14117   5.590   5.224   8.068  1.2408  1.2122  1.5167
  131OSM    C1F14118   6.232   5.497   6.558 -0.7522 -0.4430  0.0760
  131OSM     OF14119   6.112   5.509   6.545 -0.9739 -0.0831 -1.1824
  131OSM    C2F14120   6.306   5.599   6.632 -0.0055 -0.7012  0.5208
  131OSM    H2F14121   6.247   5.689   6.660  3.9296  2.5181 -0.9872
  131OSM    H2G14122   6.393   5.643   6.578  0.1565 -0.1674  1.2031
  131OSM    C3F14123   6.374   5.541   6.767 -0.6152  0.4624  0.3797
  131OSM    H3F14124   6.409   5.627   6.827  0.6121  1.0590 -1.1490
  131OSM    H3G14125   6.466   5.483   6.743  0.6514  1.2626  3.2038
  131OSM    C4F14126   6.270   5.460   6.856  0.5768 -0.1348 -0.0692
  131OSM    H4F14127   6.332   5.403   6.928 -0.0711  0.3407  0.8629
  131OSM    H4G14128   6.222   5.385   6.789 -1.2526  0.4376  0.5960
  131OSM    C5F14129   6.162   5.542   6.912 -0.3527 -0.9261 -0.4269
  131OSM    H5F14130   6.084   5.565   6.836  0.1153 -1.9680 -1.2347
  131OSM    H5G14131   6.196   5.647   6.922 -1.4170 -0.7215  1.3415
  131OSM    C6F14132   6.098   5.488   7.047 -0.2574  0.4523 -0.6842
  131OSM    H6F14133   6.092   5.380   7.020  0.9372  0.2883 -0.3353
  131OSM    H6G14134   6.003   5.543   7.062 -0.2029  0.2618  0.4065
  131OSM    C7F14135   6.188   5.504   7.170 -0.1257 -0.0867  0.6704
  131OSM    H7F14136   6.172   5.604   7.217 -2.5123 -0.7894  1.4445
  131OSM    H7G14137   6.293   5.503   7.135  0.7944  1.7653  3.1429
  131OSM    C8F14138   6.165   5.401   7.285 -0.2971 -0.6102  0.4429
  131OSM    H8F14139   6.241   5.411   7.365 -1.0527  0.8693  0.9837
  131OSM    H8G14140   6.185   5.311   7.223  0.5633 -0.2079  0.1247
  131OSM    C9F14141   6.022   5.399   7.329  0.3843  0.3940 -0.2111
  131OSM    H9F14142   5.950   5.379   7.248  0.2250  0.8860 -0.1955
  131OSM   C10F14143   5.966   5.440   7.442 -0.8184 -0.2347  0.2478
  131OSM   H10F14144   5.857   5.428   7.454 -0.8774  0.0600  0.0062
  131OSM   C11F14145   6.036   5.487   7.567 -1.0177 -0.7053  0.3239
  131OSM   H11F14146   5.975   5.545   7.640  0.0951  2.3600 -1.0886
  131OSM   H11G14147   6.118   5.559   7.546 -0.6879 -1.3122 -0.5030
  131OSM   C12F14148   6.106   5.377   7.644  0.4636  0.2326 -0.0447
  131OSM   H12F14149   6.170   5.322   7.572 -1.1092 -3.3084  1.1521
  131OSM   H12G14150   6.040   5.301   7.690 -0.8898  1.6808  0.4287
  131OSM   C13F14151   6.202   5.424   7.759 -0.3550 -0.3332 -0.4128
  131OSM   H13F14152   6.221   5.533   7.751 -0.5493 -0.1514  1.4395
  131OSM   H13G14153   6.294   5.363   7.744 -0.1402  0.2714 -1.5813
  131OSM   C14F14154   6.155   5.384   7.900 -0.5398 -0.1922 -0.2254
  131OSM   H14F14155   6.233   5.406   7.977  1.2431 -1.8991 -1.4825
  131OSM   H14G14156   6.133   5.276   7.885  0.6990 -0.1330 -2.7286
  131OSM   C15F14157   6.041   5.466   7.952 -0.6841 -1.1679  0.0555
  131OSM   H15F14158   5.958   5.460   7.878  0.9391 -1.1080 -1.8016
  131OSM   H15G14159   6.057   5.576   7.945 -2.0405 -0.7805  2.4431
  131OSM   C16F14160   5.986   5.414   8.089 -0.9252  0.0987 -0.0970
  131OSM   H16F14161   5.972   5.305   8.070 -2.0521  0.0767  0.8312
  131OSM   H16G14162   5.890   5.464   8.113 -0.4189  0.5704  0.9601
  131OSM   C17F14163   6.083   5.453   8.202  0.2235 -0.0317  0.1534
  131OSM   H17F14164   6.107   5.561   8.190  0.3873 -0.1709 -0.7946
  131OSM   H17G14165   6.182   5.402   8.193  0.3981  0.5996 -1.7561
  131OSM   C18F14166   6.023   5.427   8.341  0.0636  0.0361 -0.7153
  131OSM   H18F14167   5.985   5.323   8.341 -2.5473  0.9465  0.8099
  131OSM   H18G14168   5.934   5.490   8.362 -0.7572 -1.7348  1.3479
  131OSM   H18H14169   6.093   5.440   8.427 -1.1591  1.0866  0.1527
  132OSM      N14170   1.694   2.974   6.044 -0.0071  0.6145 -0.4777
  132OSM    C1514171   1.804   3.067   6.008 -0.2011  0.2252  0.0096
  132OSM   H15A14172   1.893   3.041   6.063 -1.2208 -0.8959  1.1713
  132OSM   H15B14173   1.780   3.170   6.033 -2.5063 -0.3107  0.1726
  132OSM   H15C14174   1.818   3.062   5.901 -1.0168 -0.6869 -0.0599
  132OSM    C1414175   1.588   2.968   5.941  0.0243 -0.3904 -0.2156
  132OSM   H14A14176   1.610   2.903   5.857  0.4092  0.9655 -1.1813
  132OSM   H14B14177   1.556   3.062   5.900  2.2963  0.0802 -0.9604
  132OSM   H14C14178   1.503   2.926   5.994  1.2801 -0.9897  1.3755
  132OSM    C1314179   1.762   2.841   6.041  0.1144 -0.5832 -0.5803
  132OSM   H13A14180   1.695   2.756   6.038 -0.0070 -0.5023 -0.1007
  132OSM   H13B14181   1.843   2.816   6.107 -0.1995  1.0610  0.4680
  132OSM   H13C14182   1.809   2.833   5.944  1.5495  1.1463 -0.0497
  132OSM    C1214183   1.644   3.013   6.179  0.0050 -0.6528 -0.4541
  132OSM   H12A14184   1.588   3.106   6.178  2.7102  1.0419  1.0962
  132OSM   H12B14185   1.727   3.029   6.245  0.3044 -0.2207 -0.9278
  132OSM    C1114186   1.554   2.912   6.253 -0.4535 -0.0053 -0.3487
  132OSM   H11A14187   1.561   2.938   6.361  1.7077 -2.7051  0.2197
  132OSM   H11B14188   1.594   2.808   6.251 -1.8151 -0.6551  2.7503
  132OSM      P14189   1.314   3.022   6.241 -0.5417  0.2359  0.4020
  132OSM    O1314190   1.365   3.155   6.221  0.6306 -0.5445 -0.1429
  132OSM    O1414191   1.188   2.990   6.172 -0.3324  0.0831  0.1295
  132OSM    O1114192   1.303   2.982   6.392  0.2741 -0.2018  0.2901
  132OSM    O1214193   1.423   2.913   6.204 -0.0767 -0.3804 -0.5304
  132OSM    C1S14194   1.243   2.866   6.433 -0.3106  0.1479 -0.7777
  132OSM    H1S14195   1.230   2.787   6.356 -1.6276 -0.0336 -0.3758
  132OSM    H1T14196   1.138   2.883   6.466 -0.5146  1.3393 -2.0016
  132OSM     NF14197   1.263   2.658   6.570  0.6116  0.0372 -0.4345
  132OSM    HNF14198   1.201   2.649   6.648  1.8382 -1.6701  0.3904
  132OSM    C2S14199   1.317   2.798   6.550  0.1348 -0.7823  0.1693
  132OSM    H2S14200   1.427   2.792   6.531  0.5847  0.4464  2.2802
  132OSM    C3S14201   1.298   2.885   6.677 -0.1049 -0.6110 -0.4973
  132OSM    H3S14202   1.189   2.901   6.694  0.1225  1.6366 -1.0685
  132OSM     O314203   1.349   3.019   6.663  0.2648  0.4137  0.1509
  132OSM    HO314204   1.378   3.030   6.572 -1.3057  1.7586 -0.2104
  132OSM    C4S14205   1.360   2.819   6.802 -0.2762 -0.6322  0.6170
  132OSM    H4S14206   1.469   2.801   6.795 -0.2369  0.2455 -1.2943
  132OSM    C5S14207   1.289   2.786   6.911 -0.2721  0.2752  0.1332
  132OSM    H5S14208   1.179   2.793   6.919 -0.5681 -0.9524 -2.3999
  132OSM    C6S14209   1.359   2.708   7.018  0.0962  0.5453  0.4632
  132OSM    H6S14210   1.467   2.727   7.031 -0.2509  1.4852  2.1191
  132OSM    H6T14211   1.337   2.600   7.005 -0.2688  0.3660  2.4062
  132OSM    C7S14212   1.297   2.749   7.156  0.0636 -0.7468 -0.2234
  132OSM    H7S14213   1.188   2.731   7.147  0.0749 -1.0684  0.2765
  132OSM    H7T14214   1.308   2.859   7.173 -0.4920 -0.6844 -0.2782
  132OSM    C8S14215   1.362   2.669   7.274  0.6066 -0.0283  0.3360
  132OSM    H8S14216   1.472   2.684   7.268  0.4745  0.3419 -1.5132
  132OSM    H8T14217   1.345   2.561   7.256 -0.1390  0.0794  0.3910
  132OSM    C9S14218   1.322   2.711   7.413  0.2011  0.5325  0.5533
  132OSM    H9S14219   1.211   2.703   7.423  0.2318  1.3060  1.7306
  132OSM    H9T14220   1.353   2.817   7.421  1.5710  0.2753 -1.1937
  132OSM   C10S14221   1.380   2.629   7.526  0.2850 -0.5514 -0.0490
  132OSM   H10S14222   1.489   2.648   7.536  0.6697 -2.7572  0.1655
  132OSM   H10T14223   1.354   2.525   7.496  1.5646 -1.0990  0.6964
  132OSM   C11S14224   1.318   2.671   7.649 -0.2962  0.4086  0.3058
  132OSM   H11S14225   1.211   2.644   7.648 -0.4610  1.0797 -0.1841
  132OSM   H11T14226   1.319   2.781   7.659 -0.6528  0.5172 -0.8457
  132OSM   C12S14227   1.383   2.603   7.774 -0.0069 -0.1706 -0.9490
  132OSM   H12S14228   1.488   2.638   7.771 -0.6320  2.0919  1.4311
  132OSM   H12T14229   1.397   2.495   7.755 -0.3556 -0.4905  0.6084
  132OSM   C13S14230   1.314   2.634   7.907  0.4597  0.1180  0.1923
  132OSM   H13S14231   1.205   2.612   7.895  0.4734  0.3219 -0.3266
  132OSM   H13T14232   1.312   2.743   7.926  1.2157 -0.0078  0.9706
  132OSM   C14S14233   1.377   2.560   8.030 -0.1579  0.6898  0.3385
  132OSM   H14S14234   1.487   2.575   8.025 -0.1012 -0.2660 -2.0795
  132OSM   H14T14235   1.341   2.455   8.021 -1.6746  1.2905 -1.0335
  132OSM   C15S14236   1.325   2.616   8.166 -0.3669 -0.1663  0.1017
  132OSM   H15S14237   1.219   2.582   8.176  0.0911 -2.1043 -1.3684
  132OSM   H15T14238   1.332   2.726   8.157  0.0777  0.0567  2.8071
  132OSM   C16S14239   1.410   2.559   8.282 -0.0202  0.0503 -0.0047
  132OSM   H16S14240   1.512   2.601   8.295  0.0867 -0.9261  2.6344
  132OSM   H16T14241   1.434   2.456   8.248 -0.3454 -0.1495  0.3659
  132OSM   C17S14242   1.329   2.553   8.408 -0.1727  1.0113  1.7037
  132OSM   H17S14243   1.233   2.506   8.378  0.8905  0.9715 -1.8716
  132OSM   H17T14244   1.310   2.658   8.439  1.2342  1.4518  1.1339
  132OSM   C18S14245   1.386   2.479   8.528  0.1137 -0.0786 -0.7921
  132OSM   H18S14246   1.404   2.371   8.506 -1.9585 -0.7039  0.4392
  132OSM   H18T14247   1.315   2.480   8.613 -0.0996  0.8761 -0.9764
  132OSM   H18U14248   1.486   2.520   8.551 -0.3205  0.3992  0.2827
  132OSM    C1F14249   1.281   2.549   6.498 -0.4960  0.1471  0.1823
  132OSM     OF14250   1.353   2.555   6.401 -0.0568  0.1755  0.2815
  132OSM    C2F14251   1.210   2.424   6.533  0.0210  0.0997  0.4960
  132OSM    H2F14252   1.109   2.427   6.488 -0.6454  0.6134  1.9842
  132OSM    H2G14253   1.182   2.425   6.641 -1.1630 -2.2686  0.2323
  132OSM    C3F14254   1.304   2.300   6.515  0.7237 -0.4607  0.1774
  132OSM    H3F14255   1.332   2.288   6.408  0.9542 -1.0673  0.3043
  132OSM    H3G14256   1.260   2.204   6.552 -0.6800  0.2130  0.2994
  132OSM    C4F14257   1.424   2.317   6.603  0.2189  0.3010 -0.3724
  132OSM    H4F14258   1.397   2.343   6.707 -2.8407 -1.2112 -0.7504
  132OSM    H4G14259   1.481   2.402   6.559  1.2079 -0.0428  0.2338
  132OSM    C5F14260   1.510   2.189   6.602  0.1959  0.4755  0.1733
  132OSM    H5F14261   1.584   2.207   6.522  0.2641  1.3607  0.4348
  132OSM    H5G14262   1.454   2.101   6.564 -0.3805  0.7621  0.3522
  132OSM    C6F14263   1.576   2.154   6.732 -0.1359  0.2491  0.4321
  132OSM    H6F14264   1.638   2.242   6.760  0.0040  0.6881 -1.2158
  132OSM    H6G14265   1.648   2.071   6.717  1.8946  2.2028 -0.9374
  132OSM    C7F14266   1.474   2.123   6.844 -0.2506 -0.3215  0.3401
  132OSM    H7F14267   1.400   2.206   6.847  0.3782  0.2314  0.9495
  132OSM    H7G14268   1.532   2.121   6.939 -0.9686  2.6583  0.8993
  132OSM    C8F14269   1.395   1.989   6.828  0.5197 -0.0797  0.0448
  132OSM    H8F14270   1.323   2.015   6.747 -0.0993 -1.0975  0.2627
  132OSM    H8G14271   1.328   1.971   6.915 -0.8931  1.2313 -0.7464
  132OSM    C9F14272   1.471   1.863   6.797  0.2364 -0.4799  0.4191
  132OSM    H9F14273   1.516   1.864   6.696  2.2424  1.1047  1.2735
  132OSM   C10F14274   1.483   1.757   6.876  0.7796 -0.3468  0.7018
  132OSM   H10F14275   1.544   1.675   6.836  0.3145  0.4943 -1.7842
  132OSM   C11F14276   1.424   1.738   7.015 -0.1006  0.0209 -0.8903
  132OSM   H11F14277   1.376   1.638   7.028  0.4142 -0.3446 -1.7498
  132OSM   H11G14278   1.347   1.816   7.033 -1.0282 -1.3950  1.5678
  132OSM   C12F14279   1.523   1.787   7.124 -0.4272 -0.3958  0.3934
  132OSM   H12F14280   1.571   1.881   7.089 -0.1769 -1.3684 -1.9637
  132OSM   H12G14281   1.602   1.712   7.144 -0.6743 -1.0587 -1.0275
  132OSM   C13F14282   1.462   1.791   7.256  0.2650 -0.3379  0.4653
  132OSM   H13F14283   1.359   1.831   7.248 -0.3645 -1.8732  0.5959
  132OSM   H13G14284   1.523   1.850   7.328 -0.9082  1.4940  0.0016
  132OSM   C14F14285   1.435   1.646   7.317  1.0745 -0.5991 -0.8238
  132OSM   H14F14286   1.531   1.590   7.310  0.1445 -2.7213  2.2518
  132OSM   H14G14287   1.356   1.602   7.252 -0.6804 -0.3478  1.0870
  132OSM   C15F14288   1.385   1.638   7.462 -0.5457 -0.5238 -0.5007
  132OSM   H15F14289   1.458   1.695   7.525  0.1111 -0.8408 -0.9632
  132OSM   H15G14290   1.384   1.534   7.501 -2.1068 -0.1522  0.4621
  132OSM   C16F14291   1.239   1.703   7.475 -0.6172  0.0322  0.6342
  132OSM   H16F14292   1.179   1.684   7.384 -1.2821 -1.6562  1.4002
  132OSM   H16G14293   1.262   1.812   7.479 -0.8311  0.1727 -1.4102
  132OSM   C17F14294   1.159   1.643   7.590  0.1922 -0.3419  0.0669
  132OSM   H17F14295   1.128   1.543   7.552 -0.6441  0.7998 -2.3751
  132OSM   H17G14296   1.070   1.708   7.603 -0.7621 -1.9401  1.6573
  132OSM   C18F14297   1.222   1.649   7.732  0.0388 -0.3224 -0.2253
  132OSM   H18F14298   1.143   1.625   7.806  0.1593  0.3341  0.1241
  132OSM   H18G14299   1.260   1.752   7.746  2.6537 -1.4008  0.9594
  132OSM   H18H14300   1.304   1.574   7.742  1.4400  1.2046 -0.0466
  133SAPE     N14301   3.808   0.786  10.855 -0.0214  0.1961 -0.0236
  133SAPE   HN114302   3.800   0.883  10.817 -0.5059 -0.0131 -0.4678
  133SAPE   HN214303   3.721   0.736  10.828 -1.5886  2.2834  0.9931
  133SAPE   HN314304   3.803   0.795  10.958  1.0560  1.7336 -0.0836
  133SAPE   C1214305   3.933   0.708  10.822  0.5855  0.4777 -0.5925
  133SAPE  H12A14306   4.002   0.720  10.908  0.3144 -1.8028 -0.0161
  133SAPE  H12B14307   3.960   0.748  10.722  0.1480 -1.5921 -1.5753
  133SAPE   C1114308   3.909   0.551  10.793  0.6048  0.6445 -0.0533
  133SAPE  H11A14309   3.922   0.510  10.895 -1.4951  1.5805  0.6338
  133SAPE  H11B14310   3.999   0.519  10.736  1.5840  1.3117  1.1048
  133SAPE     P14311   3.731   0.376  10.718  0.0897  0.4170 -0.3454
  133SAPE   O1314312   3.817   0.285  10.801  0.1732 -0.0996  0.2851
  133SAPE   O1414313   3.582   0.373  10.739 -0.2692 -0.8262  0.1068
  133SAPE   O1214314   3.777   0.524  10.741 -0.2141 -0.3851  0.5286
  133SAPE   O1114315   3.763   0.342  10.558 -0.0734 -0.7275  0.1385
  133SAPE    C114316   3.801   0.450  10.476  0.5725 -0.0120  0.3464
  133SAPE    HA14317   3.734   0.538  10.475  0.7823  0.1455 -0.8341
  133SAPE    HB14318   3.901   0.470  10.520  2.1558 -2.0858 -2.1094
  133SAPE    C214319   3.820   0.413  10.326  0.9536 -0.1323 -0.4473
  133SAPE    HS14320   3.905   0.470  10.282  2.0893 -1.5309 -0.1054
  133SAPE   O2114321   3.693   0.425  10.254 -0.5148  0.9728  0.1482
  133SAPE   C2114322   3.660   0.538  10.185 -0.2866 -0.2300 -0.3524
  133SAPE   O2214323   3.741   0.628  10.158  0.5134  0.3143 -0.5962
  133SAPE   C2214324   3.510   0.542  10.151 -0.7365 -0.0840  0.5049
  133SAPE   H2R14325   3.485   0.465  10.075  0.5738  1.9174 -1.9912
  133SAPE   H2S14326   3.457   0.507  10.243 -1.1471  0.3985  0.4503
  133SAPE    C314327   3.846   0.260  10.314 -0.4859 -0.2704  0.5796
  133SAPE    HX14328   3.746   0.217  10.338 -1.1171  1.3681  0.9676
  133SAPE    HY14329   3.922   0.242  10.393  1.1538 -0.8685 -1.1083
  133SAPE   O3114330   3.891   0.233  10.180  0.1571 -0.1918  0.0141
  133SAPE   C3114331   3.919   0.104  10.153 -0.1106 -0.0340 -0.9067
  133SAPE   O3214332   3.911   0.014  10.234 -0.7058 -0.0018 -0.7661
  133SAPE   C3214333   3.970   0.088  10.015  0.2595 -0.1164 -0.0604
  133SAPE   H2X14334   4.062   0.150  10.010  0.6518 -0.8077 -1.8015
  133SAPE   H2Y14335   3.897   0.137   9.947  0.5401  1.2917  0.6230
  133SAPE   C2314336   3.454   0.680  10.106  0.2646  0.1651 -0.4366
  133SAPE   H3R14337   3.528   0.762  10.119  0.6939 -0.2732 -0.0561
  133SAPE   H3S14338   3.363   0.701  10.166  1.2856  0.2088  1.1535
  133SAPE   C2414339   3.406   0.680   9.956  0.5195 -0.3224 -0.3910
  133SAPE   H4R14340   3.390   0.787   9.931  0.6119 -0.2324 -0.0711
  133SAPE   H4S14341   3.308   0.629   9.952  1.1924 -1.9086  2.0552
  133SAPE   C2514342   3.512   0.632   9.868  0.2329  0.0498 -0.5705
  133SAPE   H5R14343   3.611   0.619   9.914  0.3172 -0.4137 -0.8746
  133SAPE   C2614344   3.497   0.608   9.736 -0.2322  0.0491  0.6713
  133SAPE   H6R14345   3.587   0.589   9.676 -0.2034  3.5826 -0.5236
  133SAPE   C2714346   3.375   0.627   9.653 -0.3561 -0.0541  0.0751
  133SAPE   H7R14347   3.291   0.677   9.705  0.4090  0.5253  0.7692
  133SAPE   H7S14348   3.334   0.526   9.634  0.1241 -0.4079  0.9117
  133SAPE   C2814349   3.409   0.689   9.519  0.7458 -0.5128 -0.4164
  133SAPE   H8R14350   3.486   0.768   9.528 -0.6994  1.2239 -2.8409
  133SAPE   C2914351   3.360   0.652   9.400  0.3058  0.2177  0.7368
  133SAPE   H9R14352   3.401   0.688   9.304  0.6628  0.1041  0.8445
  133SAPE  C21014353   3.261   0.538   9.365  0.2660 -0.6486 -0.0878
  133SAPE  H10R14354   3.206   0.501   9.454  0.1350 -1.8953 -0.6661
  133SAPE  H10S14355   3.312   0.441   9.348  0.7869 -0.6285  1.3188
  133SAPE  C21114356   3.176   0.568   9.249 -0.2317  0.6642 -0.5194
  133SAPE  H11R14357   3.073   0.599   9.268 -0.7929 -1.3321 -0.2586
  133SAPE  C21214358   3.221   0.566   9.125 -0.0550  0.2444 -0.5803
  133SAPE  H12R14359   3.144   0.588   9.050  1.8399 -1.5641 -3.1767
  133SAPE  C21314360   3.355   0.512   9.073 -0.4717  0.0778 -0.1883
  133SAPE  H13R14361   3.342   0.404   9.053 -0.8555 -0.0905  0.9157
  133SAPE  H13S14362   3.433   0.506   9.152  1.5214 -1.1996 -2.2202
  133SAPE  C21414363   3.413   0.599   8.961 -0.2081 -0.0720  0.3899
  133SAPE  H14R14364   3.484   0.675   8.996  0.2582 -1.2451  2.0847
  133SAPE  C21514365   3.371   0.602   8.835  0.1571  0.5144  0.5181
  133SAPE  H15R14366   3.422   0.665   8.761 -1.2899 -0.2580 -1.1853
  133SAPE  C21614367   3.257   0.526   8.771  0.6409 -0.3074  0.0208
  133SAPE  H16R14368   3.208   0.453   8.838 -1.5295  0.9163 -0.2005
  133SAPE  H16S14369   3.307   0.470   8.688 -0.6945  0.4247 -1.3084
  133SAPE  C21714370   3.142   0.622   8.728  0.5283 -0.0667  0.3098
  133SAPE  H17R14371   3.192   0.708   8.678  2.1602 -0.4093  1.3243
  133SAPE  H17S14372   3.086   0.660   8.816 -1.5031 -3.2726  0.5180
  133SAPE  C21814373   3.039   0.564   8.636 -0.1922 -0.1182 -0.0654
  133SAPE  H18R14374   2.955   0.636   8.631  1.6424  1.9605 -2.1299
  133SAPE  H18S14375   3.003   0.469   8.683 -0.8056  0.9763  1.7513
  133SAPE  C21914376   3.103   0.526   8.500 -0.1816  0.1621  0.1275
  133SAPE  H19R14377   3.025   0.470   8.443  0.0718 -1.4782  1.3498
  133SAPE  H19S14378   3.187   0.453   8.506 -0.0129  0.3625  0.2060
  133SAPE  C22014379   3.148   0.650   8.426 -0.7663 -0.0622  1.2922
  133SAPE  H20R14380   3.090   0.738   8.461  0.0391  0.6595  0.8062
  133SAPE  H20S14381   3.146   0.634   8.317 -0.8032 -0.3038  1.3279
  133SAPE  H20T14382   3.253   0.677   8.449 -0.5363 -0.0110  0.1860
  133SAPE   C3314383   3.994  -0.063   9.979 -0.6522 -0.1528  0.1692
  133SAPE   H3X14384   3.904  -0.129   9.984 -0.3631 -0.4166  1.9770
  133SAPE   H3Y14385   4.052  -0.105  10.063  2.6043  1.6716 -1.0975
  133SAPE   C3414386   4.062  -0.077   9.842 -0.6102  0.0161  0.0867
  133SAPE   H4X14387   4.085  -0.185   9.828  0.7283  0.4547 -1.2385
  133SAPE   H4Y14388   4.163  -0.035   9.828 -0.1561 -0.7658  0.9658
  133SAPE   C3514389   3.973  -0.021   9.723  0.5011 -0.0082  0.5659
  133SAPE   H5X14390   3.970   0.090   9.716 -0.3417 -0.1742 -2.1544
  133SAPE   H5Y14391   3.872  -0.066   9.726 -0.2065  1.3713 -1.8468
  133SAPE   C3614392   4.039  -0.067   9.591 -0.0817  0.4015  0.5467
  133SAPE   H6X14393   4.050  -0.178   9.594  3.0433  0.7034  3.4640
  133SAPE   H6Y14394   4.141  -0.023   9.593 -0.2395  0.9346 -1.9045
  133SAPE   C3714395   3.976  -0.029   9.462  0.2581  0.0692 -0.3425
  133SAPE   H7X14396   3.979   0.082   9.450 -0.0005  0.1256  0.0907
  133SAPE   H7Y14397   3.867  -0.048   9.474  0.7926 -1.0295  3.8320
  133SAPE   C3814398   4.048  -0.088   9.344  0.1094  0.0450 -0.6050
  133SAPE   H8X14399   4.052  -0.199   9.351 -2.1309  0.0417  1.4432
  133SAPE   H8Y14400   4.151  -0.049   9.351 -0.9309  2.4950  2.6827
  133SAPE   C3914401   3.982  -0.046   9.219 -0.7201  0.1030  0.1530
  133SAPE   H9X14402   3.944   0.057   9.239 -0.0269  0.6609 -1.3236
  133SAPE   H9Y14403   3.893  -0.107   9.192  1.1210 -3.1077  1.1206
  133SAPE  C31014404   4.073  -0.052   9.102 -0.6973 -0.9723 -0.7057
  133SAPE  H10X14405   4.112  -0.153   9.078  3.3023  0.0575  1.0309
  133SAPE  H10Y14406   4.154   0.022   9.117 -1.6751 -0.2287  1.0487
  133SAPE  C31114407   4.014  -0.003   8.973  0.2093  0.1603 -0.4831
  133SAPE  H11X14408   4.092   0.006   8.895  0.6101 -0.1521 -0.1166
  133SAPE  H11Y14409   3.961   0.093   8.995  1.3223  1.1033 -1.8361
  133SAPE  C31214410   3.908  -0.095   8.922 -0.1363 -0.5642  0.3307
  133SAPE  H12X14411   3.823  -0.098   8.992 -0.1549  0.9810  0.3850
  133SAPE  H12Y14412   3.954  -0.197   8.923 -0.3923 -0.7806 -3.3853
  133SAPE  C31314413   3.856  -0.074   8.787 -0.4647  0.1807 -0.4208
  133SAPE  H13X14414   3.827   0.032   8.770  2.4002  1.0695 -0.0340
  133SAPE  H13Y14415   3.774  -0.148   8.773  0.7298 -1.0400 -1.0534
  133SAPE  C31414416   3.964  -0.110   8.687  0.4137  0.2953  0.0939
  133SAPE  H14X14417   4.023  -0.200   8.715 -2.0242 -0.7793  2.0182
  133SAPE  H14Y14418   4.045  -0.035   8.683  1.9751 -1.3366  0.5461
  133SAPE  C31514419   3.903  -0.124   8.542  0.0967 -0.3951 -0.5003
  133SAPE  H15X14420   3.990  -0.163   8.485  1.6199  1.2010  0.6740
  133SAPE  H15Y14421   3.884  -0.020   8.511 -1.2308 -0.0458  1.3932
  133SAPE  C31614422   3.781  -0.213   8.518  0.0840 -0.0008 -1.2285
  133SAPE  H16X14423   3.685  -0.167   8.549  1.4143  0.1406  2.9744
  133SAPE  H16Y14424   3.813  -0.302   8.576  1.1599  0.6581 -0.7873
  133SAPE  C31714425   3.763  -0.265   8.374 -0.2565 -0.0565  0.1679
  133SAPE  H17X14426   3.681  -0.340   8.381  0.4100 -0.6330  2.0317
  133SAPE  H17Y14427   3.856  -0.317   8.342  1.1623  2.4084  0.1172
  133SAPE  C31814428   3.726  -0.161   8.267  0.2787 -0.3917 -0.5543
  133SAPE  H18X14429   3.634  -0.108   8.298  1.4761  0.2800  1.9802
  133SAPE  H18Y14430   3.716  -0.216   8.171  0.8561  0.5542 -1.1600
  133SAPE  H18Z14431   3.814  -0.093   8.264 -0.1252  0.1613  0.1071
  134SAPE     N14432   5.915   1.295  10.924  0.0075  0.8911 -0.0057
  134SAPE   HN114433   5.925   1.393  10.955  0.5446 -0.3299  3.9743
  134SAPE   HN214434   5.814   1.270  10.921  0.0405  0.8450 -0.9937
  134SAPE   HN314435   5.974   1.239  10.989  0.2810 -1.8124 -2.4647
  134SAPE   C1214436   5.964   1.291  10.782 -0.2495  0.1037 -0.3866
  134SAPE  H12A14437   5.913   1.371  10.724 -0.9191  0.4175  0.6018
  134SAPE  H12B14438   5.928   1.195  10.741 -2.2143  1.1679 -1.2182
  134SAPE   C1114439   6.116   1.321  10.780 -0.1288 -0.4782  0.3098
  134SAPE  H11A14440   6.133   1.426  10.813  4.0853 -1.1328  0.4922
  134SAPE  H11B14441   6.145   1.320  10.673  0.5474 -2.3386  0.4969
  134SAPE     P14442   6.243   1.085  10.800  0.0295 -0.5925  0.1685
  134SAPE   O1314443   6.326   1.022  10.903  0.6478 -0.1833 -0.0786
  134SAPE   O1414444   6.116   1.017  10.777 -0.0492 -0.2418  0.6676
  134SAPE   O1214445   6.197   1.228  10.848 -0.0423  0.0503  0.4696
  134SAPE   O1114446   6.333   1.110  10.670 -0.4056 -0.0119  0.0567
  134SAPE    C114447   6.423   1.226  10.672 -0.2956  0.0868 -0.2651
  134SAPE    HA14448   6.366   1.309  10.625 -0.7713 -0.3478 -0.4659
  134SAPE    HB14449   6.438   1.261  10.776 -1.4565  2.0699 -0.7349
  134SAPE    C214450   6.559   1.194  10.602  0.4462 -0.8495 -0.0160
  134SAPE    HS14451   6.626   1.281  10.618 -1.7400  1.0790 -1.0203
  134SAPE   O2114452   6.541   1.151  10.462  0.2574  0.0336 -0.2163
  134SAPE   C2114453   6.592   1.240  10.380  0.0138 -0.2282 -0.9794
  134SAPE   O2214454   6.652   1.340  10.414  0.0372 -0.2001  0.2394
  134SAPE   C2214455   6.566   1.193  10.229 -0.3807  0.1192 -0.3734
  134SAPE   H2R14456   6.561   1.285  10.167 -2.7508  0.5593  0.4320
  134SAPE   H2S14457   6.659   1.138  10.202 -0.4258 -0.9537  1.6034
  134SAPE    C314458   6.630   1.074  10.680  0.7885 -1.0506  0.0049
  134SAPE    HX14459   6.554   0.993  10.687 -0.1211 -0.2193 -0.0955
  134SAPE    HY14460   6.651   1.104  10.785  0.8552  0.0706 -0.3285
  134SAPE   O3114461   6.753   1.032  10.612  0.3600  0.2578 -0.7062
  134SAPE   C3114462   6.745   0.929  10.527 -0.4148 -0.4579  0.6760
  134SAPE   O3214463   6.644   0.870  10.501  0.5784  0.2486  0.0787
  134SAPE   C3214464   6.879   0.898  10.456 -0.3097 -0.0234  0.0847
  134SAPE   H2X14465   6.958   0.877  10.530  0.3989  5.1898  0.9752
  134SAPE   H2Y14466   6.908   0.995  10.409 -3.3207  0.1167 -1.6008
  134SAPE   C2314467   6.436   1.105  10.213 -0.9315  0.4582 -0.7095
  134SAPE   H3R14468   6.353   1.176  10.232 -2.7774 -2.0040  0.7415
  134SAPE   H3S14469   6.438   1.034  10.299 -0.7554  1.5006  0.1525
  134SAPE   C2414470   6.420   1.025  10.077 -0.3566  0.4736 -0.7583
  134SAPE   H4R14471   6.340   0.950  10.089  0.1253 -0.1194 -1.2356
  134SAPE   H4S14472   6.518   0.981  10.048 -0.3788 -1.1741  1.5743
  134SAPE   C2514473   6.365   1.110   9.968 -0.2537  0.2678 -0.3746
  134SAPE   H5R14474   6.281   1.173  10.002  0.1579  0.7163 -0.1967
  134SAPE   C2614475   6.408   1.125   9.839  0.6045  0.5095  0.1431
  134SAPE   H6R14476   6.341   1.189   9.779  1.0912 -0.9668 -2.0464
  134SAPE   C2714477   6.525   1.063   9.762  0.0133 -0.4410 -0.1449
  134SAPE   H7R14478   6.592   0.994   9.818  0.0813 -0.5081 -0.3080
  134SAPE   H7S14479   6.574   1.150   9.713 -0.4013 -0.4055 -0.4993
  134SAPE   C2814480   6.459   0.980   9.647  0.0076  0.0710  0.5633
  134SAPE   H8R14481   6.444   0.876   9.679  0.5644 -0.4147 -0.7511
  134SAPE   C2914482   6.441   1.002   9.514  0.0979 -0.6033 -0.1171
  134SAPE   H9R14483   6.392   0.931   9.445  0.9559 -1.8399  0.5225
  134SAPE  C21014484   6.483   1.135   9.455  0.4529  0.4778 -0.6964
  134SAPE  H10R14485   6.571   1.179   9.506  0.4005 -1.6102  1.2804
  134SAPE  H10S14486   6.407   1.213   9.477  1.0001  0.6703  0.5231
  134SAPE  C21114487   6.505   1.132   9.311 -0.4662 -0.2732 -0.1029
  134SAPE  H11R14488   6.586   1.068   9.274 -0.9630 -0.5296 -0.7602
  134SAPE  C21214489   6.425   1.199   9.215 -0.2277  0.2398  0.3057
  134SAPE  H12R14490   6.445   1.183   9.108 -0.5476 -0.0809  0.2918
  134SAPE  C21314491   6.297   1.274   9.235  0.1999 -0.1600 -0.3716
  134SAPE  H13R14492   6.321   1.380   9.255 -0.5173 -0.0069 -0.3202
  134SAPE  H13S14493   6.245   1.250   9.330  0.8601  0.4339  0.1474
  134SAPE  C21414494   6.203   1.260   9.116  0.4075  0.3609 -0.3362
  134SAPE  H14R14495   6.157   1.161   9.104 -2.1596  1.3190  1.2453
  134SAPE  C21514496   6.182   1.354   9.022  0.5507 -0.6170 -0.0496
  134SAPE  H15R14497   6.124   1.327   8.933 -0.0980  1.8501 -0.3833
  134SAPE  C21614498   6.247   1.498   9.019  0.2496  0.0113 -0.4760
  134SAPE  H16R14499   6.332   1.513   9.089  1.5156  0.4187 -2.0668
  134SAPE  H16S14500   6.163   1.565   9.046 -2.0664 -3.4396  1.3229
  134SAPE  C21714501   6.294   1.526   8.874  0.5104  0.2198  0.1604
  134SAPE  H17R14502   6.361   1.442   8.843 -1.2969 -0.7617 -1.2462
  134SAPE  H17S14503   6.354   1.619   8.877 -1.4886  1.5453 -0.3071
  134SAPE  C21814504   6.177   1.545   8.780  0.0797 -0.3490  1.3578
  134SAPE  H18R14505   6.127   1.642   8.798 -0.4349 -0.1576 -1.0038
  134SAPE  H18S14506   6.107   1.459   8.772 -2.2407  1.4097  2.3480
  134SAPE  C21914507   6.237   1.561   8.636 -0.2483  0.3929  0.1103
  134SAPE  H19R14508   6.327   1.627   8.642 -0.2360  0.1234  3.9398
  134SAPE  H19S14509   6.165   1.609   8.567 -1.6459  0.5589  1.6792
  134SAPE  C22014510   6.281   1.429   8.577 -0.6741  0.5493 -0.6022
  134SAPE  H20R14511   6.337   1.436   8.482  1.0978 -0.2788  0.3487
  134SAPE  H20S14512   6.189   1.371   8.554 -1.9681  1.0848  2.8468
  134SAPE  H20T14513   6.346   1.361   8.638  2.2389  0.7615 -3.3634
  134SAPE   C3314514   6.871   0.786  10.349 -0.0253 -0.1783  0.0924
  134SAPE   H3X14515   6.808   0.707  10.395  0.8309 -0.0940  1.4118
  134SAPE   H3Y14516   6.968   0.749  10.309 -0.7559  0.0143 -1.9089
  134SAPE   C3414517   6.787   0.833  10.224 -0.0328  0.1954  0.0554
  134SAPE   H4X14518   6.831   0.930  10.193  0.2148  0.0741  0.0206
  134SAPE   H4Y14519   6.679   0.843  10.246  0.1155  0.1552  0.8040
  134SAPE   C3514520   6.793   0.739  10.103 -0.2646  0.3661 -0.9037
  134SAPE   H5X14521   6.711   0.666  10.119 -0.2283  0.2531 -1.2269
  134SAPE   H5Y14522   6.889   0.684  10.111 -1.9684 -2.6322 -0.3299
  134SAPE   C3614523   6.769   0.811   9.968  0.4190  0.1244  0.3516
  134SAPE   H6X14524   6.860   0.874   9.959  1.2481 -1.0217  0.5240
  134SAPE   H6Y14525   6.687   0.884   9.984  2.7769  2.6668  1.2173
  134SAPE   C3714526   6.763   0.722   9.837 -0.0588  0.8897 -0.2832
  134SAPE   H7X14527   6.659   0.692   9.810 -0.3951  3.8753 -2.5003
  134SAPE   H7Y14528   6.817   0.631   9.869 -1.5633  0.2375  0.4749
  134SAPE   C3814529   6.814   0.788   9.714  0.2069 -0.1242 -0.2019
  134SAPE   H8X14530   6.902   0.853   9.736 -0.5760  0.4396  1.2591
  134SAPE   H8Y14531   6.738   0.861   9.679 -0.0026  0.5022  1.5124
  134SAPE   C3914532   6.840   0.697   9.596  0.2196 -0.3887  0.6493
  134SAPE   H9X14533   6.751   0.636   9.571  0.8755 -1.2916  0.4817
  134SAPE   H9Y14534   6.927   0.632   9.619  1.6766  2.1463  2.5653
  134SAPE  C31014535   6.877   0.778   9.469  0.4347  0.1670  0.7208
  134SAPE  H10X14536   6.968   0.835   9.498  0.7308  0.4433 -0.6903
  134SAPE  H10Y14537   6.794   0.847   9.443  0.4786 -1.0169 -2.8177
  134SAPE  C31114538   6.912   0.684   9.354  0.2946  0.1428  0.2796
  134SAPE  H11X14539   6.822   0.622   9.334 -0.6922  1.8406 -0.6184
  134SAPE  H11Y14540   6.993   0.614   9.386  0.3621  0.0916 -0.0035
  134SAPE  C31214541   6.941   0.765   9.224  0.3010 -0.4178  0.1904
  134SAPE  H12X14542   7.036   0.815   9.253  1.0010 -1.4541 -0.3061
  134SAPE  H12Y14543   6.850   0.826   9.205  1.2740  0.1280 -2.9096
  134SAPE  C31314544   6.956   0.680   9.104  0.0816 -0.2758  0.5266
  134SAPE  H13X14545   6.876   0.602   9.105  0.5437 -0.9105 -3.5106
  134SAPE  H13Y14546   7.047   0.617   9.114  1.1561  0.5185 -3.4139
  134SAPE  C31414547   6.988   0.760   8.980 -0.3978  0.2828  0.3356
  134SAPE  H14X14548   7.074   0.825   9.003 -1.5857  1.6190  1.0736
  134SAPE  H14Y14549   6.905   0.827   8.947 -1.3545 -0.9215  0.2507
  134SAPE  C31514550   7.037   0.665   8.864 -0.1777  0.2157 -0.7308
  134SAPE  H15X14551   6.959   0.587   8.852 -1.6352  1.2192  1.9077
  134SAPE  H15Y14552   7.123   0.602   8.897 -0.4980 -0.7361 -1.6705
  134SAPE  C31614553   7.055   0.724   8.727 -0.3808  0.0300 -0.3027
  134SAPE  H16X14554   7.145   0.789   8.721 -0.9236  0.7482 -0.6557
  134SAPE  H16Y14555   6.973   0.794   8.699  1.5713  1.9334 -1.3910
  134SAPE  C31714556   7.047   0.618   8.614  0.2535  0.8371  0.2785
  134SAPE  H17X14557   6.942   0.586   8.604 -0.2725  2.9256 -1.2828
  134SAPE  H17Y14558   7.105   0.527   8.642 -0.2899 -0.4028 -2.4653
  134SAPE  C31814559   7.096   0.658   8.474  0.0996  0.2769 -0.0420
  134SAPE  H18X14560   7.196   0.706   8.482  1.0764 -1.6900 -0.1581
  134SAPE  H18Y14561   7.027   0.735   8.435 -0.0021 -0.2295 -0.8776
  134SAPE  H18Z14562   7.084   0.568   8.410  0.5020 -1.0679  1.7244
  135SAPE     N14563   5.691   5.694  10.932 -0.1174  0.3488  0.0073
  135SAPE   HN114564   5.770   5.627  10.946  0.0386  0.9497  2.1122
  135SAPE   HN214565   5.614   5.661  10.993  0.5830  0.9933  1.2581
  135SAPE   HN314566   5.660   5.676  10.834 -2.5242  1.3898  0.5408
  135SAPE   C1214567   5.741   5.825  10.947  0.1297  0.1684  0.0145
  135SAPE  H12A14568   5.788   5.847  11.046 -2.4722  1.7472  0.9563
  135SAPE  H12B14569   5.662   5.901  10.933 -3.1967 -3.2829 -0.7980
  135SAPE   C1114570   5.845   5.851  10.840 -0.3336 -1.1533  0.3782
  135SAPE  H11A14571   5.882   5.954  10.856  3.0093 -1.8221 -2.3195
  135SAPE  H11B14572   5.800   5.854  10.739  1.3468  1.3169 -0.3408
  135SAPE     P14573   6.050   5.745  10.732  0.1749  0.4568 -0.0720
  135SAPE   O1314574   6.078   5.871  10.663  0.0778  0.2497  0.2222
  135SAPE   O1414575   6.161   5.651  10.758 -0.3483  0.0808  0.1000
  135SAPE   O1214576   5.960   5.765  10.860 -0.3699  0.0066  0.1785
  135SAPE   O1114577   5.948   5.678  10.631  0.6039  0.0798  0.2649
  135SAPE    C114578   5.987   5.581  10.534 -0.6970  0.8725  0.2527
  135SAPE    HA14579   6.091   5.598  10.498 -0.9916  0.9395 -0.5652
  135SAPE    HB14580   5.983   5.481  10.584  0.4860  0.1991 -0.9571
  135SAPE    C214581   5.898   5.577  10.411  0.2828  0.3259 -0.1270
  135SAPE    HS14582   5.916   5.481  10.357 -0.4226 -0.4291  0.9667
  135SAPE   O2114583   5.926   5.696  10.325  0.3258  0.2066  0.6153
  135SAPE   C2114584   6.019   5.671  10.232 -0.6635 -0.8776  0.5313
  135SAPE   O2214585   6.093   5.580  10.233  0.2909  0.5105  0.1480
  135SAPE   C2214586   6.032   5.783  10.141 -0.3770 -0.6669  0.9689
  135SAPE   H2R14587   5.963   5.865  10.170 -1.6024 -1.4360  0.2532
  135SAPE   H2S14588   6.130   5.835  10.148  1.5625 -4.0864  0.0454
  135SAPE    C314589   5.745   5.556  10.444  0.8979 -0.3302  0.0186
  135SAPE    HX14590   5.718   5.619  10.531 -0.1755 -2.3080  1.1453
  135SAPE    HY14591   5.745   5.449  10.474  0.2363 -0.6572 -1.1160
  135SAPE   O3114592   5.668   5.575  10.327 -0.0655  0.7670 -0.0815
  135SAPE   C3114593   5.574   5.656  10.330  0.3812  0.1110  0.2973
  135SAPE   O3214594   5.546   5.734  10.424  0.4387 -0.2405  0.1350
  135SAPE   C3214595   5.488   5.654  10.205 -0.3287 -0.0305 -0.3894
  135SAPE   H2X14596   5.454   5.548  10.195 -1.3718  0.4121 -1.5537
  135SAPE   H2Y14597   5.556   5.664  10.118  1.6850 -0.0943  1.1295
  135SAPE   C2314598   6.009   5.745   9.997  0.2441  0.2751  0.7243
  135SAPE   H3R14599   6.054   5.648   9.971  0.0393 -0.3139  2.4860
  135SAPE   H3S14600   6.031   5.831   9.930 -2.9049 -0.1184 -0.8965
  135SAPE   C2414601   5.855   5.717   9.986 -0.3356 -0.1635  0.1648
  135SAPE   H4R14602   5.830   5.646  10.068  2.8808 -0.6555  0.7715
  135SAPE   H4S14603   5.859   5.656   9.894  1.0241  1.3444 -0.7961
  135SAPE   C2514604   5.759   5.835   9.979 -0.3034  0.1208 -0.8656
  135SAPE   H5R14605   5.770   5.891  10.074  0.2272 -2.0774  0.3986
  135SAPE   C2614606   5.676   5.883   9.883  0.3532  0.2519  0.0399
  135SAPE   H6R14607   5.613   5.968   9.915  1.2450  0.9635 -0.0598
  135SAPE   C2714608   5.644   5.822   9.750  0.5332  0.7540 -0.1409
  135SAPE   H7R14609   5.551   5.762   9.750  1.5979 -1.0220 -3.1163
  135SAPE   H7S14610   5.716   5.739   9.731  0.5905  0.8609 -0.3921
  135SAPE   C2814611   5.644   5.921   9.634 -0.9724 -0.1528 -0.2254
  135SAPE   H8R14612   5.684   6.022   9.652  0.4561 -0.8005  0.2979
  135SAPE   C2914613   5.621   5.885   9.503  0.0664  0.3280  0.2495
  135SAPE   H9R14614   5.616   5.968   9.431 -1.4058  0.7102  0.7789
  135SAPE  C21014615   5.575   5.749   9.456  0.2618 -0.1863  0.3280
  135SAPE  H10R14616   5.477   5.718   9.497  0.8343  0.5215  2.2796
  135SAPE  H10S14617   5.649   5.673   9.492  0.0116  0.4513  2.2430
  135SAPE  C21114618   5.564   5.734   9.307  0.5438  0.0860 -0.2618
  135SAPE  H11R14619   5.645   5.775   9.246 -1.4235  0.8857 -2.3729
  135SAPE  C21214620   5.473   5.663   9.242  0.8325  0.1141  0.2093
  135SAPE  H12R14621   5.504   5.646   9.138  1.4786  5.6645 -0.6723
  135SAPE  C21314622   5.351   5.591   9.293 -0.2869  0.1306 -0.2569
  135SAPE  H13R14623   5.349   5.604   9.403  0.8577 -2.7226  0.1594
  135SAPE  H13S14624   5.365   5.482   9.277 -3.0000 -0.4374  1.1435
  135SAPE  C21414625   5.240   5.654   9.210  0.2680  0.2409  0.5229
  135SAPE  H14R14626   5.208   5.751   9.252  1.7924  0.0740  2.1275
  135SAPE  C21514627   5.162   5.591   9.116 -0.5604 -0.0307 -0.6717
  135SAPE  H15R14628   5.072   5.639   9.075 -1.1162  0.2285  0.8375
  135SAPE  C21614629   5.180   5.449   9.080  0.6135 -0.0892 -0.5573
  135SAPE  H16R14630   5.082   5.399   9.069  0.5366  0.0497 -0.5005
  135SAPE  H16S14631   5.238   5.391   9.155  1.2147 -1.7716 -2.2611
  135SAPE  C21714632   5.265   5.420   8.952  0.1824 -0.0604 -0.1813
  135SAPE  H17R14633   5.325   5.328   8.967 -1.9401 -1.0768  2.4611
  135SAPE  H17S14634   5.340   5.501   8.936 -0.2495  0.7145  1.5903
  135SAPE  C21814635   5.175   5.403   8.834  0.0426 -0.1412 -0.1344
  135SAPE  H18R14636   5.113   5.493   8.814  1.1300  0.0636 -2.7978
  135SAPE  H18S14637   5.099   5.325   8.857  0.7549 -1.1067 -1.0790
  135SAPE  C21914638   5.250   5.364   8.708 -0.1334 -0.1713  0.0172
  135SAPE  H19R14639   5.332   5.296   8.738 -0.0045  0.7391  1.7870
  135SAPE  H19S14640   5.294   5.455   8.661 -1.0169  0.6218  0.7122
  135SAPE  C22014641   5.170   5.308   8.595  0.2625 -0.2640 -0.3385
  135SAPE  H20R14642   5.224   5.304   8.499  1.7561 -1.4304  0.5208
  135SAPE  H20S14643   5.079   5.370   8.586  0.9037  1.2799  2.8936
  135SAPE  H20T14644   5.149   5.201   8.616 -2.0721  1.0984  5.1369
  135SAPE   C3314645   5.370   5.752  10.206  0.2643  0.2174  0.6145
  135SAPE   H3X14646   5.405   5.855  10.228 -0.8658  0.9010 -0.7324
  135SAPE   H3Y14647   5.291   5.709  10.271 -0.1664 -0.2298 -0.2033
  135SAPE   C3414648   5.313   5.769  10.060  0.4268 -0.4118 -0.4725
  135SAPE   H4X14649   5.256   5.678  10.030  0.7773 -0.3372 -1.3808
  135SAPE   H4Y14650   5.403   5.791   9.998  0.5477 -0.3856 -0.2872
  135SAPE   C3514651   5.211   5.883  10.038  0.1262  0.2535 -0.7065
  135SAPE   H5X14652   5.253   5.979  10.076 -1.0490 -0.7369  3.2703
  135SAPE   H5Y14653   5.126   5.865  10.107  0.5833  1.3455  0.1625
  135SAPE   C3614654   5.167   5.897   9.893 -0.0481 -0.4538 -0.9449
  135SAPE   H6X14655   5.089   5.976   9.886  1.4710  1.1118 -0.6954
  135SAPE   H6Y14656   5.118   5.802   9.862 -0.7555  0.0220 -1.2742
  135SAPE   C3714657   5.278   5.947   9.800 -0.3519  0.0330  0.3062
  135SAPE   H7X14658   5.371   5.896   9.835 -1.5486 -1.5832  1.1708
  135SAPE   H7Y14659   5.296   6.056   9.814 -0.6249  0.2042 -0.6507
  135SAPE   C3814660   5.262   5.928   9.647  0.0845 -0.1534  0.4098
  135SAPE   H8X14661   5.252   5.817   9.637 -1.3943  0.1016 -1.2465
  135SAPE   H8Y14662   5.351   5.964   9.590 -0.9105  2.9590  0.7265
  135SAPE   C3914663   5.125   5.979   9.586 -0.7300 -0.9112 -0.3332
  135SAPE   H9X14664   5.122   6.090   9.592  1.4098 -0.8529  0.0417
  135SAPE   H9Y14665   5.041   5.935   9.644  0.4548 -0.8757  1.4387
  135SAPE  C31014666   5.117   5.969   9.430 -1.3902 -0.2818 -0.8723
  135SAPE  H10X14667   5.015   6.005   9.405 -1.1518  1.2118  0.2207
  135SAPE  H10Y14668   5.117   5.861   9.404  0.8216 -1.3921  3.1928
  135SAPE  C31114669   5.204   6.061   9.348 -0.0427 -0.0617 -0.9070
  135SAPE  H11X14670   5.305   6.014   9.348 -0.5130 -1.1851  1.0346
  135SAPE  H11Y14671   5.217   6.165   9.383  2.9371 -0.5195 -0.5156
  135SAPE  C31214672   5.150   6.063   9.204 -0.2641  0.5338 -0.6586
  135SAPE  H12X14673   5.065   6.135   9.203  0.1039  0.9848  0.2759
  135SAPE  H12Y14674   5.112   5.964   9.171  1.7170  1.4173 -6.1751
  135SAPE  C31314675   5.258   6.100   9.096 -0.5756 -0.0793  0.5587
  135SAPE  H13X14676   5.313   6.190   9.132 -1.3346  1.5297 -2.1691
  135SAPE  H13Y14677   5.214   6.114   8.995 -0.1409 -1.9151  0.0976
  135SAPE  C31414678   5.366   5.988   9.078 -0.2342  0.3410 -0.1256
  135SAPE  H14X14679   5.324   5.887   9.062 -1.9248  0.9994  0.0782
  135SAPE  H14Y14680   5.435   5.985   9.165  0.1717  0.0718 -0.4510
  135SAPE  C31514681   5.461   6.021   8.962 -0.5347  0.2904 -0.4484
  135SAPE  H15X14682   5.541   6.097   8.977  0.4957 -1.1562  1.7398
  135SAPE  H15Y14683   5.393   6.053   8.881 -1.1139 -1.8952 -0.8682
  135SAPE  C31614684   5.531   5.896   8.902 -0.3522 -0.1086 -0.5426
  135SAPE  H16X14685   5.585   5.845   8.985  0.4402  3.0993  0.9924
  135SAPE  H16Y14686   5.598   5.940   8.826  0.9792  1.7026  1.6086
  135SAPE  C31714687   5.442   5.787   8.837  0.3255  0.2097  0.3294
  135SAPE  H17X14688   5.371   5.836   8.767  0.7216 -1.9810 -1.6686
  135SAPE  H17Y14689   5.375   5.740   8.912 -0.6106 -1.3318 -1.4243
  135SAPE  C31814690   5.511   5.673   8.754 -0.1946 -0.5694  0.9072
  135SAPE  H18X14691   5.440   5.638   8.676  0.0156  2.1184 -0.5438
  135SAPE  H18Y14692   5.525   5.588   8.824 -3.5847 -1.3103  0.7950
  135SAPE  H18Z14693   5.606   5.710   8.710  0.1960 -1.5266  0.9479
  136SAPE     N14694   1.211   6.285  10.786 -0.3592 -0.5570  0.0340
  136SAPE   HN114695   1.212   6.381  10.825 -2.6302  0.1300 -1.4687
  136SAPE   HN214696   1.269   6.284  10.700  0.3504 -0.7666  0.5152
  136SAPE   HN314697   1.113   6.250  10.783 -1.0798  1.4230 -0.0579
  136SAPE   C1214698   1.292   6.193  10.880  0.3123 -0.1659 -0.4551
  136SAPE  H12A14699   1.237   6.097  10.884 -0.6401  0.3864 -0.2107
  136SAPE  H12B14700   1.284   6.232  10.984  2.2941 -1.3124  0.1597
  136SAPE   C1114701   1.440   6.186  10.833 -0.2946  0.5720  0.5281
  136SAPE  H11A14702   1.450   6.143  10.731  0.9915 -2.1927  1.7555
  136SAPE  H11B14703   1.485   6.109  10.900 -0.6104  0.4003  0.5463
  136SAPE     P14704   1.635   6.342  10.923  0.0623  0.1673 -0.3633
  136SAPE   O1314705   1.636   6.480  10.969 -0.4568  0.3562  0.4479
  136SAPE   O1414706   1.654   6.231  11.017  0.1070 -0.1443 -0.1857
  136SAPE   O1214707   1.499   6.314  10.830  0.3173 -0.1967 -0.4338
  136SAPE   O1114708   1.747   6.329  10.808 -0.1086 -0.2716 -0.3646
  136SAPE    C114709   1.815   6.208  10.792 -0.3468 -0.5639 -0.2207
  136SAPE    HA14710   1.914   6.216  10.842 -0.4512 -0.8224  0.0281
  136SAPE    HB14711   1.762   6.114  10.817 -0.5436 -0.3506  0.1686
  136SAPE    C214712   1.834   6.190  10.636 -0.0256 -0.1659  0.2145
  136SAPE    HS14713   1.859   6.082  10.623 -0.9740 -0.4118  0.3762
  136SAPE   O2114714   1.936   6.280  10.588 -0.7652  0.2116  0.1015
  136SAPE   C2114715   2.012   6.230  10.492 -0.9308 -0.1432  0.2653
  136SAPE   O2214716   2.002   6.120  10.441  0.0061 -0.1364 -0.1189
  136SAPE   C2214717   2.115   6.337  10.449  0.0636 -0.7312  0.1416
  136SAPE   H2R14718   2.079   6.437  10.482  1.4272  0.0558 -0.7353
  136SAPE   H2S14719   2.209   6.317  10.506  0.2105 -3.7120 -1.0312
  136SAPE    C314720   1.706   6.211  10.559  0.1786 -0.1283  0.1884
  136SAPE    HX14721   1.707   6.317  10.526 -2.0620 -0.3114 -0.5049
  136SAPE    HY14722   1.621   6.185  10.625 -0.5866 -0.7906 -1.0579
  136SAPE   O3114723   1.712   6.121  10.449  0.2962 -0.7437  0.1366
  136SAPE   C3114724   1.605   6.076  10.410 -0.2849  1.1165 -0.1286
  136SAPE   O3214725   1.493   6.096  10.454 -0.3467  0.1225 -0.3291
  136SAPE   C3214726   1.634   5.987  10.294  0.7215  0.0009 -0.0475
  136SAPE   H2X14727   1.710   5.910  10.322 -0.0044 -0.7983 -0.2437
  136SAPE   H2Y14728   1.673   6.059  10.219 -0.8047  0.5207 -0.3631
  136SAPE   C2314729   2.150   6.347  10.298  0.5501  0.0338  0.1283
  136SAPE   H3R14730   2.196   6.258  10.250 -0.8131  0.5971 -2.2773
  136SAPE   H3S14731   2.227   6.426  10.281  0.0955  0.4718  0.0805
  136SAPE   C2414732   2.028   6.383  10.218 -0.3571 -0.0984  0.1624
  136SAPE   H4R14733   1.979   6.480  10.241 -1.9230 -0.6600 -0.7091
  136SAPE   H4S14734   1.958   6.297  10.229  0.6637 -0.9862 -0.2138
  136SAPE   C2514735   2.078   6.393  10.075  0.6473  0.1081 -0.6482
  136SAPE   H5R14736   2.165   6.456  10.052 -0.6991  1.7663 -1.2516
  136SAPE   C2614737   2.034   6.323   9.967  0.6260  0.1449  0.3371
  136SAPE   H6R14738   2.085   6.347   9.872 -0.0817  0.8253  0.1201
  136SAPE   C2714739   1.914   6.228   9.958 -0.0929 -0.3834  0.1144
  136SAPE   H7R14740   1.842   6.269   9.884  1.3862  1.5925 -0.2928
  136SAPE   H7S14741   1.856   6.213  10.051 -0.0755 -3.5880 -0.3372
  136SAPE   C2814742   1.975   6.100   9.908  0.6556  0.2656 -1.0724
  136SAPE   H8R14743   2.043   6.049   9.977  0.2989 -0.4154 -1.2126
  136SAPE   C2914744   1.968   6.061   9.778  0.2504  0.7690  0.5376
  136SAPE   H9R14745   2.024   5.972   9.744 -2.0873  0.2849 -2.1720
  136SAPE  C21014746   1.884   6.122   9.663 -0.5367 -0.1041  0.7441
  136SAPE  H10R14747   1.799   6.180   9.704 -1.9603 -0.8956 -1.0245
  136SAPE  H10S14748   1.847   6.033   9.607 -1.4363  1.3076 -0.9426
  136SAPE  C21114749   1.971   6.213   9.583 -0.0463 -0.0105 -0.1833
  136SAPE  H11R14750   1.986   6.309   9.635 -4.1084 -0.8079  2.7381
  136SAPE  C21214751   2.024   6.201   9.457 -1.0940 -0.1136 -0.3023
  136SAPE  H12R14752   2.068   6.294   9.418 -0.4783 -0.0780  0.4521
  136SAPE  C21314753   2.025   6.083   9.363  0.1320  0.1438  0.2369
  136SAPE  H13R14754   1.976   6.000   9.417 -2.7742  2.4041  1.2300
  136SAPE  H13S14755   2.126   6.054   9.328  0.5195  1.9777 -0.2284
  136SAPE  C21414756   1.949   6.111   9.237 -0.2976  1.2079  0.9195
  136SAPE  H14R14757   2.019   6.124   9.153  0.3028 -1.2951  1.0129
  136SAPE  C21514758   1.819   6.114   9.217  0.2580 -1.1743  0.1048
  136SAPE  H15R14759   1.780   6.141   9.117  1.4935 -2.4733 -0.7361
  136SAPE  C21614760   1.712   6.094   9.328  0.6771  0.2363 -0.5084
  136SAPE  H16R14761   1.619   6.154   9.323  0.2313 -0.5963 -2.6068
  136SAPE  H16S14762   1.753   6.128   9.425 -0.9903 -0.3367  0.4174
  136SAPE  C21714763   1.659   5.945   9.337 -0.9495  0.3872 -0.6019
  136SAPE  H17R14764   1.606   5.933   9.434  0.1700 -0.4605 -0.0902
  136SAPE  H17S14765   1.744   5.874   9.344 -1.6687 -0.6079 -1.8622
  136SAPE  C21814766   1.553   5.912   9.238 -0.5082 -0.1187 -0.5410
  136SAPE  H18R14767   1.586   5.897   9.133 -0.6812  1.0887 -0.7745
  136SAPE  H18S14768   1.484   5.998   9.249  0.4119  0.3222  2.3663
  136SAPE  C21914769   1.483   5.777   9.272  0.1149 -0.3976  0.5202
  136SAPE  H19R14770   1.422   5.790   9.364 -0.0967 -1.5849  0.5614
  136SAPE  H19S14771   1.563   5.701   9.278  0.8005  0.3350  0.7173
  136SAPE  C22014772   1.400   5.731   9.155 -0.1221 -0.2392 -0.8168
  136SAPE  H20R14773   1.457   5.714   9.062  0.1803 -1.2835 -0.4535
  136SAPE  H20S14774   1.327   5.806   9.118  1.5980  0.1912 -3.4328
  136SAPE  H20T14775   1.348   5.637   9.184  1.2435 -0.4299  1.1940
  136SAPE   C3314776   1.498   5.922  10.244  0.5445  0.1377  1.2631
  136SAPE   H3X14777   1.433   5.999  10.198  1.8399  1.4135  1.5395
  136SAPE   H3Y14778   1.447   5.879  10.334  0.2476  2.3470  2.1865
  136SAPE   C3414779   1.521   5.817  10.136  0.3191 -0.4626  1.0071
  136SAPE   H4X14780   1.422   5.789  10.095 -0.5993 -0.3266  3.0803
  136SAPE   H4Y14781   1.576   5.732  10.182  0.3820 -1.4594 -0.8389
  136SAPE   C3514782   1.610   5.863  10.024  0.1938  0.6300  0.8191
  136SAPE   H5X14783   1.709   5.900  10.060  1.0477 -0.7054 -0.1137
  136SAPE   H5Y14784   1.549   5.942   9.977 -1.2040 -0.3600  0.9397
  136SAPE   C3614785   1.631   5.752   9.916 -0.1212 -0.3255  0.5016
  136SAPE   H6X14786   1.656   5.661   9.974  0.1663 -1.6115 -1.5696
  136SAPE   H6Y14787   1.725   5.782   9.865  2.0157  0.1302  4.5211
  136SAPE   C3714788   1.510   5.723   9.822  0.2163 -0.0401 -0.0136
  136SAPE   H7X14789   1.470   5.810   9.765  1.4994 -0.8108 -2.1642
  136SAPE   H7Y14790   1.439   5.666   9.886  0.6691  0.3927  0.8813
  136SAPE   C3814791   1.553   5.617   9.714 -0.8738 -0.2931 -0.7062
  136SAPE   H8X14792   1.607   5.532   9.761 -0.0579  0.5562 -0.0942
  136SAPE   H8Y14793   1.619   5.668   9.641 -1.0521 -0.6452 -1.1162
  136SAPE   C3914794   1.420   5.560   9.648  0.0728 -0.0720 -0.1578
  136SAPE   H9X14795   1.376   5.654   9.608 -1.0589  0.1115  1.4855
  136SAPE   H9Y14796   1.349   5.525   9.727 -1.9220  1.0890 -1.3847
  136SAPE  C31014797   1.431   5.462   9.529 -0.3495 -0.5615  1.0793
  136SAPE  H10X14798   1.452   5.354   9.542 -3.3321 -1.2906  0.1305
  136SAPE  H10Y14799   1.511   5.505   9.464 -0.6699 -0.2212  0.9092
  136SAPE  C31114800   1.313   5.452   9.440  0.1593  0.3804 -0.7184
  136SAPE  H11X14801   1.274   5.548   9.402 -3.0643 -0.7833 -0.5147
  136SAPE  H11Y14802   1.221   5.408   9.485  0.6610 -1.3063 -1.2930
  136SAPE  C31214803   1.343   5.356   9.323 -0.4448  0.4587 -0.2992
  136SAPE  H12X14804   1.351   5.252   9.361  2.2308  1.0501  0.9018
  136SAPE  H12Y14805   1.435   5.385   9.267 -0.1353 -0.9326 -0.5261
  136SAPE  C31314806   1.238   5.352   9.207 -0.0438 -0.5396 -0.6211
  136SAPE  H13X14807   1.195   5.455   9.206  1.7348  0.3139  2.6123
  136SAPE  H13Y14808   1.152   5.284   9.220 -1.1356  0.6595 -1.4730
  136SAPE  C31414809   1.298   5.310   9.075 -0.0079  0.5344 -0.1635
  136SAPE  H14X14810   1.341   5.210   9.095  0.9977  0.8320 -0.7991
  136SAPE  H14Y14811   1.385   5.374   9.050  0.2341  0.3645  0.2308
  136SAPE  C31514812   1.205   5.310   8.961  0.7372 -0.0586 -0.5868
  136SAPE  H15X14813   1.166   5.413   8.948  0.8572 -0.1507 -1.6858
  136SAPE  H15Y14814   1.117   5.243   8.975 -1.9288  3.0099 -2.1295
  136SAPE  C31614815   1.283   5.263   8.838  0.3277 -0.7090 -0.3380
  136SAPE  H16X14816   1.331   5.168   8.869 -0.1719 -0.3916  1.4691
  136SAPE  H16Y14817   1.363   5.340   8.836  0.3261 -0.7145 -0.8059
  136SAPE  C31714818   1.215   5.261   8.707 -0.1852  0.0555  0.0494
  136SAPE  H17X14819   1.113   5.218   8.707 -0.0197 -0.3382 -0.0770
  136SAPE  H17Y14820   1.269   5.184   8.648 -1.4545 -0.5772 -0.3076
  136SAPE  C31814821   1.230   5.397   8.626 -0.4755  0.3535  0.3446
  136SAPE  H18X14822   1.336   5.411   8.596 -0.6793  0.0509 -0.5250
  136SAPE  H18Y14823   1.195   5.478   8.693 -2.0985  2.1074 -2.5269
  136SAPE  H18Z14824   1.162   5.403   8.539 -1.0136 -0.7457  0.6737
  137SAPE     N14825   6.448   2.420  11.081 -0.1151  0.4381  0.9456
  137SAPE   HN114826   6.405   2.451  11.171  0.1224  3.0756  0.1834
  137SAPE   HN214827   6.502   2.334  11.103 -0.0789  0.5796  1.4139
  137SAPE   HN314828   6.513   2.493  11.045  1.0866 -2.3860 -2.8691
  137SAPE   C1214829   6.348   2.395  10.973 -0.5122  0.1354 -0.1202
  137SAPE  H12A14830   6.287   2.486  10.955  2.9688  2.8840  1.4327
  137SAPE  H12B14831   6.282   2.314  11.012  1.9259 -1.7172  0.2849
  137SAPE   C1114832   6.417   2.350  10.850 -0.2687  0.3583  0.2108
  137SAPE  H11A14833   6.478   2.438  10.819  0.9471 -0.6989 -0.4850
  137SAPE  H11B14834   6.341   2.317  10.776  1.4354  2.9204 -2.7756
  137SAPE     P14835   6.459   2.082  10.896  0.0704  0.5979 -0.0762
  137SAPE   O1314836   6.577   2.005  10.933  0.7784  0.3668  0.1416
  137SAPE   O1414837   6.348   2.071  10.985 -0.6373 -0.3435 -0.4314
  137SAPE   O1214838   6.504   2.236  10.881 -0.7123 -0.0043 -0.5159
  137SAPE   O1114839   6.406   2.046  10.749 -0.1782  0.1645 -0.0082
  137SAPE    C114840   6.454   2.106  10.627 -0.9011  0.0091 -0.0925
  137SAPE    HA14841   6.398   2.199  10.604 -0.5168  0.3046  0.1721
  137SAPE    HB14842   6.560   2.137  10.637 -0.2165 -2.5030  0.9833
  137SAPE    C214843   6.437   2.011  10.498  0.2956  0.0497  1.2170
  137SAPE    HS14844   6.435   2.079  10.410  0.7322 -2.4557 -0.8004
  137SAPE   O2114845   6.313   1.936  10.503 -0.2162  0.6142 -0.6009
  137SAPE   C2114846   6.242   1.946  10.382 -0.1662  0.2058 -0.4338
  137SAPE   O2214847   6.287   1.993  10.280  0.0970 -0.3386  0.1366
  137SAPE   C2214848   6.100   1.896  10.402 -0.1714 -0.1767 -0.2872
  137SAPE   H2R14849   6.098   1.815  10.478  1.0159 -1.1386 -1.2686
  137SAPE   H2S14850   6.036   1.979  10.440 -1.6610 -1.3082 -0.2862
  137SAPE    C314851   6.549   1.911  10.492 -0.0660 -0.2456  0.6010
  137SAPE    HX14852   6.531   1.839  10.410  0.0936 -0.2771  0.5917
  137SAPE    HY14853   6.544   1.850  10.584 -2.3789 -0.1708  0.5430
  137SAPE   O3114854   6.680   1.969  10.481 -0.4139  0.2718  0.5647
  137SAPE   C3114855   6.778   1.886  10.439 -0.2283 -0.0545  0.6652
  137SAPE   O3214856   6.765   1.765  10.414 -0.5620  0.4285 -0.0752
  137SAPE   C3214857   6.907   1.964  10.432  0.0070  0.0857  0.5721
  137SAPE   H2X14858   6.992   1.914  10.484 -0.2227 -0.5427  0.3463
  137SAPE   H2Y14859   6.902   2.059  10.489 -1.2812 -0.4200  1.3278
  137SAPE   C2314860   6.041   1.829  10.280  0.6200  0.2401  0.5305
  137SAPE   H3R14861   5.955   1.769  10.317 -0.4969 -1.7714 -4.8436
  137SAPE   H3S14862   6.114   1.765  10.226  1.1246  0.8556  0.4718
  137SAPE   C2414863   5.973   1.921  10.185 -0.1869 -0.7328  0.2816
  137SAPE   H4R14864   6.052   1.987  10.142  0.7720 -1.9061  0.1851
  137SAPE   H4S14865   5.899   1.974  10.248  2.1863 -0.6933  3.1234
  137SAPE   C2514866   5.893   1.848  10.075  0.4439  0.0092  0.4172
  137SAPE   H5R14867   5.882   1.738  10.072  0.6448 -0.0416  1.6160
  137SAPE   C2614868   5.822   1.913   9.979 -0.3852  0.8173 -0.2323
  137SAPE   H6R14869   5.752   1.865   9.909 -0.3231  0.2447  0.0976
  137SAPE   C2714870   5.820   2.063   9.971  0.5621  0.0639 -0.4522
  137SAPE   H7R14871   5.855   2.116  10.063  0.7401 -0.2902 -0.3180
  137SAPE   H7S14872   5.715   2.098   9.974  0.6091  0.2117 -0.4996
  137SAPE   C2814873   5.905   2.090   9.849  0.0466 -0.0074  0.7212
  137SAPE   H8R14874   6.013   2.077   9.862 -0.1097 -1.6637  0.4556
  137SAPE   C2914875   5.851   2.117   9.730  0.0653  0.2640 -0.1463
  137SAPE   H9R14876   5.924   2.128   9.648 -0.0334  1.5470 -0.0737
  137SAPE  C21014877   5.705   2.140   9.702  0.2359  0.2544 -0.0636
  137SAPE  H10R14878   5.641   2.143   9.793 -1.0360 -0.2001 -0.9353
  137SAPE  H10S14879   5.665   2.053   9.646 -2.3405  0.4740  1.3709
  137SAPE  C21114880   5.676   2.264   9.623 -0.3155  0.4928  0.3147
  137SAPE  H11R14881   5.670   2.361   9.675 -0.8524  1.2309 -1.1044
  137SAPE  C21214882   5.652   2.260   9.486  0.7157 -0.3897 -0.2601
  137SAPE  H12R14883   5.615   2.351   9.438  1.9108 -0.1837 -0.8082
  137SAPE  C21314884   5.648   2.145   9.389  0.8039  0.0235  0.8582
  137SAPE  H13R14885   5.589   2.177   9.300 -1.0866 -0.3034  1.9727
  137SAPE  H13S14886   5.592   2.062   9.436 -1.3732  0.3932 -0.9849
  137SAPE  C21414887   5.790   2.092   9.350  1.0158  0.0374  0.4197
  137SAPE  H14R14888   5.876   2.112   9.416  1.4133  4.0098 -1.1589
  137SAPE  C21514889   5.807   1.995   9.261 -0.0849  0.8098 -0.4001
  137SAPE  H15R14890   5.908   1.957   9.241 -1.8106 -4.0242 -0.7319
  137SAPE  C21614891   5.695   1.928   9.184  0.2729 -0.3998 -0.2112
  137SAPE  H16R14892   5.651   2.004   9.116 -0.7011  0.4773  1.3696
  137SAPE  H16S14893   5.615   1.898   9.256  0.7220  1.1349  0.9432
  137SAPE  C21714894   5.732   1.809   9.093 -0.4134  0.2814  0.7324
  137SAPE  H17R14895   5.641   1.776   9.037 -0.4914 -0.6668  1.4088
  137SAPE  H17S14896   5.772   1.718   9.143  1.1512  0.9016  0.6209
  137SAPE  C21814897   5.829   1.858   8.986  0.3328 -0.2870 -0.3784
  137SAPE  H18R14898   5.934   1.846   9.018  0.6032  0.9476 -0.7522
  137SAPE  H18S14899   5.818   1.967   8.968 -3.7636 -0.2138  2.0609
  137SAPE  C21914900   5.807   1.795   8.846  0.4889  0.1482  0.3404
  137SAPE  H19R14901   5.703   1.798   8.808  0.3191 -1.7804  0.6096
  137SAPE  H19S14902   5.819   1.685   8.859  2.4104  0.2279 -0.6003
  137SAPE  C22014903   5.902   1.836   8.734  0.1538 -0.4784  0.6233
  137SAPE  H20R14904   6.009   1.842   8.764  0.2847 -0.2541  0.1209
  137SAPE  H20S14905   5.876   1.933   8.686 -1.2533 -0.9019  0.5162
  137SAPE  H20T14906   5.891   1.760   8.654  3.6481 -2.5271  1.9585
  137SAPE   C3314907   6.957   1.993  10.286  0.6267 -0.2897 -0.2239
  137SAPE   H3X14908   6.966   1.897  10.230  1.3244 -0.5597  0.3307
  137SAPE   H3Y14909   7.063   2.025  10.295  0.3244  1.4497 -2.4119
  137SAPE   C3414910   6.863   2.095  10.221  0.4191  0.0264  0.1768
  137SAPE   H4X14911   6.861   2.182  10.290 -2.5780  0.3311 -0.2487
  137SAPE   H4Y14912   6.761   2.052  10.211 -0.7138  2.3991  1.3699
  137SAPE   C3514913   6.921   2.149  10.091 -0.0312 -0.0586  0.9012
  137SAPE   H5X14914   6.962   2.066  10.030  2.5127  1.9383 -0.2484
  137SAPE   H5Y14915   7.008   2.215  10.116  2.5782 -2.5088 -1.4090
  137SAPE   C3614916   6.821   2.236  10.011 -0.4792 -0.5325  0.3989
  137SAPE   H6X14917   6.810   2.334  10.062 -0.4014 -0.1448 -0.3251
  137SAPE   H6Y14918   6.719   2.191  10.015  0.7084 -3.1283  2.7707
  137SAPE   C3714919   6.874   2.258   9.862 -0.4901 -0.5947  0.0789
  137SAPE   H7X14920   6.872   2.160   9.810 -2.0414 -1.1237  1.1036
  137SAPE   H7Y14921   6.980   2.288   9.854 -0.3259 -1.2062 -0.0478
  137SAPE   C3814922   6.773   2.345   9.782  0.5737 -0.4673 -0.3834
  137SAPE   H8X14923   6.755   2.437   9.842 -1.7178 -1.3591  0.3838
  137SAPE   H8Y14924   6.670   2.304   9.773  0.0672  0.8469 -0.8120
  137SAPE   C3914925   6.805   2.360   9.633 -0.1660  0.5554 -0.6358
  137SAPE   H9X14926   6.910   2.389   9.617 -0.1216  0.7510  0.0089
  137SAPE   H9Y14927   6.743   2.443   9.592  0.2782  0.2147 -2.0181
  137SAPE  C31014928   6.778   2.233   9.554 -0.5905  0.2054 -0.3786
  137SAPE  H10X14929   6.678   2.190   9.579 -0.4017 -0.7598 -1.2325
  137SAPE  H10Y14930   6.858   2.162   9.586  0.5967  0.9960 -1.6005
  137SAPE  C31114931   6.778   2.251   9.399 -0.8439 -0.0863 -0.5562
  137SAPE  H11X14932   6.730   2.350   9.386 -2.5648 -0.7343  0.6998
  137SAPE  H11Y14933   6.717   2.170   9.352  0.0389  0.6539 -3.0951
  137SAPE  C31214934   6.921   2.238   9.348 -0.0547 -0.6072 -0.2120
  137SAPE  H12X14935   6.940   2.131   9.372 -0.5800 -0.3610  1.3764
  137SAPE  H12Y14936   6.989   2.305   9.404 -2.1888  1.5851 -0.1832
  137SAPE  C31314937   6.939   2.277   9.197 -0.0692 -0.1707  0.0286
  137SAPE  H13X14938   6.921   2.386   9.189 -0.3589 -0.0951  1.5208
  137SAPE  H13Y14939   6.862   2.226   9.135  1.4554 -0.5542 -1.5782
  137SAPE  C31414940   7.078   2.238   9.141  0.1263 -0.0741 -0.0529
  137SAPE  H14X14941   7.079   2.260   9.032  1.5309  1.2652  0.2137
  137SAPE  H14Y14942   7.097   2.129   9.154  0.4207 -0.2941 -2.1863
  137SAPE  C31514943   7.203   2.306   9.197 -0.6436 -0.0673  0.6787
  137SAPE  H15X14944   7.210   2.307   9.308 -0.6001  0.9037  0.6755
  137SAPE  H15Y14945   7.184   2.413   9.175  2.0905  0.4188  0.5788
  137SAPE  C31614946   7.338   2.259   9.144  0.3044  0.9921 -0.1098
  137SAPE  H16X14947   7.351   2.168   9.207 -0.0207  0.2899 -1.0424
  137SAPE  H16Y14948   7.412   2.340   9.161 -1.0728  2.6654 -1.8250
  137SAPE  C31714949   7.341   2.213   8.996  0.4407 -0.3891 -0.7549
  137SAPE  H17X14950   7.329   2.304   8.935 -1.6289 -0.2036 -0.1131
  137SAPE  H17Y14951   7.259   2.147   8.961 -0.0942 -0.7407  1.0689
  137SAPE  C31814952   7.471   2.132   8.960  0.4363 -0.1372  0.6537
  137SAPE  H18X14953   7.565   2.188   8.980  0.5707  1.2230 -3.3049
  137SAPE  H18Y14954   7.481   2.121   8.850  0.9269  2.6623  0.3812
  137SAPE  H18Z14955   7.481   2.037   9.016  0.0136 -1.3353 -1.2646
  138SAPE     N14956   3.307   3.351  10.613  0.0515 -0.2020  0.5627
  138SAPE   HN114957   3.411   3.355  10.615  0.1308 -1.5767 -0.0858
  138SAPE   HN214958   3.267   3.354  10.709  0.3438  0.0109  0.6794
  138SAPE   HN314959   3.264   3.269  10.565 -1.7068  1.1349 -0.1958
  138SAPE   C1214960   3.252   3.468  10.543 -0.1214  0.1691 -0.4379
  138SAPE  H12A14961   3.311   3.472  10.450 -0.6615 -0.6675 -0.8204
  138SAPE  H12B14962   3.272   3.562  10.599  2.1078  1.1214 -2.7537
  138SAPE   C1114963   3.102   3.453  10.503 -0.4913 -0.0681  0.6051
  138SAPE  H11A14964   3.092   3.368  10.432 -2.2165  0.1705  0.5502
  138SAPE  H11B14965   3.059   3.536  10.445 -0.6300 -1.9611 -2.0869
  138SAPE     P14966   2.892   3.517  10.658 -0.1155 -0.1026 -0.2722
  138SAPE   O1314967   2.790   3.424  10.717 -0.5858 -0.9034 -0.2903
  138SAPE   O1414968   2.935   3.623  10.747 -0.0547  0.0464 -0.3330
  138SAPE   O1214969   3.013   3.424  10.614 -0.5379  0.2425 -0.0945
  138SAPE   O1114970   2.830   3.588  10.526 -0.1437  0.7677 -0.1463
  138SAPE    C114971   2.776   3.500  10.426 -0.3671 -0.4513  0.6391
  138SAPE    HA14972   2.848   3.418  10.405  1.1342  0.6422  1.3592
  138SAPE    HB14973   2.686   3.458  10.474 -1.0723  0.0691 -0.2168
  138SAPE    C214974   2.750   3.567  10.293  0.3101  0.0549  0.1212
  138SAPE    HS14975   2.683   3.500  10.236  1.0353 -1.4548  1.0339
  138SAPE   O2114976   2.873   3.582  10.216  0.2362 -0.3544  0.3435
  138SAPE   C2114977   2.925   3.469  10.160 -0.0356  0.1422 -0.1580
  138SAPE   O2214978   2.880   3.355  10.183 -0.1551  0.1844 -0.6854
  138SAPE   C2214979   3.046   3.504  10.072  0.3994 -0.5549  0.0692
  138SAPE   H2R14980   3.023   3.595  10.014  2.4115 -0.2178 -0.2256
  138SAPE   H2S14981   3.133   3.521  10.140  0.3348 -0.7228  0.1972
  138SAPE    C314982   2.677   3.701  10.314 -0.2264 -0.1025 -0.0593
  138SAPE    HX14983   2.753   3.771  10.354  0.1883 -0.2866 -0.5182
  138SAPE    HY14984   2.601   3.692  10.394  1.1507 -1.2505  1.1350
  138SAPE   O3114985   2.625   3.764  10.192 -0.4987  0.8672 -0.2227
  138SAPE   C3114986   2.499   3.732  10.175  0.3472  0.3726  0.0566
  138SAPE   O3214987   2.438   3.645  10.235  0.0409 -0.3203  0.7304
  138SAPE   C3214988   2.435   3.815  10.062  0.7009 -0.7621  0.2559
  138SAPE   H2X14989   2.412   3.918  10.098 -0.4180 -0.8179 -0.2563
  138SAPE   H2Y14990   2.333   3.774  10.045  1.0746 -2.0038  0.9424
  138SAPE   C2314991   3.072   3.387   9.965 -0.3480  0.4943  1.1749
  138SAPE   H3R14992   3.063   3.286  10.010 -1.7582 -0.8743 -2.0047
  138SAPE   H3S14993   3.168   3.408   9.912 -0.7137  0.9414  0.6802
  138SAPE   C2414994   2.973   3.398   9.845 -0.0474  0.2911 -0.1584
  138SAPE   H4R14995   2.985   3.500   9.802 -2.2058  0.2391 -0.9543
  138SAPE   H4S14996   2.871   3.382   9.886 -0.0001  0.9029  0.2062
  138SAPE   C2514997   2.988   3.295   9.730  0.1455 -0.7440  0.1773
  138SAPE   H5R14998   2.998   3.193   9.770  1.2128 -0.3210  1.0308
  138SAPE   C2614999   2.997   3.326   9.601 -0.0603 -0.4539  0.6998
  138SAPE   H6R15000   3.013   3.243   9.530 -1.2235 -0.3081  0.2659
  138SAPE   C2715001   2.996   3.465   9.539  0.7609  0.3924  0.2340
  138SAPE   H7R15002   3.101   3.502   9.532  0.8585 -0.0604 -0.8793
  138SAPE   H7S15003   2.946   3.542   9.602  0.7109 -0.9060  1.8040
  138SAPE   C2815004   2.925   3.469   9.410 -0.4184 -0.1335  0.2176
  138SAPE   H8R15005   2.815   3.467   9.415 -0.4022 -0.3127  0.4992
  138SAPE   C2915006   2.985   3.466   9.290 -0.0029  0.7266  0.0166
  138SAPE   H9R15007   2.928   3.456   9.196  0.4056 -1.5878 -0.0152
  138SAPE  C21015008   3.135   3.454   9.267  0.4550  0.1619  0.5424
  138SAPE  H10R15009   3.198   3.508   9.341 -0.6638 -1.0353  2.4190
  138SAPE  H10S15010   3.154   3.519   9.179 -0.5100 -2.0341 -1.3247
  138SAPE  C21115011   3.194   3.322   9.256 -0.2979  0.2661 -0.2561
  138SAPE  H11R15012   3.212   3.269   9.350 -0.1232 -1.5318 -1.2737
  138SAPE  C21215013   3.213   3.255   9.135 -0.1457  0.0534 -0.5560
  138SAPE  H12R15014   3.258   3.154   9.131 -0.8667 -0.4544  2.6023
  138SAPE  C21315015   3.174   3.302   8.995 -0.8832 -0.3630 -0.1446
  138SAPE  H13R15016   3.268   3.349   8.958 -0.8312 -1.1303 -0.9980
  138SAPE  H13S15017   3.112   3.393   9.007  0.5390  0.6731 -0.5153
  138SAPE  C21415018   3.124   3.203   8.888  0.4160 -0.4518 -0.0464
  138SAPE  H14R15019   3.022   3.161   8.890  0.1956 -0.0786 -2.1136
  138SAPE  C21515020   3.199   3.148   8.783  0.6508 -0.1777  0.5338
  138SAPE  H15R15021   3.144   3.083   8.713  1.1523  1.7745 -1.7251
  138SAPE  C21615022   3.341   3.183   8.766  0.3060 -0.6474  0.2201
  138SAPE  H16R15023   3.397   3.109   8.705  2.2840 -0.0559  1.2734
  138SAPE  H16S15024   3.390   3.197   8.864  0.5821  2.0319 -0.2621
  138SAPE  C21715025   3.334   3.312   8.678 -0.0203  0.2979 -0.2051
  138SAPE  H17R15026   3.281   3.393   8.733 -1.3241 -0.3800 -0.4430
  138SAPE  H17S15027   3.292   3.306   8.575  1.6139 -0.0959 -0.8559
  138SAPE  C21815028   3.480   3.350   8.651  0.0992  0.6361  0.1424
  138SAPE  H18R15029   3.516   3.258   8.599  0.7566  0.4001  1.0065
  138SAPE  H18S15030   3.531   3.360   8.749  0.9649 -1.2496 -0.0858
  138SAPE  C21915031   3.499   3.479   8.564  0.1002  0.2696 -0.0575
  138SAPE  H19R15032   3.416   3.551   8.580  1.5100  2.2027 -1.2390
  138SAPE  H19S15033   3.495   3.442   8.459 -1.0066  1.3304 -0.4103
  138SAPE  C22015034   3.642   3.536   8.575 -0.5173  0.1449  0.0772
  138SAPE  H20R15035   3.709   3.452   8.545 -0.1904  0.0820  0.9918
  138SAPE  H20S15036   3.662   3.570   8.678  2.6159 -1.4884  0.0662
  138SAPE  H20T15037   3.660   3.625   8.511 -1.5793  0.4090  0.1351
  138SAPE   C3315038   2.512   3.839   9.935  0.4233 -0.1136 -0.0135
  138SAPE   H3X15039   2.562   3.746   9.899  1.5174  0.2340  0.5907
  138SAPE   H3Y15040   2.593   3.913   9.952 -0.7194  1.7269 -2.3252
  138SAPE   C3415041   2.437   3.902   9.822 -0.3531 -0.1926 -0.6937
  138SAPE   H4X15042   2.394   4.001   9.850 -0.7189 -0.4293 -0.4216
  138SAPE   H4Y15043   2.353   3.832   9.804 -1.2612  0.6921  0.0226
  138SAPE   C3515044   2.520   3.902   9.698 -0.2575  0.0198  0.4461
  138SAPE   H5X15045   2.549   3.800   9.667  3.2301  1.5670 -1.7405
  138SAPE   H5Y15046   2.618   3.946   9.726  0.6178 -0.0095 -2.3697
  138SAPE   C3615047   2.444   3.973   9.582  0.0199  0.5336 -0.7753
  138SAPE   H6X15048   2.439   4.082   9.602  1.3994  0.8015 -1.7618
  138SAPE   H6Y15049   2.340   3.937   9.573 -0.5187  2.0217 -0.6166
  138SAPE   C3715050   2.510   3.959   9.443  0.0757  0.6624  0.3200
  138SAPE   H7X15051   2.615   3.994   9.454  0.3114 -0.2896  1.2570
  138SAPE   H7Y15052   2.452   4.011   9.363 -0.3337 -1.4832 -0.7986
  138SAPE   C3815053   2.527   3.812   9.391 -0.3944 -0.1127 -0.1143
  138SAPE   H8X15054   2.434   3.753   9.410  0.0015 -0.2729  1.3914
  138SAPE   H8Y15055   2.607   3.757   9.444  1.3804  1.2670 -1.3127
  138SAPE   C3915056   2.548   3.804   9.239 -0.8683  0.0323 -0.0978
  138SAPE   H9X15057   2.650   3.833   9.204  0.3298  0.0817  3.2742
  138SAPE   H9Y15058   2.469   3.862   9.187 -2.3536 -3.3544 -1.8172
  138SAPE  C31015059   2.511   3.657   9.194 -0.1222 -0.0416 -0.3158
  138SAPE  H10X15060   2.496   3.642   9.085 -0.3389 -0.3940 -0.2376
  138SAPE  H10Y15061   2.418   3.622   9.243  0.4374 -2.4702 -0.9030
  138SAPE  C31115062   2.627   3.555   9.232  0.5661  0.2978 -0.0700
  138SAPE  H11X15063   2.689   3.595   9.315  1.3264  0.6679 -0.8077
  138SAPE  H11Y15064   2.694   3.564   9.144  0.2471  0.4959 -0.2936
  138SAPE  C31215065   2.593   3.403   9.261 -0.0618 -0.7124 -0.0975
  138SAPE  H12X15066   2.683   3.339   9.271 -1.4782 -2.6949  0.1579
  138SAPE  H12Y15067   2.544   3.377   9.165 -0.2726  0.6067 -0.3641
  138SAPE  C31315068   2.512   3.380   9.386 -0.3471  0.1647  0.1572
  138SAPE  H13X15069   2.487   3.272   9.395  1.2338 -0.2342 -0.1538
  138SAPE  H13Y15070   2.416   3.434   9.402 -0.1492  0.3473  0.7134
  138SAPE  C31415071   2.595   3.400   9.518  0.5823  0.0278 -0.0475
  138SAPE  H14X15072   2.625   3.505   9.538  0.4777 -0.5975  3.9780
  138SAPE  H14Y15073   2.683   3.333   9.527  0.2319 -0.1040  3.0391
  138SAPE  C31515074   2.508   3.380   9.640 -0.2254 -0.1745 -0.4169
  138SAPE  H15X15075   2.482   3.273   9.649 -0.3716 -0.3269 -2.4777
  138SAPE  H15Y15076   2.413   3.437   9.643  0.5761  1.1429  0.9959
  138SAPE  C31615077   2.591   3.415   9.764  0.3690  0.2477  0.0926
  138SAPE  H16X15078   2.607   3.524   9.778 -1.7303  0.6243 -0.3587
  138SAPE  H16Y15079   2.693   3.373   9.749 -1.6949 -4.9930 -0.0304
  138SAPE  C31715080   2.546   3.362   9.907  0.3720 -0.2134  0.5336
  138SAPE  H17X15081   2.632   3.358   9.977 -0.5146  1.3198  1.7441
  138SAPE  H17Y15082   2.506   3.258   9.900 -1.1956  0.3549  0.7524
  138SAPE  C31815083   2.432   3.450   9.960  0.6281  0.2766  0.1139
  138SAPE  H18X15084   2.470   3.552   9.979 -1.4291  0.9900  0.5856
  138SAPE  H18Y15085   2.393   3.410  10.057  0.2519  1.0358  0.2800
  138SAPE  H18Z15086   2.348   3.458   9.887  0.7143  0.6124  0.0524
  139SAPE     N15087   2.928   1.834  10.586 -0.2672  0.5390 -0.0846
  139SAPE   HN115088   2.905   1.934  10.601  1.8031  0.7393  2.0024
  139SAPE   HN215089   2.839   1.784  10.605  1.6614 -2.3810  1.6705
  139SAPE   HN315090   2.999   1.805  10.656 -0.6106 -1.5524 -0.5670
  139SAPE   C1215091   2.966   1.802  10.443  0.0831 -0.5056 -0.0749
  139SAPE  H12A15092   3.049   1.873  10.420 -0.1003  0.2596  1.5915
  139SAPE  H12B15093   2.882   1.831  10.375  0.5396  0.5357 -0.2002
  139SAPE   C1115094   3.014   1.650  10.429 -0.0410  0.2632 -0.5252
  139SAPE  H11A15095   3.026   1.636  10.319  2.8243  0.9592 -0.3384
  139SAPE  H11B15096   2.929   1.580  10.438  2.7008 -3.1618 -0.0445
  139SAPE     P15097   3.273   1.624  10.444  0.4695 -0.2516  0.0359
  139SAPE   O1315098   3.294   1.761  10.405  0.2591  0.4328  0.3449
  139SAPE   O1415099   3.371   1.559  10.532 -0.0810 -0.4032  0.5393
  139SAPE   O1215100   3.125   1.608  10.505  0.3453  0.2344  0.5904
  139SAPE   O1115101   3.262   1.528  10.314 -0.1494  0.5453 -0.0993
  139SAPE    C115102   3.224   1.388  10.347  0.0782 -0.1238  0.5247
  139SAPE    HA15103   3.302   1.323  10.391 -0.4471  0.4813  2.4415
  139SAPE    HB15104   3.137   1.382  10.417  0.6128 -3.3165  1.0000
  139SAPE    C215105   3.158   1.307  10.227  0.0800 -1.1359  0.1621
  139SAPE    HS15106   3.243   1.256  10.178  1.0071  1.5585 -1.1223
  139SAPE   O2115107   3.076   1.395  10.136 -0.6656 -0.5334  0.0698
  139SAPE   C2115108   3.156   1.473  10.055 -0.1694  0.2267 -0.7079
  139SAPE   O2215109   3.273   1.454  10.026  0.1284 -0.1744 -0.1567
  139SAPE   C2215110   3.073   1.580   9.995  0.5863  0.5502 -0.1824
  139SAPE   H2R15111   2.996   1.526   9.937 -1.1853 -0.3256  2.8873
  139SAPE   H2S15112   3.021   1.628  10.080  0.0036 -1.1632  0.4457
  139SAPE    C315113   3.062   1.194  10.273 -0.3274  0.9724  0.5826
  139SAPE    HX15114   3.029   1.159  10.173 -1.2609  0.1421  1.1707
  139SAPE    HY15115   2.979   1.241  10.330 -1.7811  0.1007 -0.7861
  139SAPE   O3115116   3.126   1.098  10.355 -0.1768  0.3022 -0.0731
  139SAPE   C3115117   3.050   1.029  10.440 -0.4915 -0.7544  0.5990
  139SAPE   O3215118   2.928   1.039  10.449 -0.8652 -0.4346 -0.0469
  139SAPE   C3215119   3.140   0.933  10.514  0.5046  0.5624  0.3030
  139SAPE   H2X15120   3.167   0.992  10.604 -1.0213  1.3644  0.2525
  139SAPE   H2Y15121   3.240   0.911  10.472  0.3617 -3.3837  1.7362
  139SAPE   C2315122   3.151   1.683   9.905  0.2959  0.5598  0.2919
  139SAPE   H3R15123   3.212   1.629   9.829  1.4505  2.7156 -0.3684
  139SAPE   H3S15124   3.220   1.733   9.976  2.7722 -0.7509 -1.1115
  139SAPE   C2415125   3.046   1.776   9.832 -0.8012  0.9566 -0.6103
  139SAPE   H4R15126   2.972   1.799   9.910 -0.4377  4.0134 -1.0923
  139SAPE   H4S15127   2.997   1.716   9.752 -0.0140  2.5088 -2.3143
  139SAPE   C2515128   3.116   1.900   9.782  0.6233 -0.5154  0.1040
  139SAPE   H5R15129   3.183   1.949   9.854  1.6995 -0.5526 -0.8554
  139SAPE   C2615130   3.095   1.962   9.663  0.5125  0.2215  0.0376
  139SAPE   H6R15131   3.155   2.050   9.636  2.2948 -0.5277  1.4319
  139SAPE   C2715132   2.997   1.910   9.556  0.1006 -0.2605  0.2836
  139SAPE   H7R15133   2.952   1.996   9.502 -0.5706 -1.4289 -1.0566
  139SAPE   H7S15134   2.911   1.864   9.608  0.9928 -1.6457  0.5596
  139SAPE   C2815135   3.052   1.823   9.449  0.1512 -0.3908 -0.4055
  139SAPE   H8R15136   3.136   1.758   9.478  1.6939  0.8391 -1.9655
  139SAPE   C2915137   3.006   1.814   9.321  0.0638  1.2243 -0.4294
  139SAPE   H9R15138   3.055   1.735   9.262 -0.6705  0.0292  0.5187
  139SAPE  C21015139   2.886   1.888   9.261  0.4676  0.7801 -0.1832
  139SAPE  H10R15140   2.863   1.979   9.320 -1.8516  0.6319 -0.7937
  139SAPE  H10S15141   2.796   1.824   9.271  0.5239  0.9366  1.3545
  139SAPE  C21115142   2.914   1.933   9.118 -0.0051  0.1293  0.0162
  139SAPE  H11R15143   3.022   1.954   9.106 -0.1181  0.2998 -0.7218
  139SAPE  C21215144   2.828   1.947   9.012  0.3477 -0.6530 -0.6119
  139SAPE  H12R15145   2.874   1.957   8.913 -0.6389  0.2371 -0.9875
  139SAPE  C21315146   2.676   1.921   9.019  0.0475  0.0265 -0.4454
  139SAPE  H13R15147   2.639   1.906   9.123  1.3486 -3.8350 -0.4615
  139SAPE  H13S15148   2.650   1.826   8.967 -3.5712 -0.0508  1.3416
  139SAPE  C21415149   2.608   2.038   8.948  0.1996 -0.4606  0.0449
  139SAPE  H14R15150   2.634   2.137   8.988  1.1886 -1.3979  1.7697
  139SAPE  C21515151   2.512   2.017   8.858  0.1639 -0.4096  0.1676
  139SAPE  H15R15152   2.463   2.110   8.825 -0.2790 -0.5772  0.3477
  139SAPE  C21615153   2.470   1.895   8.788 -0.2674 -0.1189  0.0532
  139SAPE  H16R15154   2.551   1.819   8.787 -1.4578 -1.3896 -0.2763
  139SAPE  H16S15155   2.442   1.918   8.682  0.8868 -1.5082 -0.5636
  139SAPE  C21715156   2.348   1.830   8.856  0.1923  0.2135  0.4235
  139SAPE  H17R15157   2.327   1.883   8.951 -0.2285 -5.4902  3.7487
  139SAPE  H17S15158   2.368   1.726   8.890  0.8261  0.5256  1.0255
  139SAPE  C21815159   2.220   1.830   8.772 -0.8181  1.1205 -0.0785
  139SAPE  H18R15160   2.149   1.770   8.833  0.0528  0.7049  0.5360
  139SAPE  H18S15161   2.238   1.762   8.686  1.3824  1.1697  0.3295
  139SAPE  C21915162   2.171   1.967   8.724 -0.1664  0.0225  0.0670
  139SAPE  H19R15163   2.240   1.996   8.642 -1.0807  2.0002 -0.0516
  139SAPE  H19S15164   2.180   2.052   8.796 -1.5177  0.3714 -0.1560
  139SAPE  C22015165   2.031   1.980   8.657  0.0523 -0.8456  0.8270
  139SAPE  H20R15166   1.956   1.987   8.738  0.1808  0.7970  0.8248
  139SAPE  H20S15167   2.013   1.886   8.602 -0.0150 -0.3718  0.0298
  139SAPE  H20T15168   2.023   2.065   8.586 -1.1153 -1.2348  0.4813
  139SAPE   C3315169   3.075   0.807  10.568 -0.7969 -0.2707 -0.6132
  139SAPE   H3X15170   2.993   0.835  10.638 -1.8695 -2.9489 -0.7391
  139SAPE   H3Y15171   3.141   0.762  10.645 -0.1354  1.1348 -0.3586
  139SAPE   C3415172   3.036   0.702  10.464  0.0036 -0.5238  0.2323
  139SAPE   H4X15173   2.964   0.747  10.392  0.6300  1.2906  0.7164
  139SAPE   H4Y15174   2.980   0.621  10.516 -2.6128  0.6169 -0.7137
  139SAPE   C3515175   3.158   0.647  10.390 -0.0453  0.5921 -0.3319
  139SAPE   H5X15176   3.235   0.625  10.466 -0.4750  2.1496  0.5712
  139SAPE   H5Y15177   3.191   0.710  10.305 -1.2719 -1.5890 -2.5115
  139SAPE   C3615178   3.115   0.514  10.331 -0.2630  0.4891  0.2430
  139SAPE   H6X15179   3.041   0.458  10.393 -1.4062  1.5827 -0.1100
  139SAPE   H6Y15180   3.204   0.447  10.326 -1.2586 -0.8113 -0.3462
  139SAPE   C3715181   3.066   0.518  10.190  0.4847  0.4587 -0.3975
  139SAPE   H7X15182   3.145   0.562  10.126  0.1493 -0.3606 -1.3902
  139SAPE   H7Y15183   2.976   0.581  10.173  0.1703 -0.1338 -0.9944
  139SAPE   C3815184   3.034   0.388  10.136  0.8186  0.3285  0.3334
  139SAPE   H8X15185   2.993   0.324  10.217  0.6002 -1.0313 -0.8400
  139SAPE   H8Y15186   3.128   0.337  10.106  1.0462  0.8350  0.1868
  139SAPE   C3915187   2.938   0.378  10.012 -0.1048  0.3797 -0.2329
  139SAPE   H9X15188   2.847   0.441  10.022 -0.2109  0.3713 -1.0727
  139SAPE   H9Y15189   2.903   0.274   9.997  1.3578 -0.3195  1.0742
  139SAPE  C31015190   3.018   0.403   9.884 -0.1911  0.0808  0.1781
  139SAPE  H10X15191   3.105   0.335   9.877 -0.3632 -0.0515 -0.7737
  139SAPE  H10Y15192   3.049   0.509   9.871  0.3223 -0.0430  0.3910
  139SAPE  C31115193   2.932   0.360   9.766  0.4721  0.2343 -0.4580
  139SAPE  H11X15194   2.839   0.415   9.742  0.2666  0.1095  0.0490
  139SAPE  H11Y15195   2.892   0.261   9.795  0.6186  0.3006 -0.0215
  139SAPE  C31215196   3.018   0.361   9.637  0.0568  0.6725  0.3465
  139SAPE  H12X15197   3.112   0.306   9.657  0.3185  1.0901  0.2491
  139SAPE  H12Y15198   3.031   0.460   9.590 -0.7385 -0.9193 -3.4297
  139SAPE  C31315199   2.954   0.267   9.534  0.0490 -0.3581 -0.3581
  139SAPE  H13X15200   2.944   0.165   9.576 -0.5444  0.2225  0.9345
  139SAPE  H13Y15201   3.025   0.244   9.452  1.2677 -1.5723  1.0146
  139SAPE  C31415202   2.829   0.320   9.467 -0.1350  0.0345 -0.5163
  139SAPE  H14X15203   2.769   0.372   9.545  0.2121 -1.0566  0.4876
  139SAPE  H14Y15204   2.761   0.236   9.438 -1.0940  0.0965  1.4457
  139SAPE  C31515205   2.847   0.417   9.354  0.1337 -0.9190  0.4427
  139SAPE  H15X15206   2.920   0.492   9.391 -0.4407  0.1306 -0.5453
  139SAPE  H15Y15207   2.750   0.470   9.341  1.4947  1.3257 -0.8484
  139SAPE  C31615208   2.879   0.343   9.226 -0.1610  0.3355  0.0140
  139SAPE  H16X15209   2.977   0.294   9.244 -1.1553 -0.9276  2.2545
  139SAPE  H16Y15210   2.807   0.258   9.222 -0.2198  0.3967 -0.2440
  139SAPE  C31715211   2.856   0.433   9.104 -0.1066 -0.2416 -0.0763
  139SAPE  H17X15212   2.899   0.530   9.135 -0.1443  0.7216 -2.9051
  139SAPE  H17Y15213   2.747   0.447   9.088 -0.4731  0.3572  2.6421
  139SAPE  C31815214   2.927   0.382   8.980 -0.3936 -0.0922  0.9393
  139SAPE  H18X15215   2.923   0.454   8.896  0.0054  0.1204  1.1056
  139SAPE  H18Y15216   2.875   0.295   8.933  1.1197 -0.6649  0.3048
  139SAPE  H18Z15217   3.025   0.338   9.009 -0.9191 -1.6683  0.4194
  140SAPE     N15218   5.847   4.997  11.166  0.7094 -0.2223  0.2660
  140SAPE   HN115219   5.756   5.037  11.135 -0.0413 -0.9960  1.4411
  140SAPE   HN215220   5.824   4.897  11.179 -1.2207 -0.2208 -2.7242
  140SAPE   HN315221   5.881   5.033  11.258  0.7335  0.1213  0.1243
  140SAPE   C1215222   5.956   5.018  11.068  0.0359  0.8821 -0.1840
  140SAPE  H12A15223   5.917   5.000  10.966 -0.0421  1.7685 -0.3151
  140SAPE  H12B15224   6.039   4.943  11.074 -0.5327  0.1323 -1.4265
  140SAPE   C1115225   6.024   5.154  11.080  0.6995  0.1647  0.1146
  140SAPE  H11A15226   6.097   5.154  10.997  1.3547  4.4566  0.6014
  140SAPE  H11B15227   6.085   5.152  11.173 -1.8988  2.0060  1.9228
  140SAPE     P15228   5.950   5.401  11.007  0.6398 -0.1093 -0.2402
  140SAPE   O1315229   5.820   5.473  10.996 -0.2561 -0.3580 -0.5413
  140SAPE   O1415230   6.069   5.472  11.048  0.2299 -0.2818  0.2953
  140SAPE   O1215231   5.935   5.266  11.093  0.4115 -0.0676  0.0075
  140SAPE   O1115232   5.975   5.327  10.862 -0.4149  0.3898 -0.6702
  140SAPE    C115233   5.854   5.316  10.788  0.0550  1.0976 -0.1290
  140SAPE    HA15234   5.759   5.305  10.845  0.5671  0.7484  0.6687
  140SAPE    HB15235   5.831   5.407  10.730 -2.1989  0.2170 -0.6802
  140SAPE    C215236   5.868   5.198  10.683 -0.4399 -0.3274  0.2872
  140SAPE    HS15237   5.927   5.117  10.731 -0.4787 -1.1808 -1.0819
  140SAPE   O2115238   5.920   5.249  10.557 -0.4423 -0.2646 -0.0751
  140SAPE   C2115239   6.009   5.168  10.508  0.1800 -0.2683  0.6955
  140SAPE   O2215240   6.039   5.059  10.549 -0.0219  0.3097 -0.0039
  140SAPE   C2215241   6.068   5.218  10.374  0.2161  0.0621  0.3397
  140SAPE   H2R15242   5.986   5.279  10.332 -0.6017 -0.9903  0.3944
  140SAPE   H2S15243   6.159   5.276  10.401  0.0581 -0.1094  1.2630
  140SAPE    C315244   5.734   5.140  10.642  0.2711  0.7537 -0.4735
  140SAPE    HX15245   5.664   5.217  10.602  0.0044 -0.3218 -2.1251
  140SAPE    HY15246   5.680   5.093  10.726 -0.4070  1.4150 -0.5364
  140SAPE   O3115247   5.753   5.039  10.534  0.3566 -0.3827 -0.1192
  140SAPE   C3115248   5.781   4.917  10.572 -0.3715 -0.5985 -0.3082
  140SAPE   O3215249   5.802   4.884  10.688  0.1678 -0.7314  0.4105
  140SAPE   C3215250   5.794   4.824  10.454  0.1261 -0.1549  1.1238
  140SAPE   H2X15251   5.739   4.730  10.473  3.4825 -2.3277  0.4040
  140SAPE   H2Y15252   5.905   4.815  10.449 -0.0989 -1.8183 -1.9965
  140SAPE   C2315253   6.110   5.116  10.265  0.1999  0.0744  0.3859
  140SAPE   H3R15254   6.019   5.076  10.213  0.1457  1.2680 -0.4460
  140SAPE   H3S15255   6.162   5.037  10.324 -1.3641 -1.5510 -0.3355
  140SAPE   C2415256   6.204   5.171  10.151 -0.1442 -0.4046 -0.6327
  140SAPE   H4R15257   6.267   5.090  10.109  1.0875 -0.3100  0.9941
  140SAPE   H4S15258   6.270   5.243  10.203  0.1431 -0.7043 -0.5788
  140SAPE   C2515259   6.120   5.242  10.055  0.1236  0.6982 -0.4649
  140SAPE   H5R15260   6.059   5.325  10.094  0.4924  1.0045 -0.5416
  140SAPE   C2615261   6.116   5.227   9.918  0.0317 -0.0601 -0.3234
  140SAPE   H6R15262   6.056   5.293   9.854 -0.7202  0.0787  0.5063
  140SAPE   C2715263   6.187   5.122   9.833 -0.3599 -0.2336  0.1051
  140SAPE   H7R15264   6.271   5.070   9.884  0.2262  1.2973  0.7309
  140SAPE   H7S15265   6.241   5.171   9.749 -0.4720  1.7555  1.1645
  140SAPE   C2815266   6.088   5.024   9.771  0.1211 -0.4491 -1.0240
  140SAPE   H8R15267   6.076   4.930   9.827  1.4105 -0.3869 -0.6318
  140SAPE   C2915268   6.030   5.030   9.651 -0.5029  0.1818  1.0831
  140SAPE   H9R15269   5.953   4.955   9.628  0.0401  0.0719 -0.4442
  140SAPE  C21015270   6.043   5.141   9.550 -1.1115  0.1527 -0.0413
  140SAPE  H10R15271   6.042   5.245   9.588  1.9266  0.4660 -0.6296
  140SAPE  H10S15272   5.951   5.148   9.488 -0.6583  0.5123 -0.6794
  140SAPE  C21115273   6.167   5.117   9.462 -0.3649  0.7831 -0.4296
  140SAPE  H11R15274   6.259   5.084   9.513 -0.0255  2.9101  0.3828
  140SAPE  C21215275   6.182   5.137   9.330  0.0701  0.0247  0.4916
  140SAPE  H12R15276   6.274   5.115   9.274  0.4012  0.5857  0.8132
  140SAPE  C21315277   6.071   5.192   9.236 -0.7005  0.0984  0.4182
  140SAPE  H13R15278   6.118   5.266   9.167  0.7564 -0.2556  1.0158
  140SAPE  H13S15279   5.993   5.243   9.297  0.6424  1.6626  0.8362
  140SAPE  C21415280   6.007   5.072   9.168 -0.1329  0.6086 -0.4416
  140SAPE  H14R15281   5.925   5.030   9.229  0.7424 -1.2997 -0.5326
  140SAPE  C21515282   6.049   5.008   9.056  0.0794  0.4679 -0.7546
  140SAPE  H15R15283   6.004   4.910   9.031 -1.1094  0.0515  2.7040
  140SAPE  C21615284   6.169   5.040   8.973 -0.2876 -0.3674  0.0822
  140SAPE  H16R15285   6.212   4.942   8.946 -0.4629 -0.9819  1.9491
  140SAPE  H16S15286   6.247   5.088   9.036 -1.2391  1.2997  0.0335
  140SAPE  C21715287   6.144   5.129   8.863  0.3489 -0.2630  0.1981
  140SAPE  H17R15288   6.120   5.232   8.895 -0.6869 -0.3661 -0.2333
  140SAPE  H17S15289   6.056   5.099   8.803 -1.7654  3.4198  1.2964
  140SAPE  C21815290   6.268   5.139   8.770  0.9171  0.2046 -0.2525
  140SAPE  H18R15291   6.242   5.133   8.662 -1.9217  0.9077  0.3606
  140SAPE  H18S15292   6.344   5.062   8.794  2.6003  1.1564 -2.3737
  140SAPE  C21915293   6.343   5.279   8.797  0.4536  0.0937 -0.8196
  140SAPE  H19R15294   6.374   5.274   8.903 -0.5336 -0.9148 -0.5718
  140SAPE  H19S15295   6.272   5.363   8.782 -0.3597  0.0970  2.6622
  140SAPE  C22015296   6.464   5.293   8.712 -0.0788  0.3825 -0.3785
  140SAPE  H20R15297   6.435   5.310   8.606 -2.3389 -2.5131 -0.2783
  140SAPE  H20S15298   6.529   5.204   8.709 -0.4953  0.0887 -0.8408
  140SAPE  H20T15299   6.518   5.387   8.737 -0.4298  0.7800 -1.0864
  140SAPE   C3315300   5.751   4.873  10.311 -0.0653 -0.2829  0.9447
  140SAPE   H3X15301   5.783   4.978  10.294  0.6232 -0.0708  3.4597
  140SAPE   H3Y15302   5.640   4.872  10.308 -0.0554 -0.0174 -2.3146
  140SAPE   C3415303   5.797   4.782  10.196  0.9200  0.6323 -0.1189
  140SAPE   H4X15304   5.757   4.680  10.216  1.5998  0.3135 -0.3315
  140SAPE   H4Y15305   5.908   4.776  10.184  0.7598 -2.9160 -0.3803
  140SAPE   C3515306   5.729   4.811  10.059  0.3208  0.6594  0.1376
  140SAPE   H5X15307   5.624   4.830  10.091 -0.0486 -1.5891  0.3094
  140SAPE   H5Y15308   5.734   4.713  10.008 -1.5131  0.4291  0.3753
  140SAPE   C3615309   5.796   4.926   9.979  0.7527 -0.5146  0.8396
  140SAPE   H6X15310   5.900   4.892   9.965  0.5511 -0.2938 -1.4245
  140SAPE   H6Y15311   5.798   5.020  10.039 -2.6545 -0.7201  1.3926
  140SAPE   C3715312   5.726   4.955   9.843 -0.4163  0.7771 -0.2908
  140SAPE   H7X15313   5.796   5.019   9.786  0.9935 -1.2576 -0.8983
  140SAPE   H7Y15314   5.629   5.005   9.863 -0.6280  0.3415 -0.2096
  140SAPE   C3815315   5.699   4.825   9.766  0.6007  0.1201 -0.1238
  140SAPE   H8X15316   5.619   4.759   9.806  1.1078 -0.6512 -0.3646
  140SAPE   H8Y15317   5.799   4.776   9.761  0.1731 -0.7591 -0.2803
  140SAPE   C3915318   5.658   4.844   9.620 -0.0453  0.1153  0.7132
  140SAPE   H9X15319   5.717   4.920   9.564 -2.5605  0.4148 -1.6370
  140SAPE   H9Y15320   5.550   4.871   9.625  0.0336  0.2860  1.6439
  140SAPE  C31015321   5.657   4.719   9.528 -0.5412 -0.3318  0.7830
  140SAPE  H10X15322   5.597   4.758   9.443 -3.0009  0.1300  2.6563
  140SAPE  H10Y15323   5.600   4.631   9.567 -1.1893 -0.3547 -0.1785
  140SAPE  C31115324   5.797   4.678   9.481 -0.0094  0.1084  0.5774
  140SAPE  H11X15325   5.857   4.626   9.558  1.8629  0.7721 -0.3895
  140SAPE  H11Y15326   5.850   4.774   9.460  1.0101 -0.9742 -1.9664
  140SAPE  C31215327   5.796   4.603   9.340  0.6755  0.1862  0.0072
  140SAPE  H12X15328   5.723   4.519   9.335  3.4145 -2.2337 -0.7845
  140SAPE  H12Y15329   5.897   4.562   9.321  1.1434  1.9425 -1.3920
  140SAPE  C31315330   5.767   4.701   9.224  0.0769 -0.6544 -0.0009
  140SAPE  H13X15331   5.833   4.789   9.235 -0.3768 -0.3818  0.5573
  140SAPE  H13Y15332   5.663   4.739   9.235  0.1399 -0.3474 -0.4413
  140SAPE  C31415333   5.795   4.634   9.094 -0.2150  0.3085  0.4157
  140SAPE  H14X15334   5.763   4.528   9.106 -2.0574  0.7707 -0.1695
  140SAPE  H14Y15335   5.901   4.655   9.068 -0.1654 -2.1944 -1.6035
  140SAPE  C31515336   5.709   4.675   8.971 -0.0730  0.4474 -0.4074
  140SAPE  H15X15337   5.738   4.777   8.935  3.7704 -1.3776 -2.8330
  140SAPE  H15Y15338   5.600   4.671   8.989 -0.2224 -2.5066 -1.6565
  140SAPE  C31615339   5.732   4.582   8.850 -0.1319  0.3722  0.3435
  140SAPE  H16X15340   5.720   4.478   8.887 -3.1943  0.1301 -1.1653
  140SAPE  H16Y15341   5.841   4.586   8.829  0.4049  0.3328  2.9451
  140SAPE  C31715342   5.635   4.614   8.738  0.2297 -0.1895 -0.4238
  140SAPE  H17X15343   5.658   4.714   8.694  1.1567 -0.0718  0.3250
  140SAPE  H17Y15344   5.533   4.607   8.783 -0.0346 -1.0917 -1.1439
  140SAPE  C31815345   5.617   4.509   8.622 -0.0829 -0.7394  0.2304
  140SAPE  H18X15346   5.703   4.498   8.551 -0.6314  2.2698 -0.9733
  140SAPE  H18Y15347   5.526   4.547   8.572  1.1892  2.1359 -0.0133
  140SAPE  H18Z15348   5.607   4.405   8.659  5.2656 -0.9483  1.5846
  141SAPE     N15349   6.726   6.293  11.073 -0.5184 -0.4493  0.0161
  141SAPE   HN115350   6.805   6.272  11.008 -0.6274  1.6237 -0.8435
  141SAPE   HN215351   6.738   6.392  11.101  2.0102 -0.9187  0.7754
  141SAPE   HN315352   6.735   6.220  11.146  1.4007 -0.7314 -0.4683
  141SAPE   C1215353   6.597   6.289  10.993  0.0569  0.4935 -0.0710
  141SAPE  H12A15354   6.602   6.380  10.929  1.0427 -0.5218 -1.4714
  141SAPE  H12B15355   6.509   6.296  11.061  0.2323 -1.5329  0.3915
  141SAPE   C1115356   6.589   6.160  10.914  0.5089  0.2293 -0.1399
  141SAPE  H11A15357   6.645   6.167  10.819  0.7375 -0.0418 -0.0231
  141SAPE  H11B15358   6.481   6.144  10.890 -0.6709  3.3843  2.5991
  141SAPE     P15359   6.583   5.902  10.930 -0.2008  0.0744 -0.0651
  141SAPE   O1315360   6.711   5.838  10.902  0.8050  0.3483  0.0602
  141SAPE   O1415361   6.494   5.829  11.025  0.0212  0.6631  0.3363
  141SAPE   O1215362   6.615   6.044  10.990  0.1549 -0.2856 -0.0730
  141SAPE   O1115363   6.505   5.924  10.790  0.0368 -0.4249 -0.4364
  141SAPE    C115364   6.586   5.954  10.675 -0.4838 -0.2266 -0.0391
  141SAPE    HA15365   6.575   6.059  10.641 -0.3814 -0.6095 -1.2797
  141SAPE    HB15366   6.695   5.930  10.682 -0.4947 -1.8167 -3.9552
  141SAPE    C215367   6.537   5.864  10.560 -0.6614 -0.5993 -0.0557
  141SAPE    HS15368   6.624   5.817  10.509 -0.5004  1.0810 -1.3542
  141SAPE   O2115369   6.456   5.943  10.473  0.1457  0.0777 -0.1894
  141SAPE   C2115370   6.516   6.043  10.408  0.3421  0.4612 -0.8032
  141SAPE   O2215371   6.637   6.065  10.399  0.0464  0.2520 -0.3672
  141SAPE   C2215372   6.412   6.143  10.344 -0.4817 -0.0042 -0.0995
  141SAPE   H2R15373   6.311   6.133  10.390 -1.0172  2.1519 -0.7538
  141SAPE   H2S15374   6.458   6.242  10.363 -2.5245  0.8378  0.5698
  141SAPE    C315375   6.455   5.740  10.604 -0.2782  0.4282  0.2206
  141SAPE    HX15376   6.365   5.778  10.657 -1.2233 -2.9421  1.1784
  141SAPE    HY15377   6.519   5.680  10.672  0.0336 -1.9353 -2.0819
  141SAPE   O3115378   6.417   5.658  10.488 -0.0015  0.1478 -0.0074
  141SAPE   C3115379   6.492   5.552  10.455  0.3340  0.4780 -0.1397
  141SAPE   O3215380   6.584   5.504  10.521 -0.1456 -0.0350 -0.9137
  141SAPE   C3215381   6.432   5.497  10.327  0.9561 -0.3082 -0.4489
  141SAPE   H2X15382   6.323   5.487  10.345  0.4061 -0.1212 -3.4061
  141SAPE   H2Y15383   6.482   5.398  10.322 -0.6829 -1.0553 -2.8796
  141SAPE   C2315384   6.403   6.123  10.194  0.0197 -0.1247  0.0362
  141SAPE   H3R15385   6.383   6.020  10.156  0.2716  0.5430 -1.9244
  141SAPE   H3S15386   6.497   6.148  10.140 -0.0627 -1.7834 -0.9183
  141SAPE   C2415387   6.295   6.216  10.137  0.4106 -0.2794 -0.0631
  141SAPE   H4R15388   6.329   6.259  10.040  2.3248  1.0259  1.1527
  141SAPE   H4S15389   6.282   6.308  10.197 -4.5258 -1.3504  0.6893
  141SAPE   C2515390   6.158   6.143  10.129 -0.1400  0.0005  0.8817
  141SAPE   H5R15391   6.111   6.114  10.225 -0.7483 -1.0275  0.2799
  141SAPE   C2615392   6.091   6.118  10.016 -0.3908 -0.4126 -0.2843
  141SAPE   H6R15393   5.990   6.075  10.030  0.2926 -1.8762  0.2395
  141SAPE   C2715394   6.137   6.150   9.877 -0.0645 -0.2628  0.8917
  141SAPE   H7R15395   6.206   6.238   9.875  0.7450 -0.8959 -1.6361
  141SAPE   H7S15396   6.048   6.187   9.822 -0.0088 -0.1390  0.8826
  141SAPE   C2815397   6.197   6.035   9.806  0.1364 -0.7531  0.0543
  141SAPE   H8R15398   6.264   5.980   9.874 -0.2595 -0.9574  0.2805
  141SAPE   C2915399   6.185   5.985   9.685 -0.2611 -0.9787  0.0953
  141SAPE   H9R15400   6.244   5.896   9.659 -2.0326 -2.0970 -0.1758
  141SAPE  C21015401   6.104   6.053   9.581  0.0024 -0.5558 -0.0979
  141SAPE  H10R15402   6.124   6.160   9.603  0.3213 -0.8265  0.9375
  141SAPE  H10S15403   5.994   6.042   9.596 -0.2912  0.4884 -1.4131
  141SAPE  C21115404   6.147   6.024   9.444  0.2805 -0.1572 -0.5353
  141SAPE  H11R15405   6.255   6.004   9.442  0.6234  1.4808  0.9942
  141SAPE  C21215406   6.068   6.004   9.332  0.2884  0.0592 -0.6350
  141SAPE  H12R15407   6.114   5.989   9.233  0.4651 -0.6555 -0.4454
  141SAPE  C21315408   5.918   6.028   9.333 -0.1840  0.1033 -0.5179
  141SAPE  H13R15409   5.896   6.118   9.394 -1.5602 -1.2839  1.1349
  141SAPE  H13S15410   5.865   5.949   9.391  1.1233 -0.7643 -0.4859
  141SAPE  C21415411   5.864   6.033   9.196  0.2363  0.4956  0.1829
  141SAPE  H14R15412   5.905   5.959   9.125  2.2434 -0.6207  2.4361
  141SAPE  C21515413   5.764   6.121   9.174 -0.5756  0.1508 -0.0604
  141SAPE  H15R15414   5.715   6.123   9.075  0.2609  0.8398 -0.4601
  141SAPE  C21615415   5.697   6.211   9.268  0.1895 -0.1495  0.8244
  141SAPE  H16R15416   5.720   6.210   9.377  0.4308 -0.8894  0.7646
  141SAPE  H16S15417   5.592   6.175   9.257  0.8373 -1.4656 -1.1740
  141SAPE  C21715418   5.689   6.359   9.222 -0.2905 -0.5183  0.5166
  141SAPE  H17R15419   5.630   6.416   9.298 -0.0008  0.3071  0.1284
  141SAPE  H17S15420   5.662   6.383   9.117  0.6726  0.7084  0.5351
  141SAPE  C21815421   5.828   6.429   9.242  0.3543 -0.8069  0.3498
  141SAPE  H18R15422   5.897   6.372   9.175 -0.4663 -0.4577 -0.8036
  141SAPE  H18S15423   5.856   6.416   9.349 -1.7373  0.9594  1.1643
  141SAPE  C21915424   5.816   6.585   9.209  0.3777 -0.1455  0.1700
  141SAPE  H19R15425   5.741   6.621   9.282 -1.1862 -0.2181 -1.3624
  141SAPE  H19S15426   5.772   6.582   9.107 -1.1995 -1.3527  0.8790
  141SAPE  C22015427   5.946   6.659   9.217 -0.6780 -0.5852  0.5757
  141SAPE  H20R15428   6.024   6.609   9.154 -0.8678 -0.0418 -0.1004
  141SAPE  H20S15429   5.975   6.662   9.324  0.7046 -0.2455  0.1989
  141SAPE  H20T15430   5.933   6.759   9.171  1.6659 -0.4490  0.1225
  141SAPE   C3315431   6.457   5.582  10.204 -0.5505  0.3838  0.3212
  141SAPE   H3X15432   6.563   5.616  10.196 -1.2004  2.0675 -1.6033
  141SAPE   H3Y15433   6.386   5.667  10.213 -1.3515 -0.2369 -0.0592
  141SAPE   C3415434   6.415   5.497  10.079 -0.2582 -0.3482 -0.2940
  141SAPE   H4X15435   6.315   5.455  10.104  0.4585 -0.2204  3.1248
  141SAPE   H4Y15436   6.486   5.414  10.055 -0.1144 -1.3723  3.3664
  141SAPE   C3515437   6.397   5.582   9.955 -0.1024  0.1706 -0.1197
  141SAPE   H5X15438   6.497   5.621   9.925 -0.4984  0.5181 -1.0097
  141SAPE   H5Y15439   6.338   5.670   9.990  0.1877  0.0449  0.6929
  141SAPE   C3615440   6.339   5.500   9.839  0.3081  0.3384 -0.1182
  141SAPE   H6X15441   6.265   5.429   9.881 -0.1695  1.2771  0.6649
  141SAPE   H6Y15442   6.409   5.431   9.789 -1.4315 -0.5638 -1.3554
  141SAPE   C3715443   6.288   5.584   9.721  0.5717  0.4528 -0.2422
  141SAPE   H7X15444   6.371   5.633   9.665  1.6262 -1.7797 -0.7054
  141SAPE   H7Y15445   6.236   5.671   9.767 -0.2695  0.0147 -0.3527
  141SAPE   C3815446   6.182   5.515   9.635 -0.0719  0.0281 -0.0764
  141SAPE   H8X15447   6.093   5.482   9.693  1.2275 -1.8727  0.8991
  141SAPE   H8Y15448   6.240   5.432   9.589  0.3038  1.7973 -2.9772
  141SAPE   C3915449   6.129   5.611   9.525 -0.3482  0.5324 -0.3579
  141SAPE   H9X15450   6.204   5.652   9.455  1.1049 -0.6620  0.4638
  141SAPE   H9Y15451   6.083   5.702   9.570 -1.5374 -1.2505  2.1763
  141SAPE  C31015452   6.024   5.554   9.442  0.3724 -0.4584  0.3699
  141SAPE  H10X15453   5.931   5.543   9.502  1.2672 -1.1328  1.6572
  141SAPE  H10Y15454   6.052   5.457   9.395  2.6734  0.0233  0.6907
  141SAPE  C31115455   5.971   5.645   9.332  0.2973  0.8153 -0.0298
  141SAPE  H11X15456   6.064   5.686   9.287  0.3334  1.9227  1.0311
  141SAPE  H11Y15457   5.921   5.732   9.380  1.9216  0.8574  1.6807
  141SAPE  C31215458   5.897   5.567   9.220  0.1433 -0.5928 -0.0104
  141SAPE  H12X15459   5.790   5.552   9.245  0.1229  0.7186  0.7101
  141SAPE  H12Y15460   5.938   5.464   9.212 -0.5067 -0.7901 -0.7574
  141SAPE  C31315461   5.908   5.631   9.084 -0.4840 -0.6666  0.4553
  141SAPE  H13X15462   6.013   5.667   9.084 -0.9064  0.6176  0.8041
  141SAPE  H13Y15463   5.838   5.717   9.080  1.7796  1.1991 -0.5459
  141SAPE  C31415464   5.889   5.527   8.965 -0.3486  0.1811 -0.1592
  141SAPE  H14X15465   5.788   5.480   8.975 -1.3784  1.2763 -4.1811
  141SAPE  H14Y15466   5.967   5.450   8.981 -0.3546  0.2182  0.0432
  141SAPE  C31515467   5.884   5.587   8.819  0.4304  0.5507 -0.0229
  141SAPE  H15X15468   5.805   5.665   8.821  0.2911  0.4478 -1.4233
  141SAPE  H15Y15469   5.848   5.517   8.741  1.3535 -1.1349  1.0487
  141SAPE  C31615470   6.011   5.659   8.773  0.0462  0.4609  0.5030
  141SAPE  H16X15471   6.081   5.579   8.741  0.2121  0.8829 -0.2002
  141SAPE  H16Y15472   6.062   5.702   8.861  0.0653 -1.4680  1.4574
  141SAPE  C31715473   5.989   5.769   8.672  0.1064  0.5189  0.7951
  141SAPE  H17X15474   6.087   5.815   8.650  0.3594 -0.3844 -0.0435
  141SAPE  H17Y15475   5.922   5.842   8.723 -0.0210  2.7033 -2.3751
  141SAPE  C31815476   5.918   5.727   8.541  0.0943 -0.6814  0.0355
  141SAPE  H18X15477   5.913   5.816   8.474 -0.9792 -0.8783 -0.1676
  141SAPE  H18Y15478   5.827   5.666   8.560 -0.1279 -1.0650 -2.0780
  141SAPE  H18Z15479   5.983   5.658   8.484  0.6703  0.2244 -0.4218
  142SAPE     N15480   6.627   4.712  10.881  0.5276 -0.4938  0.2234
  142SAPE   HN115481   6.729   4.695  10.870  0.6387 -0.8798  1.7030
  142SAPE   HN215482   6.582   4.619  10.893  0.3224 -0.1790  2.1426
  142SAPE   HN315483   6.580   4.756  10.800 -2.4184 -3.0639  0.4589
  142SAPE   C1215484   6.608   4.788  11.012  0.0127 -0.0312  0.0108
  142SAPE  H12A15485   6.498   4.801  11.021  0.0870 -0.8564  2.5134
  142SAPE  H12B15486   6.662   4.884  11.001 -1.0276  0.7622  1.5635
  142SAPE   C1115487   6.680   4.714  11.125  0.0592  0.1716  0.3489
  142SAPE  H11A15488   6.617   4.622  11.129 -0.8883  0.7482 -1.0328
  142SAPE  H11B15489   6.667   4.777  11.216 -2.5437 -0.6052  0.5712
  142SAPE     P15490   6.918   4.623  11.193 -0.1044 -0.1264 -0.1834
  142SAPE   O1315491   6.928   4.701  11.322 -0.4518  0.6956 -0.2361
  142SAPE   O1415492   6.903   4.478  11.203  0.0693  0.7678 -0.6344
  142SAPE   O1215493   6.815   4.678  11.093  0.2146 -0.2995  0.2301
  142SAPE   O1115494   7.057   4.646  11.116 -0.4868  0.0801 -0.1768
  142SAPE    C115495   7.096   4.775  11.064  0.0227  0.1574 -0.3392
  142SAPE    HA15496   7.058   4.850  11.137  1.2537 -0.8631  1.3656
  142SAPE    HB15497   7.205   4.770  11.046  0.2271  0.8953  0.6521
  142SAPE    C215498   7.033   4.793  10.929 -0.3694 -0.7913 -0.1218
  142SAPE    HS15499   6.925   4.807  10.951  0.3582  0.9061  2.6386
  142SAPE   O2115500   7.069   4.682  10.848 -0.1736 -0.7264 -0.7273
  142SAPE   C2115501   6.974   4.634  10.776  0.0075  0.3679  0.7969
  142SAPE   O2215502   6.861   4.684  10.768 -0.2355  0.1364  0.5217
  142SAPE   C2215503   7.016   4.504  10.703  0.4154 -0.2229 -0.7718
  142SAPE   H2R15504   7.044   4.428  10.779 -0.5357  0.4420  0.2601
  142SAPE   H2S15505   6.928   4.465  10.648 -1.3739 -0.0906  1.9214
  142SAPE    C315506   7.091   4.926  10.871  0.1440 -0.4977 -0.4422
  142SAPE    HX15507   7.202   4.918  10.866  0.1438 -0.5049 -0.4366
  142SAPE    HY15508   7.070   5.006  10.946 -1.8399 -1.6498  0.2755
  142SAPE   O3115509   7.042   4.958  10.735 -0.1223  0.0275 -0.2934
  142SAPE   C3115510   6.915   4.993  10.736 -0.8370 -1.1937  0.0843
  142SAPE   O3215511   6.849   5.032  10.832 -0.1423 -0.3291  0.1325
  142SAPE   C3215512   6.855   4.971  10.591  0.1781  0.5491  0.4348
  142SAPE   H2X15513   6.747   4.945  10.596  0.0326  0.9906 -0.3247
  142SAPE   H2Y15514   6.908   4.881  10.552 -0.1057  0.2141  0.8096
  142SAPE   C2315515   7.129   4.526  10.599  0.3913 -0.3217  0.3691
  142SAPE   H3R15516   7.173   4.426  10.576  4.4195  1.8455 -2.1296
  142SAPE   H3S15517   7.215   4.585  10.638 -0.2898  0.0561  1.3078
  142SAPE   C2415518   7.069   4.599  10.475 -0.0911  0.7236 -0.6392
  142SAPE   H4R15519   7.148   4.615  10.399  0.8266  1.3601  0.4318
  142SAPE   H4S15520   7.014   4.691  10.505  0.2714  0.6644  0.2463
  142SAPE   C2515521   6.976   4.504  10.402  0.1093  0.2423  0.6357
  142SAPE   H5R15522   7.007   4.399  10.402  0.7272  0.4171  0.0264
  142SAPE   C2615523   6.867   4.540  10.326 -0.2419 -0.0281 -0.2508
  142SAPE   H6R15524   6.816   4.467  10.262 -0.1245  0.9896 -1.5229
  142SAPE   C2715525   6.799   4.681  10.312 -0.3586  0.2114 -0.0401
  142SAPE   H7R15526   6.809   4.714  10.206  1.6030 -0.2257 -0.0145
  142SAPE   H7S15527   6.857   4.754  10.372 -1.1821 -1.7581  3.2542
  142SAPE   C2815528   6.669   4.681  10.376  0.0735 -1.4094  0.1339
  142SAPE   H8R15529   6.671   4.656  10.484 -1.0568  1.5295  0.8915
  142SAPE   C2915530   6.545   4.707  10.325 -0.6427 -0.4505 -0.4413
  142SAPE   H9R15531   6.464   4.686  10.397  0.4613  0.0524  0.9623
  142SAPE  C21015532   6.515   4.748  10.183 -0.7057  1.0473 -0.8695
  142SAPE  H10R15533   6.524   4.657  10.120 -0.5186  0.6362 -0.2501
  142SAPE  H10S15534   6.590   4.822  10.149  1.1710  0.5240  1.9285
  142SAPE  C21115535   6.379   4.809  10.185 -0.4363 -0.0682 -0.3099
  142SAPE  H11R15536   6.345   4.856  10.278  2.4315 -0.6413  1.0539
  142SAPE  C21215537   6.293   4.805  10.081  0.4363 -0.6320  0.5777
  142SAPE  H12R15538   6.197   4.859  10.090  2.2072  3.2691 -2.5932
  142SAPE  C21315539   6.321   4.753   9.942 -0.1699  0.3553 -0.0730
  142SAPE  H13R15540   6.415   4.694   9.928 -0.7292 -0.2686 -1.3488
  142SAPE  H13S15541   6.330   4.847   9.883 -0.9608 -0.1431 -1.0114
  142SAPE  C21415542   6.202   4.676   9.883 -0.2900 -0.1048  0.0291
  142SAPE  H14R15543   6.159   4.598   9.948  1.3836  1.6775  3.4650
  142SAPE  C21515544   6.167   4.670   9.751 -0.0954 -0.0007  0.1877
  142SAPE  H15R15545   6.072   4.619   9.728 -0.3235  0.5714 -0.1506
  142SAPE  C21615546   6.243   4.735   9.638 -0.5661 -0.4555 -0.1548
  142SAPE  H16R15547   6.349   4.705   9.640 -0.3863  0.0802 -1.1871
  142SAPE  H16S15548   6.259   4.845   9.647 -0.6277 -0.4521 -0.0840
  142SAPE  C21715549   6.185   4.704   9.499 -0.6053 -0.2935 -0.2080
  142SAPE  H17R15550   6.096   4.768   9.480  1.2676  2.5413  0.2323
  142SAPE  H17S15551   6.139   4.603   9.491  2.0430 -1.5255 -0.5903
  142SAPE  C21815552   6.282   4.738   9.382  0.2117 -0.4402  0.1834
  142SAPE  H18R15553   6.377   4.682   9.398  0.1717 -1.3680 -2.4529
  142SAPE  H18S15554   6.309   4.846   9.384 -0.1694 -0.2977 -1.5292
  142SAPE  C21915555   6.225   4.691   9.245 -0.3539 -0.4497  0.6098
  142SAPE  H19R15556   6.156   4.769   9.206 -1.1971 -2.6842 -2.6135
  142SAPE  H19S15557   6.178   4.594   9.273 -0.0875  0.0624  2.9121
  142SAPE  C22015558   6.327   4.677   9.136  0.2208  0.9949 -0.3656
  142SAPE  H20R15559   6.273   4.640   9.046  0.7903 -0.1251 -0.2471
  142SAPE  H20S15560   6.415   4.611   9.144 -0.6844 -0.3172 -1.0872
  142SAPE  H20T15561   6.363   4.776   9.101 -0.0734  0.7145 -1.4799
  142SAPE   C3315562   6.883   5.089  10.485 -0.0083 -0.9176  0.8450
  142SAPE   H3X15563   6.989   5.077  10.455 -0.4518  1.0263 -1.6639
  142SAPE   H3Y15564   6.866   5.190  10.528  2.4897 -1.0461  2.2279
  142SAPE   C3415565   6.789   5.073  10.357  0.0281 -0.3071 -0.3674
  142SAPE   H4X15566   6.683   5.059  10.385  0.0377  1.5115  0.5997
  142SAPE   H4Y15567   6.823   4.983  10.301  1.0799 -0.3510  0.3339
  142SAPE   C3515568   6.808   5.209  10.280  0.1458 -0.5310 -0.4855
  142SAPE   H5X15569   6.916   5.225  10.258  0.0621  0.8777  0.0802
  142SAPE   H5Y15570   6.781   5.292  10.348  0.0686 -1.2574  0.3845
  142SAPE   C3615571   6.720   5.208  10.160 -0.2142 -0.6530 -0.4666
  142SAPE   H6X15572   6.722   5.307  10.111  0.7554  0.7449  2.3039
  142SAPE   H6Y15573   6.621   5.191  10.209 -0.0199  0.2839  0.2555
  142SAPE   C3715574   6.761   5.099  10.052 -0.4149 -0.4464 -0.3338
  142SAPE   H7X15575   6.772   5.000  10.103 -1.0122  1.8258  4.4812
  142SAPE   H7Y15576   6.859   5.133  10.012  0.3376 -1.2764  0.7662
  142SAPE   C3815577   6.666   5.084   9.930 -0.2346 -0.6841 -0.1851
  142SAPE   H8X15578   6.708   5.146   9.849  1.8927 -0.7180  0.8407
  142SAPE   H8Y15579   6.560   5.109   9.953  0.8071 -0.0069  4.5088
  142SAPE   C3915580   6.667   4.943   9.868  0.1669 -0.3349  0.5726
  142SAPE   H9X15581   6.620   4.879   9.946  0.1473 -0.9376  0.0678
  142SAPE   H9Y15582   6.772   4.909   9.853  0.6968  1.6799 -0.4825
  142SAPE  C31015583   6.580   4.933   9.745 -0.2451  0.3390  0.5606
  142SAPE  H10X15584   6.494   5.002   9.762  0.7262  1.9224 -0.8305
  142SAPE  H10Y15585   6.542   4.828   9.745  2.1700 -0.5670 -0.8653
  142SAPE  C31115586   6.643   4.966   9.609  0.0626 -0.3495  0.0273
  142SAPE  H11X15587   6.720   4.889   9.588  0.4841 -0.0985  0.6258
  142SAPE  H11Y15588   6.677   5.072   9.614 -2.1033  0.3778  0.1095
  142SAPE  C31215589   6.540   4.962   9.495 -0.6114  0.3029  0.5890
  142SAPE  H12X15590   6.444   5.009   9.524  0.0711  0.3743  2.8356
  142SAPE  H12Y15591   6.525   4.854   9.472 -0.2188  0.1073  1.2494
  142SAPE  C31315592   6.607   5.026   9.369 -0.0423 -0.7072 -0.5718
  142SAPE  H13X15593   6.704   4.972   9.366 -0.0483 -0.6912 -1.2738
  142SAPE  H13Y15594   6.628   5.131   9.397 -0.7105  0.2822 -3.5545
  142SAPE  C31415595   6.537   5.018   9.232  0.3062 -0.5935 -0.9004
  142SAPE  H14X15596   6.434   4.980   9.248  0.6180  0.3171  3.9706
  142SAPE  H14Y15597   6.583   4.933   9.177  0.7709 -1.3253  0.6004
  142SAPE  C31515598   6.540   5.152   9.162  0.8451  0.4235  0.0419
  142SAPE  H15X15599   6.486   5.230   9.220 -0.1952  0.4776 -0.9888
  142SAPE  H15Y15600   6.475   5.142   9.072  1.5361  0.1637 -0.4351
  142SAPE  C31615601   6.686   5.197   9.137  0.1189  0.2425  0.0672
  142SAPE  H16X15602   6.758   5.112   9.128  0.7499  0.7712  0.1490
  142SAPE  H16Y15603   6.721   5.259   9.222 -1.2246  0.0351  0.7809
  142SAPE  C31715604   6.689   5.284   9.008  0.5635  1.1269 -0.7843
  142SAPE  H17X15605   6.614   5.365   9.026  1.9644  1.8933  1.9506
  142SAPE  H17Y15606   6.647   5.239   8.916  1.4740  1.8982 -1.5824
  142SAPE  C31815607   6.820   5.357   8.977 -0.0516 -0.7260  0.0360
  142SAPE  H18X15608   6.804   5.420   8.887 -0.7430  0.2111  0.8047
  142SAPE  H18Y15609   6.898   5.283   8.952 -0.7125 -0.9461 -1.4928
  142SAPE  H18Z15610   6.852   5.419   9.063 -0.8770 -1.2310  0.7055
  143SAPE     N15611   1.355   5.552  11.394 -0.2828  0.1852  0.5854
  143SAPE   HN115612   1.366   5.655  11.392 -0.4496  0.2508  2.2508
  143SAPE   HN215613   1.319   5.521  11.487 -0.6216 -0.9057  0.0966
  143SAPE   HN315614   1.447   5.504  11.382  0.5920  1.9315  0.2208
  143SAPE   C1215615   1.255   5.507  11.286  0.3774  0.0679 -0.0401
  143SAPE  H12A15616   1.156   5.491  11.333  0.7347  1.9562  1.4258
  143SAPE  H12B15617   1.297   5.413  11.244  0.7398 -0.1324  0.7642
  143SAPE   C1115618   1.228   5.607  11.173 -0.1219  0.6909  0.5034
  143SAPE  H11A15619   1.181   5.701  11.209  0.0542  0.8205  0.3935
  143SAPE  H11B15620   1.149   5.556  11.112 -0.1281  2.1533 -0.7401
  143SAPE     P15621   1.362   5.752  11.015  0.3423 -0.0658  0.1946
  143SAPE   O1315622   1.360   5.871  11.107  0.2894  0.1208  0.2425
  143SAPE   O1415623   1.485   5.741  10.934  0.3426  0.5925  0.5275
  143SAPE   O1215624   1.347   5.624  11.098  0.4180  0.1361  0.5258
  143SAPE   O1115625   1.239   5.765  10.925  0.2650 -0.6038 -0.3638
  143SAPE    C115626   1.196   5.662  10.832 -0.1499 -0.6245  0.0311
  143SAPE    HA15627   1.231   5.562  10.864 -0.5411  0.2711  3.4920
  143SAPE    HB15628   1.085   5.657  10.833 -0.1667 -0.2907 -0.1350
  143SAPE    C215629   1.249   5.695  10.690  0.3213  0.2523  0.2241
  143SAPE    HS15630   1.350   5.738  10.701  0.5788 -0.3887  0.3665
  143SAPE   O2115631   1.153   5.787  10.627  1.0671 -0.3819  0.6811
  143SAPE   C2115632   1.182   5.914  10.625 -0.1459 -0.0496  0.4730
  143SAPE   O2215633   1.287   5.962  10.667 -0.4929  0.0456  0.2466
  143SAPE   C2215634   1.080   5.993  10.541 -0.2122  0.4694 -0.4527
  143SAPE   H2R15635   0.999   5.922  10.513 -0.0641 -0.4250  1.2946
  143SAPE   H2S15636   1.042   6.071  10.612  1.9778  0.4549  0.7848
  143SAPE    C315637   1.250   5.560  10.608  0.4991 -0.3098  0.9965
  143SAPE    HX15638   1.143   5.543  10.585  1.0279 -0.3522 -1.7032
  143SAPE    HY15639   1.297   5.484  10.674 -2.7800 -1.5322  2.0014
  143SAPE   O3115640   1.331   5.573  10.493 -0.3269 -0.5682  0.2977
  143SAPE   C3115641   1.339   5.473  10.412 -0.1982 -0.0015 -0.6831
  143SAPE   O3215642   1.274   5.370  10.423  0.2893 -0.5507 -0.1555
  143SAPE   C3215643   1.420   5.520  10.286  0.3274  0.0630 -0.3566
  143SAPE   H2X15644   1.510   5.579  10.312  0.4926 -0.3130 -0.0720
  143SAPE   H2Y15645   1.351   5.584  10.226  2.1066  3.5083  1.1407
  143SAPE   C2315646   1.148   6.067  10.419  0.5446  0.1548 -0.6983
  143SAPE   H3R15647   1.242   6.115  10.453  0.8962 -1.0595  0.0577
  143SAPE   H3S15648   1.083   6.154  10.392 -0.7635 -0.5598  0.0781
  143SAPE   C2415649   1.169   5.981  10.296 -0.9192 -0.2749 -0.0549
  143SAPE   H4R15650   1.222   5.890  10.329  0.4620  0.4555 -0.2326
  143SAPE   H4S15651   1.235   6.034  10.224 -0.6206  0.4703  0.7558
  143SAPE   C2515652   1.040   5.935  10.230  0.5072 -0.3903 -0.5688
  143SAPE   H5R15653   0.960   5.908  10.301 -0.6413  2.7139 -0.5915
  143SAPE   C2615654   1.011   5.903  10.103 -0.3291 -0.3427  0.4631
  143SAPE   H6R15655   0.904   5.888  10.079  0.2230 -1.0080 -1.6929
  143SAPE   C2715656   1.108   5.908   9.983  0.6246 -0.2849  0.2874
  143SAPE   H7R15657   1.129   5.806   9.942 -2.5125  0.3064 -3.0862
  143SAPE   H7S15658   1.206   5.957   9.999  0.3857  0.7434 -1.2944
  143SAPE   C2815659   1.039   5.990   9.878  0.2966 -0.8186  0.3537
  143SAPE   H8R15660   1.018   6.090   9.917  2.6861  0.1230 -0.7067
  143SAPE   C2915661   0.998   5.949   9.757 -0.0080 -0.4101  0.6244
  143SAPE   H9R15662   0.951   6.024   9.692  1.1868 -0.6387 -0.5313
  143SAPE  C21015663   1.019   5.811   9.702 -0.1018 -0.2827 -0.3633
  143SAPE  H10R15664   0.919   5.776   9.666 -0.8216  2.6334 -1.3139
  143SAPE  H10S15665   1.040   5.727   9.772  0.1183 -0.5456 -0.7429
  143SAPE  C21115666   1.126   5.807   9.597 -0.1304 -0.3115  0.3684
  143SAPE  H11R15667   1.220   5.770   9.640 -0.8140 -1.1342  1.2014
  143SAPE  C21215668   1.126   5.831   9.464  0.2349  0.1257 -0.2663
  143SAPE  H12R15669   1.213   5.805   9.402 -0.2357 -0.9007 -0.5063
  143SAPE  C21315670   0.997   5.854   9.378  0.0651  0.5869 -0.5307
  143SAPE  H13R15671   1.018   5.931   9.300  1.7087 -0.7815 -1.4800
  143SAPE  H13S15672   0.907   5.888   9.434  1.0287  0.5491  1.0825
  143SAPE  C21415673   0.966   5.722   9.316  0.3138  0.0690  0.1977
  143SAPE  H14R15674   0.937   5.646   9.390 -0.8604 -2.4992 -2.8272
  143SAPE  C21515675   0.960   5.686   9.184 -0.5630 -0.8290 -0.7356
  143SAPE  H15R15676   0.928   5.581   9.175  0.7595 -1.5049  1.9830
  143SAPE  C21615677   0.979   5.770   9.057 -0.4060 -0.0726  0.9201
  143SAPE  H16R15678   1.068   5.726   9.009 -0.6734 -0.4931  0.8091
  143SAPE  H16S15679   1.003   5.876   9.083 -0.4045 -0.1980  1.4354
  143SAPE  C21715680   0.855   5.782   8.964  0.8250 -0.1121 -0.2460
  143SAPE  H17R15681   0.888   5.842   8.876  1.7069  1.6834  1.2631
  143SAPE  H17S15682   0.776   5.833   9.024  2.1944  1.5240  0.2253
  143SAPE  C21815683   0.807   5.647   8.910  0.0724  0.0988 -0.4726
  143SAPE  H18R15684   0.710   5.656   8.857 -0.6819 -1.1375  0.6559
  143SAPE  H18S15685   0.782   5.589   9.002 -0.4468  0.1471 -0.5875
  143SAPE  C21915686   0.909   5.574   8.823 -0.4710  0.0299 -0.1000
  143SAPE  H19R15687   1.009   5.614   8.850 -1.6057  2.4328  0.7110
  143SAPE  H19S15688   0.891   5.587   8.714 -0.9725 -0.7756 -0.1171
  143SAPE  C22015689   0.895   5.424   8.852  0.3518  0.4961  0.0611
  143SAPE  H20R15690   0.923   5.390   8.954 -3.3398 -0.6310  0.7630
  143SAPE  H20S15691   0.950   5.366   8.774  1.7460  1.5271  0.2588
  143SAPE  H20T15692   0.788   5.402   8.837  0.4422  1.0855 -1.5917
  143SAPE   C3315693   1.453   5.388  10.201 -0.2091  0.1724  1.1132
  143SAPE   H3X15694   1.361   5.327  10.186  0.8561 -1.2004 -0.0213
  143SAPE   H3Y15695   1.524   5.328  10.262  1.4126 -0.1797 -1.0712
  143SAPE   C3415696   1.518   5.408  10.066 -0.1946  0.4367  0.7735
  143SAPE   H4X15697   1.615   5.462  10.073  0.9153 -1.4465  0.2610
  143SAPE   H4Y15698   1.449   5.471  10.006  1.2489  0.6881 -0.6404
  143SAPE   C3515699   1.544   5.266  10.013 -0.0216 -0.0622  0.1226
  143SAPE   H5X15700   1.447   5.214  10.031  0.2771 -0.1056  1.6695
  143SAPE   H5Y15701   1.623   5.212  10.070  1.8148  1.6937 -0.7115
  143SAPE   C3615702   1.570   5.256   9.865  0.2652  0.2038 -0.1606
  143SAPE   H6X15703   1.667   5.301   9.835 -0.1530 -0.1432 -2.1730
  143SAPE   H6Y15704   1.492   5.311   9.807 -1.1988 -0.2156  1.3899
  143SAPE   C3715705   1.560   5.110   9.806  0.0201  0.7280 -0.0342
  143SAPE   H7X15706   1.476   5.048   9.843  1.3860 -0.9952  0.3020
  143SAPE   H7Y15707   1.651   5.058   9.845  0.0609  0.5459 -0.3702
  143SAPE   C3815708   1.562   5.102   9.655  0.1505 -0.6739 -0.1334
  143SAPE   H8X15709   1.631   5.184   9.624  0.6155 -1.6061 -1.5827
  143SAPE   H8Y15710   1.456   5.106   9.625  0.2703 -1.3001 -0.6533
  143SAPE   C3915711   1.621   4.969   9.606 -0.5085  0.3285  0.2409
  143SAPE   H9X15712   1.573   4.893   9.671  1.3431 -0.3078  0.9019
  143SAPE   H9Y15713   1.730   4.956   9.624 -0.6113 -0.0575  0.6128
  143SAPE  C31015714   1.596   4.943   9.456  0.1476 -0.7218 -0.9574
  143SAPE  H10X15715   1.486   4.934   9.444  0.0356 -0.7875  0.1161
  143SAPE  H10Y15716   1.636   4.846   9.420 -1.9088 -1.2271 -1.9731
  143SAPE  C31115717   1.634   5.066   9.368 -0.5897 -0.1076 -0.5282
  143SAPE  H11X15718   1.744   5.079   9.369 -0.1860 -3.0532  1.9030
  143SAPE  H11Y15719   1.585   5.156   9.412 -0.7706 -0.3565 -0.2172
  143SAPE  C31215720   1.588   5.050   9.224 -0.2813 -0.3909 -0.2990
  143SAPE  H12X15721   1.479   5.036   9.213 -0.7969  1.1590  2.5635
  143SAPE  H12Y15722   1.626   4.954   9.183  2.5887  0.1814  0.9276
  143SAPE  C31315723   1.644   5.158   9.124  0.5554 -0.0886 -0.5465
  143SAPE  H13X15724   1.753   5.174   9.140  0.3544  0.3972  0.3964
  143SAPE  H13Y15725   1.594   5.252   9.153 -0.4755 -0.8864  0.3240
  143SAPE  C31415726   1.623   5.123   8.981  0.5583 -0.1115  0.4783
  143SAPE  H14X15727   1.513   5.127   8.967  0.7122  0.0369 -0.8389
  143SAPE  H14Y15728   1.656   5.018   8.963  1.2410  0.1597  0.1382
  143SAPE  C31515729   1.693   5.216   8.878  0.4118  0.0303 -0.8405
  143SAPE  H15X15730   1.796   5.227   8.919  0.0454 -1.6623  0.6092
  143SAPE  H15Y15731   1.646   5.317   8.884 -0.4218 -0.4152  0.4856
  143SAPE  C31615732   1.676   5.181   8.734 -0.1667 -0.4672  0.3000
  143SAPE  H16X15733   1.717   5.256   8.663 -1.2251 -0.2060 -0.0565
  143SAPE  H16Y15734   1.570   5.167   8.702  0.0672  0.7715 -1.0340
  143SAPE  C31715735   1.748   5.046   8.701 -0.0942 -0.0126 -0.4391
  143SAPE  H17X15736   1.699   4.962   8.755  1.4544 -2.3864 -2.6142
  143SAPE  H17Y15737   1.846   5.041   8.753 -0.2008 -1.2873 -0.3456
  143SAPE  C31815738   1.775   5.016   8.557 -0.2706 -0.7107  1.0536
  143SAPE  H18X15739   1.688   5.014   8.488  3.0497  0.6073 -3.4003
  143SAPE  H18Y15740   1.839   4.926   8.553 -0.3279 -0.7429  0.8512
  143SAPE  H18Z15741   1.836   5.100   8.516  0.9807 -1.8250  0.6186
  144SAPE     N15742   5.039   3.553  10.674 -0.2730 -0.0793  0.0559
  144SAPE   HN115743   5.005   3.622  10.603  0.4967 -1.0824 -1.3247
  144SAPE   HN215744   5.125   3.505  10.642 -0.3404  0.7900 -1.5435
  144SAPE   HN315745   4.974   3.474  10.691 -1.7008  1.2670  0.9707
  144SAPE   C1215746   5.061   3.605  10.815  0.4043 -0.2386  0.1127
  144SAPE  H12A15747   4.970   3.658  10.849  0.5627  0.5925 -0.7342
  144SAPE  H12B15748   5.144   3.679  10.812 -1.1190  1.4568 -1.1341
  144SAPE   C1115749   5.097   3.481  10.900 -0.1696  0.6801  0.0643
  144SAPE  H11A15750   5.125   3.522  10.999 -0.6368  2.1819 -0.4130
  144SAPE  H11B15751   5.191   3.443  10.854 -0.0918  1.2358 -0.2349
  144SAPE     P15752   4.912   3.328  11.021 -0.5222 -0.0827  0.3637
  144SAPE   O1315753   4.966   3.193  11.047 -0.3463  0.2490  0.0380
  144SAPE   O1415754   4.905   3.425  11.133  0.3183  0.4284  0.0896
  144SAPE   O1215755   4.993   3.388  10.893  0.4236  0.1935 -0.5448
  144SAPE   O1115756   4.763   3.309  10.973 -0.1571 -0.6748  0.3870
  144SAPE    C115757   4.712   3.378  10.862 -0.1468 -0.6303 -0.4602
  144SAPE    HA15758   4.628   3.438  10.903  0.5510  0.1593 -0.1808
  144SAPE    HB15759   4.787   3.444  10.814  0.0030 -1.0524 -0.8130
  144SAPE    C215760   4.654   3.277  10.766  0.2980 -0.1396 -0.1889
  144SAPE    HS15761   4.578   3.211  10.813 -0.4749 -0.4268 -1.8005
  144SAPE   O2115762   4.755   3.195  10.720 -0.2121  0.3378  0.1292
  144SAPE   C2115763   4.846   3.241  10.639 -0.2963 -0.1961  0.4113
  144SAPE   O2215764   4.874   3.358  10.606 -0.7672  0.3383 -0.3090
  144SAPE   C2215765   4.913   3.129  10.566 -0.2980  1.2058 -0.6337
  144SAPE   H2R15766   5.008   3.104  10.619 -0.5450  0.0647 -0.7169
  144SAPE   H2S15767   4.849   3.039  10.582  0.3141  0.4873 -2.1895
  144SAPE    C315768   4.575   3.344  10.647 -0.3223  0.1028 -0.0321
  144SAPE    HX15769   4.625   3.439  10.617 -2.1029  2.3283  3.7523
  144SAPE    HY15770   4.482   3.379  10.697  0.8912  1.1813  1.4957
  144SAPE   O3115771   4.548   3.254  10.536 -1.0031 -0.4967 -0.1621
  144SAPE   C3115772   4.524   3.310  10.418  1.3969 -0.1522  0.4871
  144SAPE   O3215773   4.524   3.430  10.396 -0.3495  0.1350  0.1948
  144SAPE   C3215774   4.479   3.200  10.312  0.4193  0.0048  0.1547
  144SAPE   H2X15775   4.368   3.210  10.305  0.3145 -1.4150 -0.4575
  144SAPE   H2Y15776   4.500   3.098  10.349  0.4888 -1.1440 -2.8926
  144SAPE   C2315777   4.939   3.149  10.416  0.7390  0.7735 -0.2197
  144SAPE   H3R15778   4.999   3.242  10.404  1.1133  0.7161  1.0996
  144SAPE   H3S15779   4.840   3.163  10.368  0.0029 -1.8262  0.4465
  144SAPE   C2415780   5.008   3.035  10.342  0.0773  0.0826 -0.0661
  144SAPE   H4R15781   5.096   2.995  10.397  0.6162 -2.1304 -2.4467
  144SAPE   H4S15782   5.060   3.087  10.258 -1.7117  1.6317 -0.2320
  144SAPE   C2515783   4.951   2.907  10.300  0.2276 -0.0607  0.1778
  144SAPE   H5R15784   4.961   2.836  10.383 -2.3505 -2.5116 -1.5344
  144SAPE   C2615785   4.898   2.876  10.179 -0.7681  0.0857 -0.3367
  144SAPE   H6R15786   4.878   2.770  10.155  3.5173 -0.8067 -0.4447
  144SAPE   C2715787   4.892   2.969  10.063  0.9559 -0.3535  0.4153
  144SAPE   H7R15788   4.895   3.070  10.110 -1.0196 -0.0076 -0.1652
  144SAPE   H7S15789   4.793   2.950  10.016  0.7683 -1.4379  1.2254
  144SAPE   C2815790   5.004   2.961   9.966  0.7156  0.1418  0.8640
  144SAPE   H8R15791   5.104   2.977  10.008  1.7736 -0.8729 -1.1416
  144SAPE   C2915792   4.994   2.938   9.833  0.1350  0.1134 -0.2005
  144SAPE   H9R15793   5.084   2.935   9.771 -0.4227 -0.8399 -0.9750
  144SAPE  C21015794   4.871   2.915   9.745 -0.0283  0.2127  1.1179
  144SAPE  H10R15795   4.775   2.918   9.801 -0.2124 -1.3579  0.9249
  144SAPE  H10S15796   4.875   2.810   9.708 -1.8466  0.4500  0.1674
  144SAPE  C21115797   4.859   3.009   9.627  0.0754  0.1770 -0.8239
  144SAPE  H11R15798   4.803   3.103   9.640  0.0966 -0.0991  1.3357
  144SAPE  C21215799   4.913   2.988   9.511 -0.3757 -0.8292 -0.1923
  144SAPE  H12R15800   4.906   3.060   9.428  2.5208 -0.4801 -0.1935
  144SAPE  C21315801   4.989   2.869   9.457  0.1162 -0.4371 -0.0565
  144SAPE  H13R15802   5.018   2.813   9.549 -0.8317 -0.9503 -0.0741
  144SAPE  H13S15803   5.081   2.893   9.400 -0.2705 -1.4260 -1.1037
  144SAPE  C21415804   4.887   2.784   9.386  0.0677  0.8523  0.3309
  144SAPE  H14R15805   4.804   2.754   9.451 -0.0332  0.4213  0.0002
  144SAPE  C21515806   4.882   2.745   9.254  0.8703 -0.1645  0.1269
  144SAPE  H15R15807   4.801   2.684   9.212 -0.2240 -0.2742  2.3205
  144SAPE  C21615808   4.992   2.784   9.156  0.2574  0.4023  0.2065
  144SAPE  H16R15809   5.087   2.761   9.207  0.5589 -0.8635 -0.8731
  144SAPE  H16S15810   4.992   2.887   9.115 -2.5457  0.4213  0.1645
  144SAPE  C21715811   4.984   2.694   9.035 -0.1178  0.6789 -0.3290
  144SAPE  H17R15812   4.879   2.689   9.000 -0.0597 -2.6023 -0.1788
  144SAPE  H17S15813   5.011   2.593   9.074 -1.5576  1.2664  2.3826
  144SAPE  C21815814   5.080   2.732   8.923  0.2493  0.2983  0.0683
  144SAPE  H18R15815   5.185   2.723   8.959 -0.0631  1.7593  1.3921
  144SAPE  H18S15816   5.073   2.837   8.886 -1.8008 -0.5200 -1.9579
  144SAPE  C21915817   5.060   2.642   8.805  0.5852  0.1684  0.2268
  144SAPE  H19R15818   5.040   2.536   8.831  1.9751  0.0035  0.6534
  144SAPE  H19S15819   5.155   2.646   8.749 -0.2213  1.6256 -1.0685
  144SAPE  C22015820   4.957   2.695   8.700 -0.0857 -0.0792 -0.7281
  144SAPE  H20R15821   4.853   2.691   8.738  0.3975 -0.5441  0.5509
  144SAPE  H20S15822   4.967   2.630   8.611  0.0740  0.0332 -0.7941
  144SAPE  H20T15823   4.987   2.799   8.675  0.7595 -0.0478  0.3760
  144SAPE   C3315824   4.536   3.239  10.169  0.2283  0.3241  0.0185
  144SAPE   H3X15825   4.646   3.227  10.178  0.3744  0.7362 -1.1756
  144SAPE   H3Y15826   4.512   3.346  10.147  0.9370  1.0882  2.6878
  144SAPE   C3415827   4.484   3.141  10.058  0.6139 -0.5645  0.1299
  144SAPE   H4X15828   4.374   3.153  10.068  0.4501 -0.7910 -1.4040
  144SAPE   H4Y15829   4.505   3.036  10.089 -0.5652 -0.2169  2.2291
  144SAPE   C3515830   4.521   3.181   9.914 -0.0424 -0.6476  0.3210
  144SAPE   H5X15831   4.631   3.191   9.902  0.0240 -2.7556 -1.1355
  144SAPE   H5Y15832   4.474   3.278   9.885  0.2376 -0.9196 -1.0960
  144SAPE   C3615833   4.471   3.080   9.815  0.4552  0.1661  0.0076
  144SAPE   H6X15834   4.363   3.060   9.830  0.4955 -0.4811 -0.5243
  144SAPE   H6Y15835   4.506   2.977   9.838  1.2205  0.3919 -0.1243
  144SAPE   C3715836   4.496   3.123   9.671  0.3533 -0.5457  0.2166
  144SAPE   H7X15837   4.603   3.146   9.657 -0.5520  2.8125 -1.7892
  144SAPE   H7Y15838   4.455   3.224   9.648  0.7405 -0.3068  0.5605
  144SAPE   C3815839   4.455   3.014   9.569  0.1987 -0.0211  0.0387
  144SAPE   H8X15840   4.349   2.993   9.593 -0.4390  1.8292 -1.0286
  144SAPE   H8Y15841   4.520   2.924   9.581 -0.2163 -0.4104 -0.5871
  144SAPE   C3915842   4.463   3.070   9.427  0.3677  0.0032 -0.5804
  144SAPE   H9X15843   4.565   3.111   9.414  0.6086 -0.5731 -0.5212
  144SAPE   H9Y15844   4.401   3.162   9.426  0.1256 -0.1076  1.5052
  144SAPE  C31015845   4.418   2.974   9.325 -0.2108 -0.4048  0.1764
  144SAPE  H10X15846   4.309   2.956   9.338 -0.0054 -1.3684  0.6409
  144SAPE  H10Y15847   4.461   2.875   9.354  0.1568 -0.8765 -1.8793
  144SAPE  C31115848   4.449   3.001   9.183  0.3902  0.1294  0.3785
  144SAPE  H11X15849   4.399   3.099   9.165  0.2521  0.1077  0.6464
  144SAPE  H11Y15850   4.397   2.925   9.121 -0.5902  1.1055 -0.0168
  144SAPE  C31215851   4.604   3.008   9.151 -0.3990  0.1343 -0.2906
  144SAPE  H12X15852   4.632   2.900   9.159  2.8905  1.0626  1.4364
  144SAPE  H12Y15853   4.666   3.054   9.231  0.0956 -2.0343  0.6135
  144SAPE  C31315854   4.649   3.054   9.016  0.7742  0.1401 -0.0936
  144SAPE  H13X15855   4.659   3.165   9.017 -1.3893  0.3578  0.1124
  144SAPE  H13Y15856   4.575   3.030   8.936  0.4921  1.1847 -0.1587
  144SAPE  C31415857   4.786   2.997   8.967  0.1685 -0.5229 -0.3275
  144SAPE  H14X15858   4.772   2.890   8.940 -1.6848 -0.2036 -0.7109
  144SAPE  H14Y15859   4.865   3.014   9.043 -0.0402 -0.1362 -0.1903
  144SAPE  C31515860   4.837   3.075   8.844  0.5142  0.7736  0.5610
  144SAPE  H15X15861   4.933   3.034   8.808 -0.4133  0.1827 -1.2918
  144SAPE  H15Y15862   4.856   3.181   8.870 -0.3661  0.8849  0.7457
  144SAPE  C31615863   4.737   3.069   8.724  0.0606 -0.8167  0.1870
  144SAPE  H16X15864   4.655   3.139   8.746  0.6715 -0.1288  0.2962
  144SAPE  H16Y15865   4.685   2.971   8.717 -1.8162  0.1462  0.5927
  144SAPE  C31715866   4.792   3.108   8.589 -0.1413  0.2296  0.7285
  144SAPE  H17X15867   4.734   3.047   8.515  2.3443 -0.0434 -1.0647
  144SAPE  H17Y15868   4.894   3.065   8.584 -0.4335 -0.8992  3.6489
  144SAPE  C31815869   4.770   3.255   8.540  0.6037 -0.3030  0.1865
  144SAPE  H18X15870   4.812   3.332   8.610  1.0497  0.4875 -0.9351
  144SAPE  H18Y15871   4.662   3.279   8.553  0.2821 -1.4245 -0.4725
  144SAPE  H18Z15872   4.799   3.270   8.434  0.0062 -0.0876  0.0518
  145SAPE     N15873   1.561   4.145  11.455 -0.2960 -1.1289  0.1478
  145SAPE   HN115874   1.465   4.119  11.486 -0.3752 -1.3449 -0.2759
  145SAPE   HN215875   1.627   4.067  11.474  1.3409  0.1232 -0.3087
  145SAPE   HN315876   1.585   4.235  11.501  0.8116  0.0121 -2.5263
  145SAPE   C1215877   1.557   4.147  11.304  0.1280 -0.3044  0.5310
  145SAPE  H12A15878   1.486   4.231  11.285 -0.5811 -0.7156  1.3141
  145SAPE  H12B15879   1.511   4.051  11.273  0.0164  0.4684 -1.7930
  145SAPE   C1115880   1.698   4.169  11.245 -0.3713  0.9592  0.2285
  145SAPE  H11A15881   1.699   4.161  11.134 -0.9111  2.6232  0.0799
  145SAPE  H11B15882   1.768   4.093  11.285  0.3567  1.2354 -0.4965
  145SAPE     P15883   1.738   4.428  11.206 -0.4488 -0.2224  0.1926
  145SAPE   O1315884   1.595   4.455  11.209  0.5722  0.1658  0.8645
  145SAPE   O1415885   1.831   4.519  11.269  0.4452 -0.0110 -0.0634
  145SAPE   O1215886   1.758   4.297  11.280  0.2241  0.4680 -0.3529
  145SAPE   O1115887   1.794   4.405  11.060  0.6807  0.2056 -0.2840
  145SAPE    C115888   1.734   4.467  10.945  0.4729 -0.0921  1.0524
  145SAPE    HA15889   1.686   4.382  10.893  2.5648 -0.8731  0.3117
  145SAPE    HB15890   1.665   4.549  10.974 -0.2718  0.2669 -1.5535
  145SAPE    C215891   1.841   4.523  10.854 -0.3028 -0.4053  0.2322
  145SAPE    HS15892   1.905   4.587  10.918 -0.9579  0.3715  0.1305
  145SAPE   O2115893   1.778   4.603  10.756  0.4194  0.6460  0.5027
  145SAPE   C2115894   1.824   4.723  10.729 -0.4059  0.4780 -0.8064
  145SAPE   O2215895   1.922   4.774  10.788 -0.2332  0.5723  0.3049
  145SAPE   C2215896   1.747   4.796  10.620  0.0362 -0.1798 -0.6569
  145SAPE   H2R15897   1.653   4.738  10.608  1.6201 -3.1399  0.6609
  145SAPE   H2S15898   1.718   4.893  10.664  0.7644  0.1406 -0.8720
  145SAPE    C315899   1.914   4.411  10.781  0.4217  0.4323  0.5040
  145SAPE    HX15900   1.832   4.350  10.737  0.1188 -0.3550  2.1082
  145SAPE    HY15901   1.953   4.337  10.854 -0.0516  1.4632  1.8088
  145SAPE   O3115902   2.003   4.451  10.672 -0.2018 -0.1748  0.2623
  145SAPE   C3115903   2.126   4.478  10.697  0.3405 -0.6153 -0.0207
  145SAPE   O3215904   2.177   4.479  10.810  0.0391  0.7481  0.4645
  145SAPE   C3215905   2.191   4.518  10.562  0.2412 -0.3590 -0.6529
  145SAPE   H2X15906   2.180   4.628  10.553  0.4833 -0.3524 -0.8493
  145SAPE   H2Y15907   2.129   4.473  10.482 -0.3922 -2.0871  0.7560
  145SAPE   C2315908   1.833   4.819  10.492 -0.4874  0.5780  0.8393
  145SAPE   H3R15909   1.910   4.897  10.515 -0.2347  0.3823  0.6587
  145SAPE   H3S15910   1.753   4.860  10.427  0.3053  1.7664  0.5987
  145SAPE   C2415911   1.878   4.690  10.429  0.0301  0.2705 -0.2196
  145SAPE   H4R15912   1.791   4.628  10.401 -1.7863  2.6371  0.0168
  145SAPE   H4S15913   1.924   4.618  10.499  0.0972  0.5181 -0.0105
  145SAPE   C2515914   1.979   4.705  10.316 -0.2594  0.1718 -0.0442
  145SAPE   H5R15915   2.086   4.697  10.340 -0.1498 -0.9865 -0.9144
  145SAPE   C2615916   1.946   4.736  10.192 -0.3673 -1.1955  0.2094
  145SAPE   H6R15917   2.030   4.753  10.123 -0.2419  2.4676  1.1685
  145SAPE   C2715918   1.810   4.757  10.130 -0.2837  0.7955  0.3324
  145SAPE   H7R15919   1.834   4.780  10.024 -0.1515 -0.7627  0.0072
  145SAPE   H7S15920   1.778   4.854  10.175  0.4835  0.7718  0.9335
  145SAPE   C2815921   1.709   4.645  10.133 -0.0191 -0.1309  0.4168
  145SAPE   H8R15922   1.651   4.630  10.225 -0.6858 -2.8154 -0.3874
  145SAPE   C2915923   1.688   4.554  10.036 -1.3261  0.6093 -0.3725
  145SAPE   H9R15924   1.603   4.484  10.038  0.4221 -1.6514 -2.1000
  145SAPE  C21015925   1.762   4.553   9.911 -0.0444 -0.4368 -0.7120
  145SAPE  H10R15926   1.738   4.454   9.868 -0.1840 -0.7831  0.1456
  145SAPE  H10S15927   1.872   4.542   9.920  0.0422  0.2369 -0.9207
  145SAPE  C21115928   1.714   4.655   9.804  0.4379 -0.1241 -0.0914
  145SAPE  H11R15929   1.769   4.750   9.793 -0.5361  0.1893 -2.6238
  145SAPE  C21215930   1.610   4.628   9.718  0.1320 -0.2419  0.1742
  145SAPE  H12R15931   1.593   4.694   9.632 -2.4572  0.4055  1.1233
  145SAPE  C21315932   1.523   4.495   9.717 -0.0866  0.1822 -0.2865
  145SAPE  H13R15933   1.493   4.463   9.819  1.0435 -1.9841 -0.6084
  145SAPE  H13S15934   1.594   4.420   9.675  2.7078  1.6622  1.5821
  145SAPE  C21415935   1.412   4.504   9.616 -0.3856  0.1075  0.2870
  145SAPE  H14R15936   1.321   4.523   9.675 -0.2974 -1.1986  0.8602
  145SAPE  C21515937   1.412   4.491   9.482 -0.4328 -0.0832  0.1309
  145SAPE  H15R15938   1.320   4.481   9.422  1.3315  2.5792 -3.2248
  145SAPE  C21615939   1.534   4.460   9.406  0.7066  0.7907 -0.0506
  145SAPE  H16R15940   1.626   4.492   9.459  0.1495  0.3624  1.1801
  145SAPE  H16S15941   1.536   4.537   9.326 -2.2195 -0.4070 -1.3788
  145SAPE  C21715942   1.523   4.322   9.341  0.0905 -0.5785  0.3555
  145SAPE  H17R15943   1.477   4.247   9.408  0.7428 -0.7458  0.6179
  145SAPE  H17S15944   1.626   4.294   9.311  0.2117  1.3520 -1.1650
  145SAPE  C21815945   1.452   4.317   9.198  0.4145 -0.1781  0.6908
  145SAPE  H18R15946   1.523   4.346   9.118  0.0609 -0.2152  0.3610
  145SAPE  H18S15947   1.369   4.391   9.196 -0.1360 -0.8078 -0.1671
  145SAPE  C21915948   1.397   4.183   9.155 -0.3530 -0.1166 -0.8170
  145SAPE  H19R15949   1.321   4.153   9.230  0.4519 -1.8585 -0.6799
  145SAPE  H19S15950   1.467   4.097   9.160  0.6318  0.6964 -0.4255
  145SAPE  C22015951   1.333   4.190   9.012  0.0630  0.7982 -0.0224
  145SAPE  H20R15952   1.397   4.220   8.926  1.7096  1.0038  1.2598
  145SAPE  H20S15953   1.258   4.272   9.014 -0.1555  0.5848  0.4950
  145SAPE  H20T15954   1.276   4.095   9.005  0.3239  0.7293 -1.2818
  145SAPE   C3315955   2.343   4.478  10.551  0.1510 -0.5765 -0.2733
  145SAPE   H3X15956   2.360   4.369  10.537  1.5276 -0.3188 -0.7091
  145SAPE   H3Y15957   2.393   4.516  10.642  1.2959 -2.7433  0.0372
  145SAPE   C3415958   2.409   4.557  10.436  0.4023 -0.0141 -0.3543
  145SAPE   H4X15959   2.518   4.538  10.433  0.1659 -1.5073 -0.0089
  145SAPE   H4Y15960   2.394   4.665  10.455  1.6862  0.3773 -1.4377
  145SAPE   C3515961   2.345   4.515  10.300 -0.5298 -0.4040  0.0050
  145SAPE   H5X15962   2.234   4.524  10.296 -0.7117 -2.1445  0.7108
  145SAPE   H5Y15963   2.377   4.412  10.273  0.7727  0.0055 -0.0347
  145SAPE   C3615964   2.392   4.604  10.190  0.2928  0.1133 -0.3991
  145SAPE   H6X15965   2.502   4.606  10.175  0.2516  0.7819 -0.6463
  145SAPE   H6Y15966   2.366   4.707  10.224 -1.8028 -0.7720  0.7191
  145SAPE   C3715967   2.319   4.567  10.065  0.1788 -0.4635 -0.5380
  145SAPE   H7X15968   2.209   4.563  10.079  0.4570 -0.4582  1.9554
  145SAPE   H7Y15969   2.357   4.466  10.039  0.1686 -0.7564  0.5512
  145SAPE   C3815970   2.356   4.671   9.956 -0.1031  0.1297  0.5846
  145SAPE   H8X15971   2.466   4.672   9.942 -0.1387 -2.0119  0.0238
  145SAPE   H8Y15972   2.327   4.769  10.000 -2.0300  0.1071 -0.5869
  145SAPE   C3915973   2.289   4.652   9.821  0.0523  0.1326 -0.1576
  145SAPE   H9X15974   2.181   4.630   9.835 -0.6231  1.9210 -2.3921
  145SAPE   H9Y15975   2.325   4.561   9.768 -0.0200  0.1335 -0.2077
  145SAPE  C31015976   2.308   4.771   9.732  0.2533  0.4616 -0.2688
  145SAPE  H10X15977   2.416   4.796   9.725  0.1164  0.4967 -2.6124
  145SAPE  H10Y15978   2.257   4.859   9.776 -1.1986 -0.5934  0.1726
  145SAPE  C31115979   2.255   4.744   9.588 -0.3529 -0.6809  0.6646
  145SAPE  H11X15980   2.286   4.643   9.555 -1.5035 -0.6504 -0.5632
  145SAPE  H11Y15981   2.298   4.829   9.530  0.1680  0.9544  3.3867
  145SAPE  C31215982   2.104   4.751   9.591  0.2423 -0.9861 -0.1859
  145SAPE  H12X15983   2.075   4.847   9.639 -1.3044 -0.9374 -1.1972
  145SAPE  H12Y15984   2.051   4.674   9.652  1.9032 -2.5538 -0.6728
  145SAPE  C31315985   2.034   4.769   9.460 -0.6694  0.5246 -0.2216
  145SAPE  H13X15986   2.108   4.713   9.399  1.3151  1.9123  0.8876
  145SAPE  H13Y15987   2.029   4.876   9.432 -0.5590 -0.0147 -2.3543
  145SAPE  C31415988   1.898   4.694   9.441  0.8211 -0.5322 -0.0658
  145SAPE  H14X15989   1.831   4.734   9.520  0.6032  1.3083 -1.1604
  145SAPE  H14Y15990   1.903   4.587   9.471 -2.1655 -1.0732 -1.3746
  145SAPE  C31515991   1.839   4.700   9.303  0.3344  0.1596 -0.0052
  145SAPE  H15X15992   1.823   4.809   9.287 -0.7505 -0.2520 -1.9010
  145SAPE  H15Y15993   1.745   4.642   9.297  0.3686  0.0415  0.6233
  145SAPE  C31615994   1.937   4.646   9.201 -0.3649  0.7480 -0.0508
  145SAPE  H16X15995   1.969   4.542   9.223 -3.1780 -0.6461 -2.1531
  145SAPE  H16Y15996   2.018   4.722   9.205  1.2965 -0.9475 -0.9814
  145SAPE  C31715997   1.871   4.630   9.060 -1.3160  0.0713  0.4904
  145SAPE  H17X15998   1.797   4.548   9.074  0.3143 -1.4839  0.1214
  145SAPE  H17Y15999   1.955   4.592   8.998 -1.2496  0.8866  0.0730
  145SAPE  C31816000   1.813   4.755   8.998  0.3117 -0.4713  0.0034
  145SAPE  H18X16001   1.724   4.798   9.048 -0.1558 -3.1461  1.5513
  145SAPE  H18Y16002   1.776   4.728   8.897 -0.3582  1.9173 -0.4378
  145SAPE  H18Z16003   1.890   4.835   8.985 -1.9049  1.6296 -0.6549
  146SAPE     N16004   6.250   2.762  10.712 -0.1413  0.0554 -0.8439
  146SAPE   HN116005   6.318   2.693  10.674 -0.0081  0.9152 -2.1848
  146SAPE   HN216006   6.291   2.835  10.774 -0.3207 -0.1220 -0.5139
  146SAPE   HN316007   6.178   2.703  10.760  2.9380 -1.8830  1.5760
  146SAPE   C1216008   6.184   2.843  10.609  0.0414  0.6929  0.3375
  146SAPE  H12A16009   6.090   2.878  10.656  0.1489 -0.7601  1.6541
  146SAPE  H12B16010   6.162   2.777  10.522  1.7386 -0.0184  0.4264
  146SAPE   C1116011   6.291   2.958  10.583  0.2185 -0.3183  0.6028
  146SAPE  H11A16012   6.245   3.019  10.503 -0.0910 -0.2818  0.8071
  146SAPE  H11B16013   6.387   2.914  10.547  0.2647  1.1892 -1.1807
  146SAPE     P16014   6.228   3.166  10.738 -0.1781 -0.1451 -0.3355
  146SAPE   O1316015   6.083   3.124  10.739  0.2923 -0.3855 -1.4158
  146SAPE   O1416016   6.273   3.224  10.867 -0.2056 -0.1565 -1.0089
  146SAPE   O1216017   6.309   3.040  10.691  0.7639  0.1067 -0.5530
  146SAPE   O1116018   6.251   3.278  10.624 -0.6512 -0.5598 -0.2497
  146SAPE    C116019   6.156   3.390  10.626  0.1295 -0.6886  0.0004
  146SAPE    HA16020   6.103   3.406  10.722  3.5176  2.7211  1.4450
  146SAPE    HB16021   6.210   3.485  10.604  1.2382 -1.5048 -0.8395
  146SAPE    C216022   6.059   3.379  10.503  0.2115  0.1927  0.0319
  146SAPE    HS16023   5.992   3.292  10.521 -1.6258  1.7572  0.9508
  146SAPE   O2116024   6.136   3.364  10.382  0.4394 -0.0973 -0.7105
  146SAPE   C2116025   6.145   3.243  10.329 -0.4673  1.0516 -0.3631
  146SAPE   O2216026   6.076   3.146  10.357 -0.2971 -0.0638  0.2412
  146SAPE   C2216027   6.241   3.238  10.222 -0.3829  0.1786  0.3440
  146SAPE   H2R16028   6.201   3.164  10.150 -1.2114  2.4477 -1.6173
  146SAPE   H2S16029   6.252   3.337  10.172  1.9676 -0.2105  0.0384
  146SAPE    C316030   5.966   3.506  10.483  0.0183  0.2254 -0.3974
  146SAPE    HX16031   6.029   3.594  10.506 -1.0480  0.9814 -0.2932
  146SAPE    HY16032   5.880   3.507  10.554 -0.4091  1.2683 -0.9268
  146SAPE   O3116033   5.908   3.511  10.349 -0.4344 -0.6260 -1.1916
  146SAPE   C3116034   5.807   3.429  10.325  0.1681 -0.2736  0.1984
  146SAPE   O3216035   5.757   3.346  10.400  0.0203 -0.1413  0.5269
  146SAPE   C3216036   5.770   3.433  10.173 -0.0765 -0.3368 -0.5622
  146SAPE   H2X16037   5.785   3.536  10.135  0.5961  0.4871  1.8330
  146SAPE   H2Y16038   5.666   3.394  10.174 -0.8076  1.5476  1.7044
  146SAPE   C2316039   6.390   3.208  10.255  0.2003 -0.5009 -0.4213
  146SAPE   H3R16040   6.446   3.214  10.159 -0.9526 -0.7470 -1.1159
  146SAPE   H3S16041   6.390   3.107  10.302 -1.1127  1.2615  3.5339
  146SAPE   C2416042   6.450   3.300  10.357  0.8564  0.0239  0.6464
  146SAPE   H4R16043   6.368   3.329  10.427  0.5813  1.4260 -0.2271
  146SAPE   H4S16044   6.467   3.400  10.313  0.0983 -0.5583 -1.0109
  146SAPE   C2516045   6.577   3.242  10.406  0.0641  0.4527  0.3655
  146SAPE   H5R16046   6.570   3.142  10.450 -2.5810  1.5594  2.5410
  146SAPE   C2616047   6.700   3.294  10.389 -0.4127  0.4466  0.1711
  146SAPE   H6R16048   6.782   3.233  10.432 -1.9423 -1.7429  0.0453
  146SAPE   C2716049   6.743   3.425  10.323  0.4590 -0.2237  0.6916
  146SAPE   H7R16050   6.778   3.495  10.402  0.5248 -1.6817  1.9776
  146SAPE   H7S16051   6.654   3.473  10.277  0.6993  1.1762  1.6557
  146SAPE   C2816052   6.856   3.403  10.226 -0.8198 -0.4139 -0.2779
  146SAPE   H8R16053   6.948   3.361  10.271 -0.0649  0.7552 -0.6886
  146SAPE   C2916054   6.855   3.431  10.097 -0.0036  0.5399  0.2933
  146SAPE   H9R16055   6.950   3.406  10.047  0.5516  2.3822  0.3813
  146SAPE  C21016056   6.748   3.481  10.006 -0.0892  0.2954  0.2965
  146SAPE  H10R16057   6.769   3.547   9.920 -4.0116  1.2951 -0.0108
  146SAPE  H10S16058   6.683   3.543  10.072  0.7774  0.9096  0.5770
  146SAPE  C21116059   6.667   3.366   9.962 -0.4061 -0.1576  0.5724
  146SAPE  H11R16060   6.616   3.311  10.042 -0.2004 -0.6719  0.3587
  146SAPE  C21216061   6.643   3.324   9.831  0.7476  0.2378  0.3939
  146SAPE  H12R16062   6.589   3.230   9.816  0.0652  0.7343 -0.2916
  146SAPE  C21316063   6.704   3.380   9.710 -0.0486  0.9135 -0.3479
  146SAPE  H13R16064   6.730   3.486   9.731  1.2051  0.4339  0.5653
  146SAPE  H13S16065   6.621   3.381   9.636 -1.7528 -0.0814  1.5062
  146SAPE  C21416066   6.826   3.314   9.653  0.2403  0.5702  0.6667
  146SAPE  H14R16067   6.884   3.268   9.734  1.4205 -1.6602 -1.3493
  146SAPE  C21516068   6.868   3.308   9.523 -0.6063  0.4770 -0.6154
  146SAPE  H15R16069   6.944   3.231   9.505 -0.5957  0.7337 -1.6630
  146SAPE  C21616070   6.802   3.380   9.411  0.5175 -0.2862 -0.7025
  146SAPE  H16R16071   6.834   3.486   9.410 -0.1356 -0.0988 -1.7854
  146SAPE  H16S16072   6.693   3.368   9.428  0.9957 -1.1533  2.0484
  146SAPE  C21716073   6.844   3.334   9.272  0.3549  0.2037 -0.7396
  146SAPE  H17R16074   6.946   3.370   9.246 -0.0679  1.6075 -0.4613
  146SAPE  H17S16075   6.769   3.385   9.208 -1.1872  4.3674  4.1441
  146SAPE  C21816076   6.829   3.179   9.249  0.8214 -0.4684  0.4432
  146SAPE  H18R16077   6.720   3.160   9.265  0.2392  1.4469 -1.0120
  146SAPE  H18S16078   6.886   3.120   9.323  1.4585 -1.4898 -0.8353
  146SAPE  C21916079   6.853   3.121   9.111  0.2733 -0.3533 -0.4397
  146SAPE  H19R16080   6.836   3.012   9.114 -1.0138 -0.1359  0.9550
  146SAPE  H19S16081   6.955   3.141   9.073  0.7900 -1.1620  0.5113
  146SAPE  C22016082   6.744   3.166   9.008 -0.3928 -0.0649  0.4847
  146SAPE  H20R16083   6.759   3.136   8.903 -1.8005 -1.4232  0.6488
  146SAPE  H20S16084   6.717   3.274   9.012  1.6719  0.5144 -0.8386
  146SAPE  H20T16085   6.645   3.118   9.022 -1.3498  1.1550 -1.9043
  146SAPE   C3316086   5.861   3.344  10.085 -0.5487 -0.0782 -0.3221
  146SAPE   H3X16087   5.871   3.244  10.132  3.6051 -0.2557 -1.3696
  146SAPE   H3Y16088   5.967   3.379  10.088 -0.4954 -0.1151 -1.6619
  146SAPE   C3416089   5.815   3.326   9.943  1.1566 -0.9302 -0.5068
  146SAPE   H4X16090   5.807   3.416   9.878  0.9012 -0.8215 -0.3241
  146SAPE   H4Y16091   5.708   3.296   9.941  0.3903  1.5175  1.3128
  146SAPE   C3516092   5.882   3.217   9.859 -0.0994  0.1836 -0.1100
  146SAPE   H5X16093   5.865   3.121   9.912  2.2383 -0.4962 -0.5094
  146SAPE   H5Y16094   5.994   3.217   9.862 -0.0704 -0.2996 -0.9651
  146SAPE   C3616095   5.830   3.206   9.718  0.0901 -0.1213  0.6054
  146SAPE   H6X16096   5.829   3.304   9.667  1.6275 -0.0659  0.6558
  146SAPE   H6Y16097   5.723   3.175   9.720 -0.9990  3.3578 -1.1236
  146SAPE   C3716098   5.902   3.095   9.635  0.6108 -0.5130  0.7286
  146SAPE   H7X16099   5.869   2.999   9.681  0.2269 -0.8356 -0.2002
  146SAPE   H7Y16100   6.008   3.119   9.657  0.4069  1.2680 -0.1320
  146SAPE   C3816101   5.864   3.094   9.490 -0.2959 -0.1997  0.2373
  146SAPE   H8X16102   5.871   3.195   9.444 -0.2690  0.1842  1.0850
  146SAPE   H8Y16103   5.753   3.096   9.483 -0.2693  2.7191  0.3258
  146SAPE   C3916104   5.941   2.993   9.400  0.0074  0.6288  0.2335
  146SAPE   H9X16105   5.914   2.894   9.442 -1.8554  2.0786  2.5910
  146SAPE   H9Y16106   6.049   3.014   9.409 -0.1296  1.5139 -0.0974
  146SAPE  C31016107   5.895   2.985   9.250  0.8181  0.8431 -0.5119
  146SAPE  H10X16108   5.951   3.069   9.203  1.0926  0.2678 -1.2191
  146SAPE  H10Y16109   5.784   2.976   9.244  1.1111 -3.5164 -0.8965
  146SAPE  C31116110   5.944   2.855   9.179  0.0041 -0.2806 -0.2692
  146SAPE  H11X16111   5.886   2.766   9.214  2.3573 -2.1425 -0.9897
  146SAPE  H11Y16112   6.048   2.832   9.210 -0.0907  0.8962  0.9760
  146SAPE  C31216113   5.933   2.864   9.027  0.3448 -0.0787 -0.7914
  146SAPE  H12X16114   6.004   2.947   9.008  1.1189 -0.2404  1.3558
  146SAPE  H12Y16115   5.837   2.900   8.984  0.5710  1.2676 -0.1977
  146SAPE  C31316116   5.986   2.740   8.944  0.5832 -0.4103 -0.2294
  146SAPE  H13X16117   5.896   2.689   8.902 -0.0888  1.1569 -0.7606
  146SAPE  H13Y16118   6.032   2.668   9.014  0.3371 -0.2220  0.1271
  146SAPE  C31416119   6.079   2.794   8.845 -0.2157  0.0316  0.9538
  146SAPE  H14X16120   6.160   2.846   8.900  0.3969  0.2731 -0.1608
  146SAPE  H14Y16121   6.022   2.880   8.803  1.6176  1.1266  0.6329
  146SAPE  C31516122   6.130   2.699   8.728 -0.0624 -0.3021 -0.0609
  146SAPE  H15X16123   6.048   2.628   8.702 -0.2424 -0.0585 -0.1546
  146SAPE  H15Y16124   6.216   2.644   8.771  1.3553  1.0455 -1.1319
  146SAPE  C31616125   6.173   2.771   8.601 -0.5671 -0.1324 -0.4792
  146SAPE  H16X16126   6.081   2.819   8.561 -0.6688  0.5700  0.5719
  146SAPE  H16Y16127   6.204   2.697   8.525 -0.4697  0.6079 -1.1620
  146SAPE  C31716128   6.288   2.875   8.617  0.9094  0.2351  0.5593
  146SAPE  H17X16129   6.241   2.955   8.678 -2.1292 -1.6036  0.7167
  146SAPE  H17Y16130   6.326   2.918   8.522  1.1731  1.1893  1.0937
  146SAPE  C31816131   6.414   2.823   8.690  0.4138  0.3513  0.8495
  146SAPE  H18X16132   6.385   2.794   8.793  1.5743  1.0236  1.3722
  146SAPE  H18Y16133   6.504   2.888   8.691 -0.5561  1.7051  1.1756
  146SAPE  H18Z16134   6.429   2.728   8.634  1.5580  0.6452  0.6355
  147SAPE     N16135   3.538   1.705   5.926  0.0702  0.2743  0.2200
  147SAPE   HN116136   3.526   1.691   5.823 -0.6543  0.9322  0.2093
  147SAPE   HN216137   3.634   1.676   5.951  1.0758  3.1328 -0.1150
  147SAPE   HN316138   3.469   1.638   5.967  2.2299 -2.8980 -1.1090
  147SAPE   C1216139   3.511   1.852   5.961 -0.0356 -0.0474  0.8309
  147SAPE  H12A16140   3.420   1.896   5.916  0.7808  0.2709 -0.5588
  147SAPE  H12B16141   3.595   1.907   5.914 -1.4730  0.5797 -1.0414
  147SAPE   C1116142   3.510   1.882   6.109 -0.2709 -0.0804  0.6792
  147SAPE  H11A16143   3.504   1.991   6.129 -1.2756 -0.2522  1.3371
  147SAPE  H11B16144   3.609   1.859   6.154  0.7538  0.0625 -1.4152
  147SAPE     P16145   3.402   1.790   6.326 -0.3719 -0.8400 -0.0484
  147SAPE   O1316146   3.281   1.859   6.385  0.3823  0.3944 -0.4144
  147SAPE   O1416147   3.397   1.642   6.335 -0.0460  0.3376 -0.4966
  147SAPE   O1216148   3.401   1.820   6.171 -0.2400  0.5998  0.3348
  147SAPE   O1116149   3.535   1.849   6.391  0.0703 -0.0995  0.8307
  147SAPE    C116150   3.659   1.779   6.396  0.2060  0.5876  0.0694
  147SAPE    HA16151   3.662   1.693   6.326 -1.8975  1.0449 -0.6377
  147SAPE    HB16152   3.741   1.847   6.364  1.1392 -0.8735 -0.6904
  147SAPE    C216153   3.704   1.739   6.542 -0.1547 -0.8971  0.1472
  147SAPE    HS16154   3.809   1.703   6.534  0.7330  1.5815  0.1264
  147SAPE   O2116155   3.600   1.655   6.593  0.8727  0.4661  1.4219
  147SAPE   C2116156   3.599   1.535   6.534 -0.4997 -0.8008  0.6716
  147SAPE   O2216157   3.689   1.494   6.460 -0.0758  0.1983 -0.1215
  147SAPE   C2216158   3.490   1.441   6.577 -0.6778 -0.6523 -0.7001
  147SAPE   H2R16159   3.401   1.499   6.610  1.6783  3.1446 -0.7454
  147SAPE   H2S16160   3.461   1.376   6.492 -2.0238 -0.0865 -0.6816
  147SAPE    C316161   3.713   1.872   6.628  0.1335  0.2467 -0.3727
  147SAPE    HX16162   3.616   1.926   6.613  1.3395  2.1414 -1.5755
  147SAPE    HY16163   3.788   1.941   6.583 -1.1248  1.5075 -0.6000
  147SAPE   O3116164   3.726   1.856   6.771  0.5570  0.1857 -0.2290
  147SAPE   C3116165   3.849   1.883   6.823 -0.5668  0.0953  0.2527
  147SAPE   O3216166   3.946   1.893   6.759 -0.0192  0.3271  0.3740
  147SAPE   C3216167   3.848   1.880   6.975  0.1657 -0.8523  0.0288
  147SAPE   H2X16168   3.792   1.796   7.020 -0.1212 -0.3286  0.6458
  147SAPE   H2Y16169   3.799   1.973   7.010  0.4640 -0.4374 -0.6328
  147SAPE   C2316170   3.554   1.357   6.686 -0.2644 -0.1127  0.1345
  147SAPE   H3R16171   3.597   1.423   6.765 -0.3157 -0.8203  0.7594
  147SAPE   H3S16172   3.638   1.299   6.641  0.9402  1.4276  0.3590
  147SAPE   C2416173   3.456   1.255   6.758 -0.0624  0.4693  0.0778
  147SAPE   H4R16174   3.518   1.201   6.833  1.6821  1.6560 -0.4807
  147SAPE   H4S16175   3.421   1.180   6.683  1.1795 -1.3080  1.2327
  147SAPE   C2516176   3.330   1.312   6.822 -0.1257  0.8731  0.3261
  147SAPE   H5R16177   3.274   1.373   6.750  0.9392  0.4175 -0.8986
  147SAPE   C2616178   3.293   1.295   6.949 -0.3831  0.4600  0.2598
  147SAPE   H6R16179   3.197   1.339   6.980 -0.7054  0.1318 -0.2609
  147SAPE   C2716180   3.368   1.212   7.055 -0.3867  0.1560 -0.0453
  147SAPE   H7R16181   3.477   1.234   7.050 -0.8614  2.2965 -1.9174
  147SAPE   H7S16182   3.361   1.104   7.028  0.7502 -1.0373  3.9285
  147SAPE   C2816183   3.307   1.248   7.197  0.0483 -0.0963 -0.1113
  147SAPE   H8R16184   3.249   1.341   7.196 -0.8535 -0.6467 -2.4955
  147SAPE   C2916185   3.328   1.189   7.320 -0.3456  0.1540 -0.5308
  147SAPE   H9R16186   3.285   1.232   7.412  2.4597  2.9558 -0.4245
  147SAPE  C21016187   3.418   1.071   7.328 -0.0179  0.1955  0.5589
  147SAPE  H10R16188   3.513   1.091   7.274 -0.3185  0.6446  0.1810
  147SAPE  H10S16189   3.358   0.997   7.270 -3.0236  0.7825  2.8040
  147SAPE  C21116190   3.436   1.000   7.462  0.0301 -0.0638  0.4265
  147SAPE  H11R16191   3.398   0.897   7.465 -0.5182  0.0597 -1.5562
  147SAPE  C21216192   3.495   1.049   7.574 -0.3448 -0.0178 -0.1806
  147SAPE  H12R16193   3.504   0.986   7.664 -2.1276 -0.4243 -0.2633
  147SAPE  C21316194   3.556   1.182   7.602  0.1297  0.9677 -0.4803
  147SAPE  H13R16195   3.529   1.253   7.520  0.3576  1.3050 -0.2666
  147SAPE  H13S16196   3.667   1.183   7.592  0.5989 -1.2632  3.5594
  147SAPE  C21416197   3.513   1.241   7.734 -0.3555  1.1216 -0.0303
  147SAPE  H14R16198   3.417   1.293   7.730 -1.3084 -0.7098 -2.5966
  147SAPE  C21516199   3.582   1.248   7.846  0.0656 -0.1586  0.7069
  147SAPE  H15R16200   3.536   1.297   7.933  0.0027  3.7647 -1.4502
  147SAPE  C21616201   3.710   1.181   7.861 -1.0798  0.6724  0.0369
  147SAPE  H16R16202   3.797   1.250   7.854 -0.9881  0.7887  1.8845
  147SAPE  H16S16203   3.727   1.102   7.785  1.0263  1.3329 -0.1996
  147SAPE  C21716204   3.730   1.116   7.999 -0.2853  0.5911 -0.6465
  147SAPE  H17R16205   3.664   1.027   8.013  0.0019  0.4962  0.1011
  147SAPE  H17S16206   3.712   1.180   8.088  1.5284  2.0161 -1.2807
  147SAPE  C21816207   3.877   1.075   8.033  0.0727  0.3854 -0.0252
  147SAPE  H18R16208   3.940   1.165   8.020 -1.6286  1.8004  1.1423
  147SAPE  H18S16209   3.915   1.004   7.956  2.5169 -1.8768  3.1053
  147SAPE  C21916210   3.889   1.026   8.183 -0.6195 -0.4932  0.3446
  147SAPE  H19R16211   3.995   1.012   8.215 -0.8861 -2.0159  0.6213
  147SAPE  H19S16212   3.842   0.925   8.185 -1.9776  0.1283  0.4292
  147SAPE  C22016213   3.829   1.111   8.285  0.3681  0.4042  0.4062
  147SAPE  H20R16214   3.859   1.087   8.389  0.2610 -2.2177 -0.1247
  147SAPE  H20S16215   3.718   1.104   8.279  0.4473 -1.9465  1.1596
  147SAPE  H20T16216   3.859   1.217   8.273 -1.3523  0.9400  0.5901
  147SAPE   C3316217   3.989   1.868   7.042 -0.1905  0.0974 -0.4379
  147SAPE   H3X16218   4.037   1.967   7.029 -0.1064  0.2040  0.6634
  147SAPE   H3Y16219   4.045   1.792   6.984  0.3468 -0.5219  0.8644
  147SAPE   C3416220   3.982   1.823   7.191  0.0212 -0.3090 -0.2869
  147SAPE   H4X16221   4.084   1.786   7.216 -0.4555 -0.5978  1.2991
  147SAPE   H4Y16222   3.919   1.732   7.204  0.9866 -1.0821 -0.9164
  147SAPE   C3516223   3.947   1.940   7.294 -0.1658 -0.4924  0.8284
  147SAPE   H5X16224   3.864   2.000   7.251  0.1576 -0.3391  0.4119
  147SAPE   H5Y16225   4.037   2.006   7.297 -0.5627  0.2065 -1.3325
  147SAPE   C3616226   3.904   1.867   7.427  0.4151 -0.4866  0.2599
  147SAPE   H6X16227   3.981   1.791   7.451  1.6018  0.0381 -1.7110
  147SAPE   H6Y16228   3.806   1.822   7.402 -0.2235  1.3783 -0.7638
  147SAPE   C3716229   3.893   1.962   7.547  0.1317  0.1875  0.3102
  147SAPE   H7X16230   3.801   2.023   7.541 -0.5474 -0.9845 -1.7012
  147SAPE   H7Y16231   3.987   2.021   7.538  0.3820 -0.6291 -3.2735
  147SAPE   C3816232   3.893   1.871   7.665 -0.7265 -0.3809 -0.4561
  147SAPE   H8X16233   3.990   1.816   7.666 -0.3960  0.1012  2.8754
  147SAPE   H8Y16234   3.815   1.792   7.665  0.0315 -1.1583 -2.4538
  147SAPE   C3916235   3.865   1.943   7.802  0.0919  0.9176  0.3668
  147SAPE   H9X16236   3.755   1.956   7.802 -0.3253 -2.0832 -2.0660
  147SAPE   H9Y16237   3.916   2.041   7.797 -0.0015  0.9555  0.1242
  147SAPE  C31016238   3.921   1.857   7.917  0.0978  0.2355 -1.2415
  147SAPE  H10X16239   4.028   1.828   7.922 -0.4282 -1.4236  0.8220
  147SAPE  H10Y16240   3.873   1.757   7.907 -1.1963  0.7368 -0.2244
  147SAPE  C31116241   3.872   1.905   8.056  0.3317 -0.3937 -0.0798
  147SAPE  H11X16242   3.786   1.974   8.036  0.8189  0.1807 -0.2199
  147SAPE  H11Y16243   3.944   1.978   8.099 -1.1887  1.1030  0.0058
  147SAPE  C31216244   3.843   1.800   8.164  0.2187  0.0032 -0.3086
  147SAPE  H12X16245   3.939   1.775   8.214 -0.2439  1.9100  1.6150
  147SAPE  H12Y16246   3.802   1.710   8.112 -1.5438  1.7254 -2.0053
  147SAPE  C31316247   3.737   1.835   8.270 -0.5233 -0.0448  0.4218
  147SAPE  H13X16248   3.698   1.735   8.298  3.1581 -1.6452  0.1464
  147SAPE  H13Y16249   3.660   1.898   8.218 -2.1144 -2.2689  0.0020
  147SAPE  C31416250   3.779   1.893   8.406 -0.3752  0.5059 -0.0250
  147SAPE  H14X16251   3.845   1.980   8.385  0.0600  0.3719  0.7618
  147SAPE  H14Y16252   3.833   1.810   8.457 -1.0694 -0.1103 -0.2955
  147SAPE  C31516253   3.663   1.944   8.484  0.3439  0.6682  0.4956
  147SAPE  H15X16254   3.611   2.025   8.429 -0.6137  1.6831  2.8462
  147SAPE  H15Y16255   3.695   1.989   8.580 -0.4632  1.4753  0.3926
  147SAPE  C31616256   3.563   1.830   8.510 -0.1426 -0.0366  0.6030
  147SAPE  H16X16257   3.612   1.758   8.579 -0.6532 -0.3483  0.6405
  147SAPE  H16Y16258   3.525   1.791   8.413 -0.3958  2.3916 -0.3083
  147SAPE  C31716259   3.439   1.874   8.593 -0.2688 -0.4006  0.6464
  147SAPE  H17X16260   3.374   1.947   8.540 -0.0941 -2.5171 -2.6072
  147SAPE  H17Y16261   3.479   1.902   8.693 -1.6565  1.4759  0.6910
  147SAPE  C31816262   3.353   1.746   8.609 -0.2377  0.5813 -0.7834
  147SAPE  H18X16263   3.413   1.662   8.651  0.2780  1.2333 -0.1943
  147SAPE  H18Y16264   3.301   1.716   8.516  1.6968 -2.3328 -0.9736
  147SAPE  H18Z16265   3.277   1.774   8.685 -0.8056  1.0140 -1.5075
  148SAPE     N16266   2.978   5.623   6.637 -0.0421  0.0892  0.4378
  148SAPE   HN116267   3.013   5.544   6.578  1.3629  1.7277 -0.9882
  148SAPE   HN216268   3.027   5.711   6.610 -1.0715  0.0600 -1.6108
  148SAPE   HN316269   3.011   5.609   6.735  2.3510 -0.0562 -0.3423
  148SAPE   C1216270   2.832   5.637   6.613  0.0789  0.3926  0.7590
  148SAPE  H12A16271   2.793   5.534   6.624  1.8848 -0.3697  0.1698
  148SAPE  H12B16272   2.815   5.666   6.507  3.1485  0.1083  0.1314
  148SAPE   C1116273   2.777   5.736   6.712  0.3743  0.0938  0.5142
  148SAPE  H11A16274   2.804   5.729   6.820 -1.6784  0.9584  1.1212
  148SAPE  H11B16275   2.667   5.720   6.724 -0.6325  3.7340 -2.8325
  148SAPE     P16276   2.766   6.007   6.709  0.1279 -0.3047 -0.2009
  148SAPE   O1316277   2.802   6.108   6.605 -0.1426  0.1269  0.4674
  148SAPE   O1416278   2.623   6.000   6.752  0.3423  0.0407 -0.7029
  148SAPE   O1216279   2.806   5.867   6.663 -0.0852 -0.0143 -0.0495
  148SAPE   O1116280   2.851   6.035   6.838 -0.2320  0.5913 -0.2498
  148SAPE    C116281   2.842   5.964   6.958 -0.2248 -0.4320  0.0513
  148SAPE    HA16282   2.753   5.898   6.968 -1.7831  1.4267 -1.1885
  148SAPE    HB16283   2.930   5.896   6.959  0.0208 -0.1198 -0.2547
  148SAPE    C216284   2.862   6.053   7.077 -0.1748  0.3731  0.1916
  148SAPE    HS16285   2.968   6.086   7.071 -0.6930  2.0113 -0.1609
  148SAPE   O2116286   2.844   5.972   7.201 -0.2677 -0.0630  0.6198
  148SAPE   C2116287   2.915   6.027   7.303 -0.1553 -0.5648 -0.1973
  148SAPE   O2216288   3.010   6.101   7.291 -0.6109  0.1814 -0.4274
  148SAPE   C2216289   2.858   5.972   7.438 -0.0511  0.3201  0.1837
  148SAPE   H2R16290   2.850   6.055   7.512  2.5792 -0.4869  1.4389
  148SAPE   H2S16291   2.754   5.942   7.414  0.3080 -1.8172  1.2468
  148SAPE    C316292   2.762   6.168   7.070  0.3531 -0.2481  0.4749
  148SAPE    HX16293   2.659   6.127   7.063 -0.2281  0.9937  1.5767
  148SAPE    HY16294   2.776   6.230   6.978  1.4606 -3.0910 -1.3368
  148SAPE   O3116295   2.769   6.261   7.184 -0.5346  0.4209  0.0802
  148SAPE   C3116296   2.687   6.369   7.166  0.5474  0.0749  1.0052
  148SAPE   O3216297   2.611   6.386   7.069 -0.0300 -0.2532 -0.0529
  148SAPE   C3216298   2.713   6.461   7.279 -0.8456 -0.5815 -0.7966
  148SAPE   H2X16299   2.819   6.490   7.298 -1.4046  2.0181 -1.5609
  148SAPE   H2Y16300   2.689   6.409   7.374 -0.8875  2.9530  1.2096
  148SAPE   C2316301   2.930   5.844   7.495  0.4874 -0.2374  0.2147
  148SAPE   H3R16302   2.940   5.770   7.413 -0.8546  0.3819 -0.5317
  148SAPE   H3S16303   2.863   5.809   7.576 -0.7912 -1.8488 -1.4853
  148SAPE   C2416304   3.069   5.868   7.556 -0.0984 -0.2696 -0.2629
  148SAPE   H4R16305   3.144   5.895   7.479  0.9279 -0.9276  0.5003
  148SAPE   H4S16306   3.109   5.777   7.605  1.8737  0.1235 -1.1115
  148SAPE   C2516307   3.060   5.971   7.661  0.1823 -0.3537  0.0937
  148SAPE   H5R16308   3.092   6.073   7.634  1.0295 -0.4571  0.6767
  148SAPE   C2616309   3.021   5.944   7.792 -0.6841  0.8588  1.0241
  148SAPE   H6R16310   3.006   6.028   7.862  2.9618  1.4536  1.1886
  148SAPE   C2716311   2.968   5.812   7.856  0.4224 -0.2564 -0.1181
  148SAPE   H7R16312   2.957   5.737   7.774  1.1003 -0.5672  0.0636
  148SAPE   H7S16313   2.863   5.823   7.891  1.0961  1.0194  1.5880
  148SAPE   C2816314   3.064   5.743   7.951 -0.2867 -1.1791 -0.5257
  148SAPE   H8R16315   3.130   5.667   7.907  0.7821  0.5154 -1.9127
  148SAPE   C2916316   3.086   5.771   8.079 -0.0534 -0.5742 -0.1334
  148SAPE   H9R16317   3.149   5.699   8.133 -1.7370 -1.3206  0.8868
  148SAPE  C21016318   3.016   5.868   8.174 -0.1912  0.0781  0.5986
  148SAPE  H10R16319   2.935   5.809   8.222 -0.1386 -3.0163 -2.8509
  148SAPE  H10S16320   2.954   5.938   8.114 -0.1041  1.2430  1.8631
  148SAPE  C21116321   3.109   5.944   8.268 -0.5046 -0.3911  0.2294
  148SAPE  H11R16322   3.185   6.005   8.216 -0.4006  0.1807  1.0396
  148SAPE  C21216323   3.107   5.962   8.400  0.0620  0.9586  0.6911
  148SAPE  H12R16324   3.182   6.032   8.439  0.4534  1.9586 -1.7826
  148SAPE  C21316325   3.001   5.908   8.494 -0.0286 -0.1073 -0.6089
  148SAPE  H13R16326   2.935   5.829   8.452 -2.2975  0.6347  1.4222
  148SAPE  H13S16327   2.937   5.998   8.511 -0.8484 -0.9788  1.0178
  148SAPE  C21416328   3.063   5.868   8.631 -0.3336  0.1594  0.0223
  148SAPE  H14R16329   3.104   5.945   8.697 -0.1219  1.8206 -2.0068
  148SAPE  C21516330   3.080   5.739   8.664 -0.3850 -0.1529  0.1569
  148SAPE  H15R16331   3.097   5.709   8.768  0.4028 -0.8087 -0.1549
  148SAPE  C21616332   3.033   5.621   8.573 -0.5740  0.0826  0.3972
  148SAPE  H16R16333   3.036   5.649   8.466 -1.3044  1.5003  0.7197
  148SAPE  H16S16334   2.926   5.608   8.602  0.0037 -2.0744  1.6634
  148SAPE  C21716335   3.119   5.502   8.598  0.1631  0.4009 -0.0283
  148SAPE  H17R16336   3.128   5.487   8.707 -0.7002  0.2436  0.0226
  148SAPE  H17S16337   3.223   5.517   8.562  0.6216  2.2179  1.9426
  148SAPE  C21816338   3.061   5.376   8.525  0.0440  0.0771  0.2196
  148SAPE  H18R16339   3.075   5.383   8.415 -0.6171 -2.6474 -0.0819
  148SAPE  H18S16340   2.951   5.387   8.519 -0.1808 -2.0449  0.0059
  148SAPE  C21916341   3.095   5.239   8.574  0.4934  0.6182 -0.2602
  148SAPE  H19R16342   3.205   5.250   8.560  0.7575  0.9722  1.8979
  148SAPE  H19S16343   3.043   5.165   8.510 -0.6915  0.0388  1.3333
  148SAPE  C22016344   3.062   5.219   8.715  0.3073  0.5180  0.1513
  148SAPE  H20R16345   3.126   5.139   8.757  0.8777 -0.0662 -1.7790
  148SAPE  H20S16346   2.958   5.180   8.720  0.6443 -0.4650 -0.5095
  148SAPE  H20T16347   3.070   5.310   8.779  0.6327  0.7656 -0.2398
  148SAPE   C3316348   2.631   6.593   7.268  0.2029 -0.0072 -0.0967
  148SAPE   H3X16349   2.523   6.568   7.279  0.4331  0.2671  3.0917
  148SAPE   H3Y16350   2.649   6.631   7.165 -1.4588  2.0867  0.3409
  148SAPE   C3416351   2.672   6.694   7.368  0.6720  0.2010  0.0358
  148SAPE   H4X16352   2.606   6.782   7.352 -0.0327  0.2582  3.0320
  148SAPE   H4Y16353   2.775   6.734   7.357 -0.5989  3.6599  0.0796
  148SAPE   C3516354   2.663   6.643   7.508  0.0311 -0.2008  0.1368
  148SAPE   H5X16355   2.580   6.569   7.506 -0.9643  0.8259  1.9052
  148SAPE   H5Y16356   2.626   6.717   7.583 -0.7913  0.2023 -0.6607
  148SAPE   C3616357   2.797   6.585   7.556  0.1299  0.1639 -0.7360
  148SAPE   H6X16358   2.871   6.663   7.527 -1.4993  3.3443  3.1252
  148SAPE   H6Y16359   2.821   6.485   7.515 -0.0428 -1.4091  2.7699
  148SAPE   C3716360   2.791   6.553   7.712 -0.5483  0.1237  0.0157
  148SAPE   H7X16361   2.701   6.489   7.726 -0.3515  0.0529  1.0119
  148SAPE   H7Y16362   2.768   6.651   7.760  2.1663  2.1862 -2.6946
  148SAPE   C3816363   2.925   6.491   7.766  0.9041 -0.4383  0.9382
  148SAPE   H8X16364   3.010   6.547   7.722 -0.6409  0.9150 -0.3990
  148SAPE   H8Y16365   2.933   6.388   7.725  3.1139 -0.4606  1.3715
  148SAPE   C3916366   2.923   6.489   7.918  0.7180 -0.6250 -0.3828
  148SAPE   H9X16367   2.819   6.466   7.951  0.5037  0.8506  0.0058
  148SAPE   H9Y16368   2.936   6.594   7.953 -0.3843 -0.1218 -1.4035
  148SAPE  C31016369   3.029   6.390   7.964 -0.3132  0.2967  0.4376
  148SAPE  H10X16370   3.116   6.405   7.896 -0.0243  0.5161  0.8519
  148SAPE  H10Y16371   2.995   6.285   7.952 -0.4847  0.4757 -0.6950
  148SAPE  C31116372   3.077   6.405   8.108  0.3010 -0.4965 -0.0202
  148SAPE  H11X16373   3.124   6.503   8.130  1.0049 -1.4793  3.0756
  148SAPE  H11Y16374   3.164   6.341   8.133 -0.1819 -0.9075  0.6113
  148SAPE  C31216375   2.963   6.368   8.203 -0.1120  0.1863  0.2260
  148SAPE  H12X16376   2.921   6.269   8.173 -2.1279  0.5517  1.7085
  148SAPE  H12Y16377   2.888   6.449   8.195 -0.1900  0.3101  2.0281
  148SAPE  C31316378   3.009   6.363   8.351  0.0216  0.2209 -0.2410
  148SAPE  H13X16379   3.043   6.463   8.384  1.1768 -0.1532 -0.2619
  148SAPE  H13Y16380   3.094   6.292   8.363  0.2912 -0.1541 -3.6850
  148SAPE  C31416381   2.891   6.310   8.436  0.3743  0.1921 -0.1323
  148SAPE  H14X16382   2.850   6.221   8.384  0.3709  0.6437 -0.9030
  148SAPE  H14Y16383   2.818   6.393   8.441  0.4294  0.4527 -2.9859
  148SAPE  C31516384   2.921   6.266   8.587  0.4020  0.1256  0.1733
  148SAPE  H15X16385   3.005   6.194   8.596  0.1385 -0.1038  0.8003
  148SAPE  H15Y16386   2.826   6.226   8.628  0.6067 -0.6256 -0.0778
  148SAPE  C31616387   2.966   6.387   8.664  0.2114  1.1417  0.4417
  148SAPE  H16X16388   2.914   6.483   8.644 -0.2431  1.2751  2.1385
  148SAPE  H16Y16389   3.070   6.408   8.633  0.6673  0.6594  1.6007
  148SAPE  C31716390   2.940   6.372   8.816  0.5047  0.2149 -0.4531
  148SAPE  H17X16391   3.010   6.293   8.850 -0.4318  0.0672  1.1803
  148SAPE  H17Y16392   2.835   6.343   8.838  0.4185 -0.1627 -1.3811
  148SAPE  C31816393   2.973   6.497   8.905  0.3478  0.3996 -0.0606
  148SAPE  H18X16394   2.892   6.569   8.881 -0.6919 -1.6426 -3.0031
  148SAPE  H18Y16395   3.072   6.538   8.876  0.1951  2.0585  1.6972
  148SAPE  H18Z16396   2.982   6.482   9.015 -0.6654 -0.6078 -0.1004
  149SAPE     N16397   2.932   6.551   6.265  0.1618  0.4218  0.0858
  149SAPE   HN116398   2.970   6.478   6.328 -1.1632 -0.8006 -0.5133
  149SAPE   HN216399   2.909   6.632   6.326 -0.5787 -1.8006  2.8363
  149SAPE   HN316400   2.838   6.517   6.237  0.3040  0.1045 -0.0130
  149SAPE   C1216401   3.019   6.596   6.149  0.1188  1.1849  0.3120
  149SAPE  H12A16402   2.947   6.628   6.071  0.5793  1.5891  0.0506
  149SAPE  H12B16403   3.083   6.513   6.111  0.2007  1.0901  0.6557
  149SAPE   C1116404   3.100   6.723   6.203  0.5810 -0.1898 -0.2640
  149SAPE  H11A16405   3.165   6.753   6.117  2.7811 -2.4988  0.5191
  149SAPE  H11B16406   3.160   6.677   6.284  1.7807  2.4550  0.4069
  149SAPE     P16407   3.053   6.898   6.382  0.1581 -0.5810 -0.4712
  149SAPE   O1316408   3.162   7.000   6.374  0.7506 -0.3798 -0.3397
  149SAPE   O1416409   2.915   6.936   6.427  0.4478 -0.1264 -0.5017
  149SAPE   O1216410   3.031   6.835   6.244  0.2018  0.0580  0.4824
  149SAPE   O1116411   3.096   6.780   6.473 -1.0152 -0.3686  0.0315
  149SAPE    C116412   3.037   6.766   6.604 -0.4475 -0.0661  0.2926
  149SAPE    HA16413   2.926   6.763   6.605 -0.4458 -0.0607  1.0811
  149SAPE    HB16414   3.074   6.670   6.645 -1.2117 -0.2882  0.4566
  149SAPE    C216415   3.088   6.872   6.713 -0.3812  0.0504 -0.4948
  149SAPE    HS16416   3.044   6.973   6.706  2.3440  1.3343  0.2738
  149SAPE   O2116417   3.230   6.884   6.697  0.5038 -0.1690  1.1055
  149SAPE   C2116418   3.287   6.998   6.737  0.7753  0.3587 -0.4986
  149SAPE   O2216419   3.221   7.084   6.794 -0.4668  0.3515  0.3898
  149SAPE   C2216420   3.428   7.002   6.717  0.0115  0.0768 -0.2869
  149SAPE   H2R16421   3.460   6.918   6.652 -0.3643  0.0215 -0.3977
  149SAPE   H2S16422   3.458   7.094   6.664  0.5282  0.2095  0.2282
  149SAPE    C316423   3.065   6.823   6.856 -0.1151 -0.2310 -0.5433
  149SAPE    HX16424   3.123   6.878   6.934 -0.8124 -0.0105 -0.1752
  149SAPE    HY16425   3.098   6.717   6.853 -0.5122 -0.3915  0.5384
  149SAPE   O3116426   2.921   6.822   6.884  0.4333 -0.4910 -0.4977
  149SAPE   C3116427   2.869   6.928   6.953  0.1882  0.4691  0.0970
  149SAPE   O3216428   2.943   7.019   6.991  0.1544  0.1800 -0.4435
  149SAPE   C3216429   2.717   6.922   6.983  0.2825  0.8086  0.5982
  149SAPE   H2X16430   2.695   6.816   7.006  0.6300  1.1623  2.6603
  149SAPE   H2Y16431   2.648   6.954   6.902  1.0590  1.4433  0.1748
  149SAPE   C2316432   3.505   6.989   6.852 -0.5884 -1.1035  0.5819
  149SAPE   H3R16433   3.452   6.916   6.918 -3.1581 -0.3427 -0.5711
  149SAPE   H3S16434   3.494   7.086   6.907  2.0657  0.9889 -2.4228
  149SAPE   C2416435   3.646   6.937   6.835 -0.0493  0.3812 -0.1325
  149SAPE   H4R16436   3.651   6.845   6.773  0.3372 -1.3618  2.4257
  149SAPE   H4S16437   3.688   6.917   6.936 -0.4259 -1.0427 -0.2541
  149SAPE   C2516438   3.740   7.036   6.773  0.2193 -1.0422 -0.5259
  149SAPE   H5R16439   3.796   6.994   6.688 -1.4690  0.3140 -2.3310
  149SAPE   C2616440   3.770   7.168   6.805 -0.9272  0.1748  0.1547
  149SAPE   H6R16441   3.831   7.230   6.738 -2.0272  0.4099 -0.6394
  149SAPE   C2716442   3.706   7.239   6.920 -1.2677  0.3163 -0.3886
  149SAPE   H7R16443   3.602   7.258   6.889 -1.3274 -0.5855 -0.7441
  149SAPE   H7S16444   3.744   7.343   6.930 -0.7944 -0.0603  2.1526
  149SAPE   C2816445   3.729   7.174   7.056 -0.1737 -0.9372 -0.4654
  149SAPE   H8R16446   3.816   7.109   7.068  0.5388 -0.4035 -2.5387
  149SAPE   C2916447   3.664   7.213   7.169  0.4322  0.3545  0.9930
  149SAPE   H9R16448   3.684   7.162   7.264 -3.4905 -0.5097  1.4598
  149SAPE  C21016449   3.560   7.325   7.191 -0.1490 -0.4052 -0.2480
  149SAPE  H10R16450   3.581   7.415   7.129 -0.5038  0.2806  0.6198
  149SAPE  H10S16451   3.577   7.355   7.296  3.7762 -0.4249 -0.8012
  149SAPE  C21116452   3.416   7.290   7.148 -0.4181  0.4584  0.2074
  149SAPE  H11R16453   3.383   7.319   7.047 -0.7221 -1.3774 -0.2466
  149SAPE  C21216454   3.326   7.229   7.230 -0.3406  0.0471  0.0550
  149SAPE  H12R16455   3.223   7.228   7.191 -0.9636  0.4872  1.6803
  149SAPE  C21316456   3.340   7.186   7.371 -0.6224  0.1334  0.8416
  149SAPE  H13R16457   3.286   7.258   7.437  0.4201 -0.2203  2.0910
  149SAPE  H13S16458   3.445   7.197   7.404  0.0145  0.5046 -1.1988
  149SAPE  C21416459   3.286   7.052   7.397  0.2863 -0.8250  0.6547
  149SAPE  H14R16460   3.359   6.973   7.376  1.9338  0.9694 -0.6524
  149SAPE  C21516461   3.157   7.023   7.416 -0.0140  0.7335 -0.1018
  149SAPE  H15R16462   3.133   6.917   7.435  1.1264  0.4092 -0.4743
  149SAPE  C21616463   3.039   7.117   7.425  0.0622 -1.2292 -0.3092
  149SAPE  H16R16464   3.001   7.146   7.324 -1.2280  0.4781  0.6558
  149SAPE  H16S16465   3.068   7.213   7.471  1.2260 -0.9377 -1.6107
  149SAPE  C21716466   2.918   7.066   7.509 -0.3936 -0.3586 -0.3224
  149SAPE  H17R16467   2.891   6.971   7.459 -0.8581 -0.1637 -0.4447
  149SAPE  H17S16468   2.840   7.144   7.499 -0.7372 -0.7544 -0.7453
  149SAPE  C21816469   2.940   7.053   7.659  0.5856  0.1675 -0.1164
  149SAPE  H18R16470   2.938   7.153   7.706 -1.3157 -0.5159  1.3610
  149SAPE  H18S16471   3.045   7.019   7.668  0.7066  0.3582 -0.8293
  149SAPE  C21916472   2.842   6.957   7.717  0.1240 -0.0835 -0.5329
  149SAPE  H19R16473   2.873   6.853   7.692  1.0263  0.2315 -0.7594
  149SAPE  H19S16474   2.737   6.965   7.683  0.4477 -0.3382 -1.5938
  149SAPE  C22016475   2.847   6.975   7.874 -0.8841 -0.4954 -0.2342
  149SAPE  H20R16476   2.817   7.081   7.889  2.0259  0.6530 -2.0850
  149SAPE  H20S16477   2.954   6.955   7.896 -1.1691  0.7787  2.4938
  149SAPE  H20T16478   2.783   6.901   7.927  2.1643 -2.7080  0.4614
  149SAPE   C3316479   2.673   7.006   7.110  0.4729 -0.2384 -0.8150
  149SAPE   H3X16480   2.742   7.092   7.115 -0.1690  0.2117  0.6725
  149SAPE   H3Y16481   2.711   6.950   7.198 -2.1890 -0.1926  0.4142
  149SAPE   C3416482   2.522   7.035   7.114 -0.0835  0.2077  0.4655
  149SAPE   H4X16483   2.472   6.936   7.121 -1.5931  0.7688 -2.0076
  149SAPE   H4Y16484   2.491   7.063   7.011 -0.6298 -2.3199 -0.0797
  149SAPE   C3516485   2.463   7.128   7.220  0.4744  0.1742  0.0839
  149SAPE   H5X16486   2.357   7.141   7.189  0.6212  0.2115 -0.3998
  149SAPE   H5Y16487   2.515   7.226   7.212  0.4647  0.1566 -0.1854
  149SAPE   C3616488   2.476   7.076   7.363 -0.0409  0.2095 -0.0362
  149SAPE   H6X16489   2.583   7.070   7.393  0.5847  0.5357 -2.1265
  149SAPE   H6Y16490   2.439   6.972   7.374 -0.4417  0.4117  0.5638
  149SAPE   C3716491   2.409   7.167   7.475 -0.8376 -0.0354 -0.5246
  149SAPE   H7X16492   2.302   7.177   7.445 -1.5040  0.1287  1.8039
  149SAPE   H7Y16493   2.455   7.268   7.483  2.2476 -1.5351  1.6049
  149SAPE   C3816494   2.407   7.085   7.607 -0.9007 -0.2429  0.3648
  149SAPE   H8X16495   2.502   7.030   7.627 -0.0616  0.8784 -0.4731
  149SAPE   H8Y16496   2.333   7.005   7.589  1.0470 -1.9818 -0.1736
  149SAPE   C3916497   2.372   7.175   7.730 -0.4749  0.1761  0.0559
  149SAPE   H9X16498   2.285   7.240   7.705  1.0427  2.7814  1.3607
  149SAPE   H9Y16499   2.452   7.248   7.753 -1.9888  1.4117  1.4623
  149SAPE  C31016500   2.351   7.106   7.861  0.0425 -0.1967 -0.3852
  149SAPE  H10X16501   2.444   7.051   7.887  1.1942  1.5306 -0.8026
  149SAPE  H10Y16502   2.261   7.040   7.856  0.1095 -0.1624 -2.3402
  149SAPE  C31116503   2.312   7.196   7.975  0.2516 -0.3371 -0.1792
  149SAPE  H11X16504   2.371   7.290   7.971  0.2368 -0.3302 -0.2370
  149SAPE  H11Y16505   2.332   7.151   8.074  3.1792 -3.2230 -1.9407
  149SAPE  C31216506   2.163   7.229   7.988 -0.3160  0.2616  0.1324
  149SAPE  H12X16507   2.115   7.129   7.982 -0.7366  0.3562  1.6045
  149SAPE  H12Y16508   2.137   7.291   7.900 -1.7469 -0.2677  0.1568
  149SAPE  C31316509   2.118   7.303   8.118 -0.2997  0.4467  0.0883
  149SAPE  H13X16510   2.141   7.247   8.211  0.4308 -2.4258 -1.7439
  149SAPE  H13Y16511   2.007   7.306   8.118 -0.2651  1.7341 -0.9537
  149SAPE  C31416512   2.193   7.434   8.128  0.3015 -0.1205  0.2912
  149SAPE  H14X16513   2.174   7.497   8.038  2.5897 -2.7207 -2.1188
  149SAPE  H14Y16514   2.301   7.408   8.139  0.6742  0.9260 -0.7793
  149SAPE  C31516515   2.162   7.510   8.256  0.1519  0.0460 -0.1113
  149SAPE  H15X16516   2.171   7.457   8.353 -0.0759  1.8265  0.9014
  149SAPE  H15Y16517   2.056   7.543   8.247  0.4630  0.3452 -3.0721
  149SAPE  C31616518   2.250   7.636   8.272  1.3239 -0.6865 -0.4567
  149SAPE  H16X16519   2.275   7.682   8.174  1.5819  3.5172  1.4557
  149SAPE  H16Y16520   2.347   7.621   8.324  1.8150  0.2309 -1.0878
  149SAPE  C31716521   2.184   7.752   8.345 -0.0467 -0.1678 -0.6386
  149SAPE  H17X16522   2.095   7.787   8.287 -0.4854 -1.3092 -0.6688
  149SAPE  H17Y16523   2.252   7.839   8.338 -0.9510  0.4391 -2.3717
  149SAPE  C31816524   2.154   7.735   8.491  0.0965 -0.6825 -0.5979
  149SAPE  H18X16525   2.065   7.672   8.511  0.4674 -0.6284  1.3044
  149SAPE  H18Y16526   2.129   7.836   8.530 -0.7034 -0.9143 -0.5220
  149SAPE  H18Z16527   2.248   7.693   8.533  1.1780  1.5110 -0.7453
  150SAPE     N16528   0.628   1.497   6.168 -0.0275 -0.0965 -0.0342
  150SAPE   HN116529   0.708   1.492   6.101  0.0904  1.3802 -0.0197
  150SAPE   HN216530   0.593   1.403   6.194  0.7019 -0.3015  0.2182
  150SAPE   HN316531   0.547   1.555   6.138 -1.1336 -1.8675 -0.5316
  150SAPE   C1216532   0.667   1.568   6.291 -0.2827  0.3723 -0.4648
  150SAPE  H12A16533   0.585   1.560   6.367  0.2317 -2.1173 -0.1399
  150SAPE  H12B16534   0.667   1.675   6.262 -1.5100  0.5143 -0.0093
  150SAPE   C1116535   0.802   1.501   6.344  0.5965 -0.9251  0.4050
  150SAPE  H11A16536   0.830   1.565   6.430 -1.3316 -2.0041  1.8701
  150SAPE  H11B16537   0.876   1.498   6.261 -2.7710  1.4414 -2.8067
  150SAPE     P16538   0.886   1.260   6.383  0.1239 -0.3183  0.1162
  150SAPE   O1316539   0.842   1.150   6.479  0.2211  0.6761  0.1220
  150SAPE   O1416540   0.907   1.228   6.238 -0.3782 -0.0235 -0.5796
  150SAPE   O1216541   0.770   1.369   6.398  0.2479 -0.0146 -0.2291
  150SAPE   O1116542   1.012   1.349   6.434 -0.2393 -0.2873  0.0977
  150SAPE    C116543   1.124   1.280   6.489  1.1885 -0.7629 -0.5958
  150SAPE    HA16544   1.113   1.170   6.501 -0.3702 -0.7098 -1.3926
  150SAPE    HB16545   1.216   1.305   6.434  0.5697  0.2647 -1.1789
  150SAPE    C216546   1.148   1.323   6.633  0.2027  0.0105  0.1669
  150SAPE    HS16547   1.061   1.280   6.687  1.6428 -2.2241  0.7402
  150SAPE   O2116548   1.161   1.465   6.639 -0.6515  0.1494 -0.1499
  150SAPE   C2116549   1.120   1.514   6.745  0.7652 -0.1402  0.2123
  150SAPE   O2216550   1.049   1.465   6.835  0.3154 -0.5803 -0.3256
  150SAPE   C2216551   1.170   1.662   6.747 -0.7153  0.4248  0.3508
  150SAPE   H2R16552   1.160   1.700   6.851 -1.7830  0.4376  0.2508
  150SAPE   H2S16553   1.275   1.650   6.713  0.1580  1.5795  2.5726
  150SAPE    C316554   1.278   1.261   6.682 -0.6058  0.0327 -0.7442
  150SAPE    HX16555   1.368   1.299   6.629  0.5953 -1.2149  0.3258
  150SAPE    HY16556   1.269   1.151   6.668 -0.6610 -0.0412 -0.1205
  150SAPE   O3116557   1.311   1.288   6.814 -0.1391  0.2364 -0.0331
  150SAPE   C3116558   1.249   1.208   6.909 -0.2346  0.0386  0.2926
  150SAPE   O3216559   1.178   1.110   6.880  0.1830  0.1954 -0.3012
  150SAPE   C3216560   1.265   1.267   7.046  0.7646  0.4277 -0.5575
  150SAPE   H2X16561   1.190   1.344   7.072 -0.6451 -1.7068  2.0216
  150SAPE   H2Y16562   1.364   1.317   7.045  0.1913  1.5697 -1.0417
  150SAPE   C2316563   1.101   1.753   6.638 -0.6319 -0.6749  0.5130
  150SAPE   H3R16564   1.046   1.690   6.566 -0.1135  0.0731 -0.5532
  150SAPE   H3S16565   1.179   1.811   6.584 -2.0780  1.1245  0.2804
  150SAPE   C2416566   1.000   1.846   6.699  0.3216 -0.1295  0.3960
  150SAPE   H4R16567   0.955   1.914   6.623  2.3127  0.6694 -0.0825
  150SAPE   H4S16568   1.052   1.907   6.775 -0.8041  0.2385  0.8779
  150SAPE   C2516569   0.876   1.776   6.747  0.0722 -0.5453  0.3417
  150SAPE   H5R16570   0.839   1.702   6.675  1.7348 -1.0726  0.0126
  150SAPE   C2616571   0.809   1.794   6.863  0.2581 -1.5275 -0.4591
  150SAPE   H6R16572   0.721   1.734   6.889 -0.0411 -0.6765  0.5378
  150SAPE   C2716573   0.838   1.890   6.975 -0.7109  0.5277  0.0254
  150SAPE   H7R16574   0.756   1.965   6.972  1.5910  3.2160  2.0523
  150SAPE   H7S16575   0.935   1.934   6.943 -0.9900  0.4904 -0.9031
  150SAPE   C2816576   0.858   1.825   7.111 -0.5867  0.0477  0.6797
  150SAPE   H8R16577   0.943   1.754   7.111 -0.8711 -0.3034  1.6529
  150SAPE   C2916578   0.793   1.847   7.231 -0.3302  0.8898  0.6709
  150SAPE   H9R16579   0.828   1.798   7.323  0.8277  2.6445  1.1814
  150SAPE  C21016580   0.684   1.951   7.249  0.4264 -0.0465  0.3965
  150SAPE  H10R16581   0.598   1.924   7.183  0.7474  0.0596 -0.0631
  150SAPE  H10S16582   0.734   2.046   7.221  1.0527 -0.1992  0.9969
  150SAPE  C21116583   0.627   1.964   7.386 -0.3768 -0.3306  0.0801
  150SAPE  H11R16584   0.528   1.918   7.403 -0.0106 -2.1220 -2.3378
  150SAPE  C21216585   0.679   2.033   7.486 -0.0505  0.4441  0.1355
  150SAPE  H12R16586   0.605   2.044   7.566 -1.5762 -0.2853 -1.1363
  150SAPE  C21316587   0.804   2.106   7.494 -0.6965 -1.0709 -0.3431
  150SAPE  H13R16588   0.784   2.213   7.472  1.3894  0.1164  3.0735
  150SAPE  H13S16589   0.873   2.082   7.410  1.5482 -0.2999  1.2305
  150SAPE  C21416590   0.874   2.086   7.627 -0.2363  0.2089 -0.4692
  150SAPE  H14R16591   0.930   1.992   7.635 -1.9285 -0.9156 -1.3811
  150SAPE  C21516592   0.875   2.181   7.727  0.4780  0.4962 -0.4035
  150SAPE  H15R16593   0.911   2.160   7.828  0.5035  1.6295 -0.1707
  150SAPE  C21616594   0.803   2.314   7.739  0.3152  0.1933  0.5102
  150SAPE  H16R16595   0.705   2.315   7.687 -0.6834  1.4033  2.3495
  150SAPE  H16S16596   0.863   2.398   7.696 -1.5143  1.6450  0.7269
  150SAPE  C21716597   0.774   2.338   7.892  0.2802 -0.1647 -0.3070
  150SAPE  H17R16598   0.707   2.427   7.889  0.6290  0.1049 -0.1407
  150SAPE  H17S16599   0.864   2.363   7.951 -0.5166  1.9560  0.0577
  150SAPE  C21816600   0.684   2.228   7.954  0.2893  0.8216 -0.3059
  150SAPE  H18R16601   0.746   2.139   7.976 -1.0508  0.0934  0.6017
  150SAPE  H18S16602   0.605   2.193   7.884  0.5774 -0.4059 -0.0197
  150SAPE  C21916603   0.608   2.262   8.087 -0.0942 -0.0127  0.3712
  150SAPE  H19R16604   0.685   2.296   8.160  1.0788  0.3692 -1.0303
  150SAPE  H19S16605   0.570   2.166   8.127 -1.0389  1.0325  2.0396
  150SAPE  C22016606   0.494   2.369   8.067 -0.4474  0.3920  0.1013
  150SAPE  H20R16607   0.546   2.462   8.033  1.7923 -1.2737 -1.1553
  150SAPE  H20S16608   0.451   2.393   8.167  0.3850  0.7577  0.3820
  150SAPE  H20T16609   0.421   2.329   7.994 -0.7850  0.5216  0.3680
  150SAPE   C3316610   1.259   1.167   7.163 -0.3512  0.8768 -0.4556
  150SAPE   H3X16611   1.324   1.078   7.147 -0.4521  0.1204  3.0743
  150SAPE   H3Y16612   1.157   1.126   7.178 -1.0210  2.4299 -0.6808
  150SAPE   C3416613   1.304   1.213   7.304 -0.0732 -0.2129 -0.1176
  150SAPE   H4X16614   1.271   1.316   7.330  0.8992  0.5015 -1.6442
  150SAPE   H4Y16615   1.414   1.209   7.314  0.0902 -0.9584 -2.1179
  150SAPE   C3516616   1.258   1.115   7.411 -0.6823  0.4717 -0.2215
  150SAPE   H5X16617   1.294   1.013   7.385 -0.7373  0.3559  0.1525
  150SAPE   H5Y16618   1.148   1.105   7.412 -0.6679  0.3994  0.8660
  150SAPE   C3616619   1.312   1.149   7.557 -0.0296 -0.1386  0.3246
  150SAPE   H6X16620   1.321   1.260   7.565 -0.3490 -0.1788  1.2909
  150SAPE   H6Y16621   1.419   1.120   7.560 -0.5203 -1.8424  2.7312
  150SAPE   C3716622   1.226   1.080   7.659  0.3248  0.6151  0.1095
  150SAPE   H7X16623   1.229   0.971   7.638 -1.9061  0.8286 -1.5398
  150SAPE   H7Y16624   1.120   1.115   7.655  0.0708  0.0519  1.5623
  150SAPE   C3816625   1.282   1.103   7.805 -0.2941  0.2351  0.4325
  150SAPE   H8X16626   1.255   1.206   7.836  2.0803  0.7209  0.9859
  150SAPE   H8Y16627   1.393   1.103   7.799 -0.2146  2.2396  1.3388
  150SAPE   C3916628   1.242   0.998   7.906  0.6208 -0.4554 -0.7592
  150SAPE   H9X16629   1.265   0.899   7.860 -0.0964 -0.9813 -0.0085
  150SAPE   H9Y16630   1.136   1.002   7.940  1.0190 -0.0583  0.4913
  150SAPE  C31016631   1.326   1.015   8.044 -0.2294  0.5000  0.1800
  150SAPE  H10X16632   1.435   1.017   8.024  0.0759  2.5689  1.9131
  150SAPE  H10Y16633   1.319   0.935   8.121  0.5559 -0.3975 -0.6532
  150SAPE  C31116634   1.289   1.145   8.115 -0.7172  0.9760  0.4670
  150SAPE  H11X16635   1.179   1.139   8.126 -0.6790 -1.4547 -0.0584
  150SAPE  H11Y16636   1.300   1.240   8.059 -0.4986  0.6103 -0.1111
  150SAPE  C31216637   1.351   1.149   8.258  0.2682 -0.1012  1.0260
  150SAPE  H12X16638   1.462   1.145   8.255  0.1710 -2.9037 -3.7685
  150SAPE  H12Y16639   1.312   1.063   8.316 -2.0719 -0.0198 -0.3649
  150SAPE  C31316640   1.311   1.277   8.329  0.2625  0.1517 -0.9626
  150SAPE  H13X16641   1.202   1.268   8.346  0.1604 -0.8901 -2.0829
  150SAPE  H13Y16642   1.323   1.365   8.261  1.2639  0.4314 -0.4383
  150SAPE  C31416643   1.381   1.291   8.469 -0.2061  0.0479 -0.5646
  150SAPE  H14X16644   1.340   1.378   8.525  0.7788  1.0873 -1.4365
  150SAPE  H14Y16645   1.488   1.314   8.449 -0.1524  0.5066  0.2173
  150SAPE  C31516646   1.375   1.172   8.563  0.3902  0.6993 -0.1563
  150SAPE  H15X16647   1.435   1.206   8.650 -0.5479 -1.0377  1.2209
  150SAPE  H15Y16648   1.429   1.086   8.517  1.9455  1.4433  0.2586
  150SAPE  C31616649   1.237   1.135   8.633  0.8484  0.4870 -0.4620
  150SAPE  H16X16650   1.255   1.067   8.719 -3.7359  0.4275  0.5525
  150SAPE  H16Y16651   1.178   1.088   8.552  0.5031 -0.4821  0.3348
  150SAPE  C31716652   1.155   1.256   8.672  0.5037 -0.4940  0.3491
  150SAPE  H17X16653   1.117   1.307   8.580 -0.8554 -1.1447  0.5391
  150SAPE  H17Y16654   1.233   1.317   8.721  1.1998  0.0702 -1.4293
  150SAPE  C31816655   1.026   1.222   8.750  0.4641  0.6175 -0.1149
  150SAPE  H18X16656   0.958   1.165   8.684  1.5857 -0.4831 -0.3429
  150SAPE  H18Y16657   0.975   1.316   8.780 -0.1027  0.6723 -1.1928
  150SAPE  H18Z16658   1.055   1.164   8.840  2.7888  0.5251 -0.8856
  151SAPE     N16659   3.970   5.008   6.220 -0.3138 -0.6715  0.2980
  151SAPE   HN116660   4.037   5.016   6.299  0.9520  0.4503 -0.8623
  151SAPE   HN216661   3.996   4.924   6.166 -0.9050 -0.4933 -0.2752
  151SAPE   HN316662   3.985   5.095   6.165 -0.6941 -0.2853  0.7921
  151SAPE   C1216663   3.825   4.983   6.266 -0.0516  0.3844  0.4575
  151SAPE  H12A16664   3.818   4.879   6.305 -3.1702  1.2680  2.3863
  151SAPE  H12B16665   3.763   4.992   6.174  0.8143 -0.6527 -0.2443
  151SAPE   C1116666   3.772   5.091   6.364  0.2208  0.3605  0.1716
  151SAPE  H11A16667   3.798   5.080   6.471 -0.6223 -0.1887  0.3232
  151SAPE  H11B16668   3.662   5.078   6.372  0.1250  0.9003 -0.2091
  151SAPE     P16669   3.731   5.350   6.327 -0.0414  0.4758 -0.2296
  151SAPE   O1316670   3.811   5.449   6.257  0.9084 -0.5912  0.4103
  151SAPE   O1416671   3.594   5.324   6.275  0.1820  0.1841  0.1711
  151SAPE   O1216672   3.809   5.217   6.312 -0.0782  0.4120 -0.2240
  151SAPE   O1116673   3.725   5.385   6.479  0.7471  0.1210  0.0733
  151SAPE    C116674   3.844   5.420   6.547 -0.1503  0.6883  0.6015
  151SAPE    HA16675   3.925   5.346   6.533  0.4653  1.7896 -1.9160
  151SAPE    HB16676   3.882   5.513   6.499 -0.2525 -0.0433 -0.9084
  151SAPE    C216677   3.814   5.454   6.689 -0.1301  0.6799 -0.1309
  151SAPE    HS16678   3.908   5.456   6.748  0.3518 -0.8851 -0.8133
  151SAPE   O2116679   3.722   5.350   6.736 -0.2745 -0.0198 -0.5557
  151SAPE   C2116680   3.783   5.243   6.777  0.1505 -0.0812  0.0861
  151SAPE   O2216681   3.906   5.225   6.784 -0.0738  0.1646  0.1926
  151SAPE   C2216682   3.670   5.141   6.810 -0.5364 -0.2248 -0.0141
  151SAPE   H2R16683   3.590   5.206   6.852  1.9505  2.2312  1.0815
  151SAPE   H2S16684   3.645   5.090   6.715 -0.1072  0.3462 -0.4364
  151SAPE    C316685   3.742   5.593   6.698 -0.2818 -0.3579 -0.5249
  151SAPE    HX16686   3.667   5.582   6.617  0.6735  0.1756 -1.4978
  151SAPE    HY16687   3.803   5.684   6.677  1.1385 -1.3249 -0.6306
  151SAPE   O3116688   3.677   5.612   6.824  0.0966  0.0852 -0.8374
  151SAPE   C3116689   3.733   5.687   6.916  0.7346 -0.5403 -0.1128
  151SAPE   O3216690   3.838   5.745   6.909 -0.0814  0.0933  0.0744
  151SAPE   C3216691   3.641   5.681   7.043 -0.0044 -0.2336  0.0234
  151SAPE   H2X16692   3.615   5.574   7.055  0.0805 -0.0698  1.7142
  151SAPE   H2Y16693   3.555   5.752   7.042  0.4025  0.2800  1.6386
  151SAPE   C2316694   3.710   5.037   6.915  0.0638 -0.3552  0.0838
  151SAPE   H3R16695   3.814   5.000   6.899 -0.0481 -2.0871  2.9912
  151SAPE   H3S16696   3.649   4.945   6.912  0.8305 -0.9543  1.8028
  151SAPE   C2416697   3.706   5.099   7.057  0.2925  0.2998  0.0774
  151SAPE   H4R16698   3.770   5.190   7.056  3.7118 -2.0368 -0.8096
  151SAPE   H4S16699   3.763   5.031   7.124  2.4872  0.8199 -1.2105
  151SAPE   C2516700   3.561   5.135   7.104  0.3493  0.0671 -0.1787
  151SAPE   H5R16701   3.474   5.136   7.037 -0.5068 -1.8394  0.8812
  151SAPE   C2616702   3.528   5.147   7.236  0.4695 -0.1810  1.0499
  151SAPE   H6R16703   3.420   5.157   7.248 -0.1367  1.0385 -4.4672
  151SAPE   C2716704   3.622   5.131   7.357  0.6255  0.5687  0.0396
  151SAPE   H7R16705   3.732   5.129   7.336  0.4709 -0.3347 -0.7410
  151SAPE   H7S16706   3.602   5.028   7.395  2.1264  1.2078  2.6594
  151SAPE   C2816707   3.598   5.223   7.475  0.0638 -0.3740 -0.4138
  151SAPE   H8R16708   3.501   5.273   7.460  0.2096  0.5555  1.6063
  151SAPE   C2916709   3.678   5.244   7.585 -0.2881  0.3504  0.3438
  151SAPE   H9R16710   3.654   5.324   7.656 -2.7773 -3.0056  3.4275
  151SAPE  C21016711   3.807   5.170   7.616 -0.2535 -0.1006 -0.1325
  151SAPE  H10R16712   3.898   5.233   7.618  0.2067 -0.7933  0.9956
  151SAPE  H10S16713   3.828   5.092   7.540 -1.1297 -0.5259  0.0559
  151SAPE  C21116714   3.804   5.084   7.738  0.4226 -0.3066 -0.2060
  151SAPE  H11R16715   3.760   4.986   7.716 -1.1572  0.2266  0.4988
  151SAPE  C21216716   3.804   5.119   7.875  0.6659 -0.4091 -1.3251
  151SAPE  H12R16717   3.814   5.045   7.956 -0.3935  1.3959  0.4983
  151SAPE  C21316718   3.818   5.259   7.931 -0.3005 -0.1737  0.0733
  151SAPE  H13R16719   3.810   5.341   7.857 -1.3515 -1.4449 -1.2494
  151SAPE  H13S16720   3.914   5.277   7.984  0.0002  0.4984 -0.6907
  151SAPE  C21416721   3.712   5.288   8.032  0.5599 -0.0852 -0.2563
  151SAPE  H14R16722   3.619   5.317   7.982  0.3812 -0.6084 -0.2328
  151SAPE  C21516723   3.731   5.293   8.167  0.6988  0.0421 -0.3227
  151SAPE  H15R16724   3.646   5.325   8.230  0.1443 -0.5586 -0.7556
  151SAPE  C21616725   3.858   5.264   8.244  0.0018  0.0179  0.3552
  151SAPE  H16R16726   3.952   5.236   8.190  1.3293  1.4200  1.8844
  151SAPE  H16S16727   3.846   5.168   8.299  0.5603  0.4430  1.2289
  151SAPE  C21716728   3.909   5.388   8.319  0.2050  0.3513  0.2798
  151SAPE  H17R16729   3.831   5.431   8.385  1.6656  2.3602  0.7477
  151SAPE  H17S16730   3.943   5.461   8.243 -0.1496 -0.8099 -1.0086
  151SAPE  C21816731   4.028   5.368   8.415  0.0712  0.0520 -0.1069
  151SAPE  H18R16732   3.984   5.294   8.486  2.3792  0.7573  2.1531
  151SAPE  H18S16733   4.055   5.460   8.471 -0.8915  0.1892  0.1526
  151SAPE  C21916734   4.146   5.304   8.347  0.2073  0.3656  0.4941
  151SAPE  H19R16735   4.183   5.357   8.257 -0.4208  1.3436  0.7976
  151SAPE  H19S16736   4.125   5.200   8.312  0.7768  0.0380  1.1223
  151SAPE  C22016737   4.277   5.294   8.439 -0.2631  0.1314  0.5368
  151SAPE  H20R16738   4.320   5.392   8.467  1.7132  0.1042 -2.2444
  151SAPE  H20S16739   4.262   5.239   8.534  1.9559 -1.0046  0.2642
  151SAPE  H20T16740   4.358   5.237   8.388 -0.6805  0.3271 -0.3649
  151SAPE   C3316741   3.721   5.698   7.176  0.2224  0.2126  0.5688
  151SAPE   H3X16742   3.749   5.806   7.182  1.7747 -0.1504  0.0396
  151SAPE   H3Y16743   3.813   5.637   7.173  0.8336  0.9035  3.5752
  151SAPE   C3416744   3.631   5.687   7.301 -0.6338  0.3423 -0.5251
  151SAPE   H4X16745   3.596   5.581   7.302  0.0759  0.1001  1.4951
  151SAPE   H4Y16746   3.547   5.758   7.286 -0.7542  0.4877  0.7497
  151SAPE   C3516747   3.700   5.722   7.439  0.2138  0.7699 -0.0863
  151SAPE   H5X16748   3.618   5.731   7.514  0.6733  0.3946  0.4650
  151SAPE   H5Y16749   3.762   5.813   7.434  1.9376 -0.5621 -4.9037
  151SAPE   C3616750   3.788   5.607   7.482 -0.1162 -0.1018 -0.1404
  151SAPE   H6X16751   3.871   5.592   7.408  0.7264 -0.2591  0.8268
  151SAPE   H6Y16752   3.729   5.513   7.487  1.5381 -1.2766 -1.8047
  151SAPE   C3716753   3.854   5.638   7.623  0.2659  0.3681  0.2295
  151SAPE   H7X16754   3.920   5.726   7.611 -1.0974  1.5721  1.3168
  151SAPE   H7Y16755   3.931   5.559   7.641 -1.3854 -1.3688 -0.1641
  151SAPE   C3816756   3.765   5.648   7.747  0.1075 -0.2529  0.5390
  151SAPE   H8X16757   3.762   5.545   7.790  1.6480 -0.5252  0.0285
  151SAPE   H8Y16758   3.663   5.676   7.712 -0.4669 -1.7831  0.9143
  151SAPE   C3916759   3.827   5.737   7.854  0.5049 -0.1842 -0.2202
  151SAPE   H9X16760   3.817   5.843   7.823 -0.1284  0.2713  1.4774
  151SAPE   H9Y16761   3.934   5.709   7.859  0.1875 -1.8927 -1.8967
  151SAPE  C31016762   3.765   5.721   7.995 -0.4862 -0.2939  1.0970
  151SAPE  H10X16763   3.761   5.611   8.012  0.0285 -0.5728 -0.4865
  151SAPE  H10Y16764   3.663   5.763   8.002 -1.6348 -2.2698 -2.2777
  151SAPE  C31116765   3.858   5.770   8.110 -0.0024  0.5581 -0.3072
  151SAPE  H11X16766   3.865   5.881   8.107 -0.2128  0.5386 -2.3319
  151SAPE  H11Y16767   3.954   5.720   8.083 -0.7891 -0.5300 -1.0790
  151SAPE  C31216768   3.820   5.735   8.256  0.6392 -0.2993  0.1713
  151SAPE  H12X16769   3.781   5.632   8.269  0.2496 -0.2385 -0.5114
  151SAPE  H12Y16770   3.733   5.795   8.291  2.2075  0.1248  3.5296
  151SAPE  C31316771   3.935   5.771   8.353  0.1988  0.1966  0.0461
  151SAPE  H13X16772   3.965   5.876   8.333  1.0004  0.0892  0.6635
  151SAPE  H13Y16773   4.028   5.715   8.330  1.6326  1.7431  1.9528
  151SAPE  C31416774   3.891   5.760   8.499  0.1105 -0.0104 -0.0917
  151SAPE  H14X16775   3.850   5.659   8.522  0.3490  0.0935  0.8238
  151SAPE  H14Y16776   3.813   5.837   8.516  1.9662  1.8351  0.3035
  151SAPE  C31516777   4.000   5.781   8.595  0.3762  0.2326 -0.0455
  151SAPE  H15X16778   4.065   5.869   8.577 -1.3987  1.5471 -0.2366
  151SAPE  H15Y16779   4.071   5.696   8.591  0.4143  0.2596  0.0386
  151SAPE  C31616780   3.949   5.814   8.741  0.1841  0.3595  0.6467
  151SAPE  H16X16781   3.914   5.919   8.741  3.0095  1.3561  1.4329
  151SAPE  H16Y16782   4.032   5.819   8.815  0.4537 -2.5089  0.6040
  151SAPE  C31716783   3.852   5.708   8.805  0.1588 -0.2229 -0.0795
  151SAPE  H17X16784   3.761   5.705   8.742  1.2661 -1.0208 -1.6739
  151SAPE  H17Y16785   3.820   5.738   8.907 -0.2646  0.8221 -0.5176
  151SAPE  C31816786   3.907   5.567   8.807  0.5811 -0.3731  0.4726
  151SAPE  H18X16787   3.821   5.497   8.802  1.5779 -1.6212  0.5148
  151SAPE  H18Y16788   3.967   5.549   8.898  1.1702 -3.0825 -0.3946
  151SAPE  H18Z16789   3.967   5.546   8.716 -0.5304  1.9441 -0.8582
  152SAPE     N16790   0.984   2.494   6.224  0.3226 -0.0117  0.6221
  152SAPE   HN116791   1.013   2.395   6.242  0.6750 -0.0111  0.0720
  152SAPE   HN216792   1.069   2.537   6.182  0.1186 -1.1399 -1.0073
  152SAPE   HN316793   0.965   2.538   6.316  1.0407 -0.4129  0.9659
  152SAPE   C1216794   0.882   2.504   6.116  0.1190 -0.3883  0.1048
  152SAPE  H12A16795   0.916   2.457   6.021 -0.7268 -0.8109  0.0063
  152SAPE  H12B16796   0.867   2.611   6.089  0.5146 -0.4894 -0.5198
  152SAPE   C1116797   0.742   2.461   6.169  0.1555  0.0378 -0.3060
  152SAPE  H11A16798   0.683   2.450   6.075  0.6332  1.2502 -0.7600
  152SAPE  H11B16799   0.698   2.540   6.233  0.3135 -1.5224  1.7648
  152SAPE     P16800   0.628   2.267   6.294  0.2309 -0.2704 -0.1917
  152SAPE   O1316801   0.557   2.371   6.375 -0.5716 -0.1548 -0.2989
  152SAPE   O1416802   0.551   2.194   6.193  0.3483 -0.0653 -0.3232
  152SAPE   O1216803   0.759   2.332   6.234 -0.1162 -0.2092 -0.2565
  152SAPE   O1116804   0.686   2.159   6.395  0.1158 -0.1043  0.1808
  152SAPE    C116805   0.806   2.184   6.471  0.5510 -0.2307  0.4988
  152SAPE    HA16806   0.861   2.088   6.479 -1.8064 -1.7048 -0.2447
  152SAPE    HB16807   0.877   2.254   6.424  0.8279 -0.8987 -0.0956
  152SAPE    C216808   0.784   2.222   6.614 -1.0803 -1.0250  1.3801
  152SAPE    HS16809   0.744   2.326   6.615  0.9717 -0.1003 -2.5006
  152SAPE   O2116810   0.913   2.212   6.685 -0.1629  0.3032 -0.5835
  152SAPE   C2116811   0.916   2.299   6.793 -0.9617 -0.1113 -0.5629
  152SAPE   O2216812   0.858   2.407   6.791 -0.8408  0.1371 -0.4505
  152SAPE   C2216813   1.004   2.247   6.904 -0.1749 -0.0625 -0.4775
  152SAPE   H2R16814   0.945   2.177   6.966  0.8527  0.0427  0.6464
  152SAPE   H2S16815   1.087   2.184   6.866 -0.5960 -3.0580  3.3157
  152SAPE    C316816   0.685   2.129   6.671  0.6978 -0.5730 -0.0024
  152SAPE    HX16817   0.733   2.029   6.664  2.6702  0.5681 -4.3077
  152SAPE    HY16818   0.588   2.123   6.618  0.5130  0.5656  0.1836
  152SAPE   O3116819   0.655   2.164   6.805  0.0774  0.1462  0.2386
  152SAPE   C3116820   0.578   2.270   6.833  0.6062 -0.0616 -0.2256
  152SAPE   O3216821   0.520   2.334   6.750 -0.0838  0.0004  0.1527
  152SAPE   C3216822   0.594   2.309   6.989  0.2424 -0.2426 -0.2600
  152SAPE   H2X16823   0.700   2.335   7.003  0.6223 -0.4663 -2.4326
  152SAPE   H2Y16824   0.567   2.217   7.045 -0.3878 -0.0132 -0.1759
  152SAPE   C2316825   1.064   2.360   6.985  0.2326  0.2045 -0.1991
  152SAPE   H3R16826   0.983   2.425   7.024 -0.4228 -0.0415 -1.1420
  152SAPE   H3S16827   1.128   2.417   6.913 -0.0943  2.7787  1.4803
  152SAPE   C2416828   1.139   2.322   7.108  0.1638 -0.0755 -0.1346
  152SAPE   H4R16829   1.194   2.413   7.143 -3.0244  1.8891 -0.0816
  152SAPE   H4S16830   1.211   2.244   7.074  1.0017  0.7189 -0.2219
  152SAPE   C2516831   1.055   2.270   7.226 -0.4051  0.2625  0.1693
  152SAPE   H5R16832   0.950   2.242   7.206 -0.3412  1.6551 -2.4091
  152SAPE   C2616833   1.106   2.242   7.349 -0.2709  0.2875  0.5281
  152SAPE   H6R16834   1.048   2.188   7.425 -0.5242  0.4865  0.4786
  152SAPE   C2716835   1.254   2.267   7.377 -0.3482  0.5527  0.1912
  152SAPE   H7R16836   1.271   2.351   7.447  1.7635  0.4759 -0.1932
  152SAPE   H7S16837   1.302   2.304   7.284 -0.3516  1.7012  0.6445
  152SAPE   C2816838   1.330   2.143   7.410 -0.3724 -0.0728 -0.1182
  152SAPE   H8R16839   1.393   2.096   7.333  0.4198  2.1401 -0.8707
  152SAPE   C2916840   1.347   2.090   7.530  0.0994  0.6188  0.8208
  152SAPE   H9R16841   1.394   1.991   7.538 -0.1589  0.3906 -0.4564
  152SAPE  C21016842   1.277   2.148   7.658  0.1737 -0.3383  0.1358
  152SAPE  H10R16843   1.200   2.224   7.633  0.9863  0.5252  0.2084
  152SAPE  H10S16844   1.349   2.204   7.722 -0.1516  0.0374  0.1756
  152SAPE  C21116845   1.209   2.044   7.748  0.4945 -0.2093 -0.3091
  152SAPE  H11R16846   1.146   1.974   7.691 -0.0959  1.1370 -1.3246
  152SAPE  C21216847   1.217   2.037   7.886 -0.7593  0.2436  0.7194
  152SAPE  H12R16848   1.156   1.960   7.935  1.5345 -1.2811  1.2403
  152SAPE  C21316849   1.279   2.134   7.990  0.2953  0.7331 -0.5659
  152SAPE  H13R16850   1.374   2.182   7.958  0.5530  0.2728 -0.4985
  152SAPE  H13S16851   1.294   2.070   8.079 -2.4195  0.7989 -0.0064
  152SAPE  C21416852   1.180   2.250   8.030 -0.2161 -0.5710  0.5288
  152SAPE  H14R16853   1.141   2.318   7.953 -0.1346 -0.7512  0.3268
  152SAPE  C21516854   1.125   2.274   8.159 -0.0998  0.6059  0.5656
  152SAPE  H15R16855   1.066   2.366   8.169  0.3666  1.0312 -0.5179
  152SAPE  C21616856   1.161   2.190   8.281  0.4942 -0.2469 -0.1998
  152SAPE  H16R16857   1.244   2.246   8.330 -1.0748  1.1552  0.8946
  152SAPE  H16S16858   1.208   2.092   8.256 -1.2467 -0.7885 -1.3884
  152SAPE  C21716859   1.052   2.166   8.386 -0.1040  0.0277  0.3103
  152SAPE  H17R16860   0.971   2.102   8.347  1.5879 -0.1626 -3.1023
  152SAPE  H17S16861   1.006   2.263   8.414 -0.1152  0.0530  0.2042
  152SAPE  C21816862   1.110   2.100   8.512  0.1262  0.4994 -0.1382
  152SAPE  H18R16863   1.214   2.137   8.528  0.5034 -0.1525 -1.0405
  152SAPE  H18S16864   1.115   1.990   8.498  0.1882  0.7080 -1.9195
  152SAPE  C21916865   1.032   2.114   8.646  0.1054  0.3882  0.4673
  152SAPE  H19R16866   1.060   2.042   8.725 -0.7178 -0.8100 -0.3222
  152SAPE  H19S16867   0.930   2.090   8.610  0.1480 -1.6537  1.6787
  152SAPE  C22016868   1.026   2.263   8.690  0.1554 -0.2312  0.4604
  152SAPE  H20R16869   1.101   2.289   8.768  0.1787 -0.7553  0.6165
  152SAPE  H20S16870   0.932   2.272   8.748  1.3571  0.4501  2.3418
  152SAPE  H20T16871   1.031   2.335   8.605  0.6676 -0.3466  0.3871
  152SAPE   C3316872   0.509   2.429   7.012  0.2477 -0.9604 -0.4855
  152SAPE   H3X16873   0.403   2.403   6.994 -1.0601  1.8968  2.5315
  152SAPE   H3Y16874   0.525   2.519   6.948  2.1579 -1.0948 -0.2227
  152SAPE   C3416875   0.512   2.483   7.155  0.4701  0.2118 -0.9261
  152SAPE   H4X16876   0.438   2.565   7.169  0.1739  0.1607 -2.1200
  152SAPE   H4Y16877   0.614   2.524   7.172  0.9499 -1.7430  1.0423
  152SAPE   C3516878   0.480   2.378   7.271  0.0874 -0.5758 -0.0148
  152SAPE   H5X16879   0.478   2.428   7.370  0.1344 -1.5509  0.4908
  152SAPE   H5Y16880   0.561   2.302   7.269  0.3742 -0.2853  0.5267
  152SAPE   C3616881   0.342   2.316   7.264  0.1713 -0.7301 -0.8553
  152SAPE   H6X16882   0.327   2.315   7.154  1.1604 -1.0981 -0.9902
  152SAPE   H6Y16883   0.257   2.367   7.314 -0.5929 -1.2524 -1.5986
  152SAPE   C3716884   0.353   2.178   7.329  0.0044  0.1783  0.4564
  152SAPE   H7X16885   0.428   2.177   7.411  1.8031 -1.0900 -1.1557
  152SAPE   H7Y16886   0.384   2.104   7.252  0.2179  0.9696 -0.2354
  152SAPE   C3816887   0.219   2.117   7.377 -0.2252  0.1705  0.5917
  152SAPE   H8X16888   0.230   2.006   7.383  1.8049  0.4726  2.6316
  152SAPE   H8Y16889   0.135   2.149   7.310  0.6796  0.9970 -0.1619
  152SAPE   C3916890   0.191   2.165   7.517 -0.3218  0.6195  0.2549
  152SAPE   H9X16891   0.092   2.129   7.552  1.1836 -2.7182  1.3650
  152SAPE   H9Y16892   0.193   2.275   7.507 -0.0152  0.5707 -0.2244
  152SAPE  C31016893   0.277   2.093   7.617  0.3006 -0.3232 -0.2804
  152SAPE  H10X16894   0.386   2.116   7.619  0.7217 -2.2432  0.1888
  152SAPE  H10Y16895   0.263   1.985   7.596 -0.1351 -0.1485 -0.8806
  152SAPE  C31116896   0.232   2.108   7.766 -0.0866 -0.2087 -0.1614
  152SAPE  H11X16897   0.135   2.053   7.770 -0.2502 -0.0767 -1.8853
  152SAPE  H11Y16898   0.224   2.217   7.785 -1.7017 -0.3254 -0.0682
  152SAPE  C31216899   0.325   2.034   7.871  0.1333 -0.3649  0.7413
  152SAPE  H12X16900   0.290   2.067   7.972 -1.5713 -1.7951  0.6430
  152SAPE  H12Y16901   0.425   2.078   7.854  0.4477 -1.7169 -1.0377
  152SAPE  C31316902   0.328   1.878   7.858  1.0405  0.1282 -0.3899
  152SAPE  H13X16903   0.359   1.845   7.757 -0.2236  1.0902 -1.1091
  152SAPE  H13Y16904   0.222   1.852   7.878  1.4094 -0.4469  0.8942
  152SAPE  C31416905   0.432   1.807   7.952 -0.0512  0.2325 -0.4876
  152SAPE  H14X16906   0.408   1.699   7.963  1.4787 -0.4986 -3.7622
  152SAPE  H14Y16907   0.417   1.853   8.052  1.2397 -0.7169  0.1549
  152SAPE  C31516908   0.573   1.828   7.897  0.0111  0.3653  0.6807
  152SAPE  H15X16909   0.580   1.931   7.856  0.4485  0.1682  0.2503
  152SAPE  H15Y16910   0.588   1.768   7.804  1.2297  0.1783  0.9857
  152SAPE  C31616911   0.685   1.792   8.002 -0.4410  0.1521 -0.5979
  152SAPE  H16X16912   0.681   1.683   8.023  1.8336 -0.0010 -0.9044
  152SAPE  H16Y16913   0.667   1.849   8.096  2.8846  1.0012 -0.4089
  152SAPE  C31716914   0.819   1.818   7.928  0.2953  0.1245  0.4732
  152SAPE  H17X16915   0.849   1.925   7.929  0.0240  0.2061 -0.1461
  152SAPE  H17Y16916   0.800   1.778   7.826 -3.4728  0.6557  0.9015
  152SAPE  C31816917   0.936   1.750   8.007  0.1427  0.3674  0.4680
  152SAPE  H18X16918   0.918   1.640   8.011 -1.7479  0.6428 -0.3441
  152SAPE  H18Y16919   0.955   1.793   8.108 -1.4165  0.8383  0.5625
  152SAPE  H18Z16920   1.033   1.748   7.952 -0.1897 -3.1397 -0.0846
  153SAPE     N16921   4.012   3.263   6.157  0.4050  0.2630  0.6609
  153SAPE   HN116922   4.065   3.338   6.206  2.0740 -1.3032  1.3135
  153SAPE   HN216923   3.957   3.208   6.225  1.9772  0.3758  2.0755
  153SAPE   HN316924   4.088   3.196   6.133  0.0778 -0.2389  1.0264
  153SAPE   C1216925   3.919   3.314   6.047 -0.2227 -0.4475  0.6724
  153SAPE  H12A16926   3.872   3.231   5.991  0.0513 -0.6079  0.6772
  153SAPE  H12B16927   3.986   3.377   5.985 -1.1976  0.7759  0.8357
  153SAPE   C1116928   3.806   3.398   6.103  1.3039 -0.3954 -0.2580
  153SAPE  H11A16929   3.759   3.435   6.009 -0.6229 -4.0095 -0.8105
  153SAPE  H11B16930   3.831   3.494   6.152  1.1638 -0.8538  0.7287
  153SAPE     P16931   3.586   3.254   6.139 -0.0569 -0.4392 -0.5970
  153SAPE   O1316932   3.492   3.356   6.081  0.0570  0.5441  0.4239
  153SAPE   O1416933   3.629   3.138   6.057  0.3129  0.0027 -0.2341
  153SAPE   O1216934   3.717   3.333   6.190 -0.1247  0.4423 -0.0117
  153SAPE   O1116935   3.523   3.202   6.268  0.4392 -0.0174  0.3759
  153SAPE    C116936   3.522   3.075   6.334 -0.0967 -0.5675 -0.5388
  153SAPE    HA16937   3.442   3.082   6.410  0.4080 -0.8468  0.0288
  153SAPE    HB16938   3.498   2.995   6.260  0.1338 -0.7624 -0.4057
  153SAPE    C216939   3.656   3.045   6.406 -0.2075 -1.1547 -0.3134
  153SAPE    HS16940   3.736   3.031   6.331  1.0344  3.4874  0.0270
  153SAPE   O2116941   3.638   2.927   6.482  0.1716  0.1601  0.1781
  153SAPE   C2116942   3.747   2.864   6.538 -0.1342 -0.4965  0.0102
  153SAPE   O2216943   3.861   2.881   6.503 -0.8973  0.7055 -0.0418
  153SAPE   C2216944   3.705   2.777   6.655  0.1706  1.1412 -0.2609
  153SAPE   H2R16945   3.704   2.829   6.753 -0.8922 -2.9367  2.0079
  153SAPE   H2S16946   3.595   2.760   6.647  0.3897 -0.9937  0.8304
  153SAPE    C316947   3.696   3.168   6.502 -0.1655 -0.3095 -0.3359
  153SAPE    HX16948   3.599   3.175   6.555 -1.4261  0.7823 -2.7047
  153SAPE    HY16949   3.705   3.265   6.449 -0.8802  0.0913  0.2737
  153SAPE   O3116950   3.808   3.139   6.586  0.0164 -0.0901 -0.2607
  153SAPE   C3116951   3.930   3.167   6.538  0.1789 -0.6431  0.1994
  153SAPE   O3216952   3.952   3.207   6.423  0.3085  0.3439 -0.6778
  153SAPE   C3216953   4.031   3.132   6.647 -0.0750 -0.5163 -0.2775
  153SAPE   H2X16954   4.133   3.160   6.613  0.1083 -1.6157 -0.6501
  153SAPE   H2Y16955   4.028   3.023   6.669  0.4937 -0.4684  0.0523
  153SAPE   C2316956   3.785   2.647   6.652  0.5296  0.9701  0.2731
  153SAPE   H3R16957   3.838   2.625   6.557 -2.5692  1.8036 -1.7241
  153SAPE   H3S16958   3.707   2.568   6.659  2.1206 -0.5611  1.2396
  153SAPE   C2416959   3.888   2.640   6.767  0.4932  0.3248  0.3487
  153SAPE   H4R16960   3.944   2.735   6.762 -0.3401  0.7444 -1.6329
  153SAPE   H4S16961   3.956   2.559   6.734  1.1118  1.2795 -0.7585
  153SAPE   C2516962   3.819   2.616   6.898 -0.6099  0.1868 -0.1541
  153SAPE   H5R16963   3.763   2.522   6.907 -0.4678  0.1289  0.1174
  153SAPE   C2616964   3.804   2.708   7.003 -0.2763 -0.2462  0.2683
  153SAPE   H6R16965   3.761   2.670   7.097 -2.7506  1.6171 -0.0603
  153SAPE   C2716966   3.867   2.854   7.002  0.3330 -0.0434  0.5426
  153SAPE   H7R16967   3.886   2.891   6.898  1.5695 -2.2515 -0.0346
  153SAPE   H7S16968   3.964   2.852   7.055  0.5621  1.2229  0.2028
  153SAPE   C2816969   3.783   2.954   7.066  0.2791 -0.4607 -0.0901
  153SAPE   H8R16970   3.706   3.006   7.008  1.0470 -0.5884 -1.2368
  153SAPE   C2916971   3.775   2.985   7.197  0.0951 -0.8584  0.8689
  153SAPE   H9R16972   3.703   3.062   7.227 -0.2264 -1.3221  1.2912
  153SAPE  C21016973   3.856   2.936   7.316 -0.5508  0.8959  0.3840
  153SAPE  H10R16974   3.846   3.017   7.392  0.4436 -0.4409  1.9877
  153SAPE  H10S16975   3.963   2.947   7.288  0.1198 -0.7932  2.1347
  153SAPE  C21116976   3.822   2.793   7.355 -0.4332  0.4123 -0.0216
  153SAPE  H11R16977   3.853   2.708   7.292  0.2083 -0.4388  1.4195
  153SAPE  C21216978   3.776   2.750   7.472  0.1126  0.5084  0.3760
  153SAPE  H12R16979   3.769   2.642   7.493 -0.6530  0.4211 -0.3048
  153SAPE  C21316980   3.747   2.836   7.590  0.9206 -0.8247 -0.4624
  153SAPE  H13R16981   3.661   2.901   7.562  3.3983  2.3436 -1.0353
  153SAPE  H13S16982   3.825   2.913   7.608 -0.9486  0.4084  2.9444
  153SAPE  C21416983   3.708   2.758   7.713  0.1820  0.5867  0.5856
  153SAPE  H14R16984   3.625   2.688   7.693  2.7151 -3.1865  2.6078
  153SAPE  C21516985   3.776   2.761   7.833  0.3240 -0.7015 -0.2115
  153SAPE  H15R16986   3.753   2.696   7.919 -0.0169 -0.2323  0.0479
  153SAPE  C21616987   3.892   2.848   7.872  0.0008 -0.3090 -1.0464
  153SAPE  H16R16988   3.854   2.945   7.910  0.4959 -0.4449 -0.2002
  153SAPE  H16S16989   3.950   2.876   7.781 -0.4565 -1.1321 -1.6011
  153SAPE  C21716990   4.000   2.793   7.970 -0.0295  0.4547 -0.1508
  153SAPE  H17R16991   4.085   2.864   7.969  0.4676 -0.1493 -0.9148
  153SAPE  H17S16992   4.041   2.696   7.935 -2.5067 -0.2326 -1.2683
  153SAPE  C21816993   3.943   2.781   8.111  0.7013  0.2598 -0.1352
  153SAPE  H18R16994   3.880   2.691   8.127  0.3584  0.7650  1.4599
  153SAPE  H18S16995   3.883   2.872   8.131  2.0476  0.9530  0.8339
  153SAPE  C21916996   4.043   2.775   8.219  0.3053 -0.3527 -0.3572
  153SAPE  H19R16997   4.111   2.863   8.227 -1.2012  0.8234 -0.3425
  153SAPE  H19S16998   4.118   2.693   8.211  1.0659  0.1529  1.2786
  153SAPE  C22016999   3.981   2.768   8.363  0.0561  0.1030  0.5711
  153SAPE  H20R17000   3.926   2.863   8.377  0.0255  0.4399 -1.6526
  153SAPE  H20S17001   4.058   2.748   8.440 -0.8949  0.5770  1.6559
  153SAPE  H20T17002   3.916   2.678   8.367  1.1519 -0.9814 -3.3345
  153SAPE   C3317003   4.013   3.210   6.783  0.3165 -0.2213  0.4041
  153SAPE   H3X17004   3.910   3.194   6.823  0.5705 -4.1659 -0.3801
  153SAPE   H3Y17005   4.017   3.318   6.759 -0.0560  0.4325  3.0976
  153SAPE   C3417006   4.108   3.161   6.893  0.1278 -0.4918 -0.5686
  153SAPE   H4X17007   4.214   3.183   6.867  0.8666 -3.0088  0.1278
  153SAPE   H4Y17008   4.105   3.050   6.898 -0.0810 -0.4826 -0.5029
  153SAPE   C3517009   4.076   3.230   7.029  0.0599  0.5665 -0.3665
  153SAPE   H5X17010   3.970   3.216   7.059  0.0558  0.3310 -0.4878
  153SAPE   H5Y17011   4.096   3.339   7.020 -0.9350  0.6178 -2.1726
  153SAPE   C3617012   4.153   3.157   7.145 -1.0112 -0.7397 -0.4078
  153SAPE   H6X17013   4.260   3.170   7.119 -1.0103  1.9294  0.8149
  153SAPE   H6Y17014   4.112   3.053   7.145 -3.0514  0.0402 -0.0569
  153SAPE   C3717015   4.111   3.222   7.281 -0.2917  0.7574 -1.0535
  153SAPE   H7X17016   4.001   3.205   7.287 -0.0402 -0.0847  1.6026
  153SAPE   H7Y17017   4.124   3.332   7.282  0.1205  0.7519  2.7159
  153SAPE   C3817018   4.179   3.169   7.403  0.8970 -0.1844 -0.1305
  153SAPE   H8X17019   4.290   3.171   7.398  0.9012  0.8090  0.1805
  153SAPE   H8Y17020   4.141   3.065   7.409  0.5433 -0.1338 -1.3167
  153SAPE   C3917021   4.137   3.240   7.531  0.1845 -0.3130  0.4680
  153SAPE   H9X17022   4.027   3.246   7.518  0.1970 -0.6107  0.2342
  153SAPE   H9Y17023   4.178   3.343   7.521 -0.8245  0.1536  0.9587
  153SAPE  C31017024   4.161   3.149   7.649  0.0842  0.4062  1.0149
  153SAPE  H10X17025   4.155   3.041   7.624  0.7831  0.6054 -0.0280
  153SAPE  H10Y17026   4.087   3.169   7.730  0.4060 -1.3677  1.7655
  153SAPE  C31117027   4.297   3.189   7.724  0.2957 -0.0793  0.2878
  153SAPE  H11X17028   4.321   3.294   7.697  0.3957  0.2885  1.7532
  153SAPE  H11Y17029   4.385   3.132   7.688 -0.3002 -0.1461 -1.1076
  153SAPE  C31217030   4.280   3.194   7.881 -0.8329  0.6215  0.2638
  153SAPE  H12X17031   4.228   3.097   7.896  0.0975  0.1890  0.7462
  153SAPE  H12Y17032   4.213   3.271   7.924 -0.2130  1.7203 -0.6995
  153SAPE  C31317033   4.418   3.200   7.949 -0.3757  0.0586  0.4002
  153SAPE  H13X17034   4.442   3.304   7.979  1.1878  0.2882 -1.5538
  153SAPE  H13Y17035   4.490   3.164   7.873 -1.4427 -0.3794 -0.4196
  153SAPE  C31417036   4.438   3.110   8.073 -0.4523  0.0419 -0.7629
  153SAPE  H14X17037   4.423   3.002   8.052  0.3795 -0.5170  1.4108
  153SAPE  H14Y17038   4.354   3.142   8.138  1.8946 -0.9130  2.8881
  153SAPE  C31517039   4.575   3.132   8.139  0.4081 -0.0908  0.1521
  153SAPE  H15X17040   4.594   3.240   8.157  1.0957 -0.1850  0.0117
  153SAPE  H15Y17041   4.651   3.108   8.061  1.5456  0.2211  1.1540
  153SAPE  C31617042   4.591   3.049   8.274 -0.3625  0.0688 -0.2558
  153SAPE  H16X17043   4.526   3.089   8.355  0.8242  1.4214  0.0341
  153SAPE  H16Y17044   4.696   3.060   8.306 -0.2565 -3.1811  0.7821
  153SAPE  C31717045   4.571   2.891   8.256 -0.0832 -0.9141  0.1817
  153SAPE  H17X17046   4.627   2.859   8.166  0.0098  0.9254 -0.4509
  153SAPE  H17Y17047   4.462   2.869   8.244 -0.4511  0.9365 -0.1001
  153SAPE  C31817048   4.606   2.804   8.380 -0.4746 -0.0799 -0.1793
  153SAPE  H18X17049   4.714   2.784   8.397 -0.8034  0.0364  2.2163
  153SAPE  H18Y17050   4.556   2.705   8.371  0.4558 -0.5648  0.0060
  153SAPE  H18Z17051   4.563   2.846   8.474 -1.6674 -2.1507  0.2302
  154SAPE     N17052   2.011   2.180   6.403  0.5328  0.3164 -0.0039
  154SAPE   HN117053   2.091   2.244   6.423 -1.7654  3.1432  0.5645
  154SAPE   HN217054   2.022   2.144   6.306  0.8719 -0.8185  0.4493
  154SAPE   HN317055   1.924   2.235   6.386 -0.8817 -1.7325  0.4697
  154SAPE   C1217056   1.993   2.063   6.497  0.2263 -0.0349  0.0412
  154SAPE  H12A17057   1.885   2.040   6.503  0.9536 -3.3903  0.9819
  154SAPE  H12B17058   2.017   2.099   6.599  0.2651 -0.1878  0.0841
  154SAPE   C1117059   2.086   1.942   6.455 -0.4109 -0.7152  0.1084
  154SAPE  H11A17060   2.047   1.852   6.507  0.0529 -1.2683 -0.4835
  154SAPE  H11B17061   2.191   1.950   6.488 -0.6324  0.2841  0.6018
  154SAPE     P17062   2.116   1.801   6.229 -0.2833 -0.7261 -0.3022
  154SAPE   O1317063   2.079   1.836   6.090 -0.2367 -0.2042 -0.4588
  154SAPE   O1417064   2.262   1.771   6.257 -0.1848 -0.1248 -0.4955
  154SAPE   O1217065   2.074   1.925   6.314 -0.1244  0.0536 -0.3312
  154SAPE   O1117066   2.017   1.688   6.284  0.3385 -0.0191  0.9317
  154SAPE    C117067   1.879   1.696   6.290  0.2739 -0.8753  0.3731
  154SAPE    HA17068   1.858   1.802   6.318  0.8679  0.0290 -2.4922
  154SAPE    HB17069   1.837   1.678   6.189 -0.0402  0.2803  0.2909
  154SAPE    C217070   1.816   1.607   6.402 -0.7437 -0.3315 -0.2020
  154SAPE    HS17071   1.707   1.629   6.402 -0.2553  2.3711  0.9814
  154SAPE   O2117072   1.880   1.656   6.526 -0.2806 -0.2321 -0.1997
  154SAPE   C2117073   1.801   1.669   6.631 -0.0192 -0.5517  0.3559
  154SAPE   O2217074   1.681   1.652   6.638 -0.5569  0.7514 -0.2339
  154SAPE   C2217075   1.885   1.723   6.746  0.1313 -0.4761 -0.3035
  154SAPE   H2R17076   1.959   1.788   6.694  0.4550 -0.7100 -0.1358
  154SAPE   H2S17077   1.825   1.789   6.813  0.8908 -1.5539  1.4708
  154SAPE    C317078   1.843   1.450   6.374 -0.0300 -0.7646 -0.0682
  154SAPE    HX17079   1.952   1.445   6.352 -0.0494  0.7076 -0.5623
  154SAPE    HY17080   1.784   1.424   6.283  0.7005  1.2287 -1.1611
  154SAPE   O3117081   1.811   1.359   6.482 -0.2958  0.6104  0.0225
  154SAPE   C3117082   1.682   1.333   6.498 -0.1575 -0.4496 -0.0209
  154SAPE   O3217083   1.591   1.383   6.428 -0.7166 -0.6197  1.0094
  154SAPE   C3217084   1.655   1.254   6.628 -0.2038  0.2270  0.7388
  154SAPE   H2X17085   1.742   1.190   6.654 -1.3959 -1.2335  1.2263
  154SAPE   H2Y17086   1.571   1.185   6.607  1.4555 -2.0849  1.3722
  154SAPE   C2317087   1.947   1.612   6.826  0.1838  0.6968 -0.1228
  154SAPE   H3R17088   1.869   1.553   6.880  0.8341  0.4528  0.5612
  154SAPE   H3S17089   1.987   1.677   6.907 -0.4728  0.2358  0.5831
  154SAPE   C2417090   2.042   1.519   6.750 -0.3763 -1.1712 -0.0860
  154SAPE   H4R17091   1.998   1.460   6.667 -1.5581 -0.6652  0.1709
  154SAPE   H4S17092   2.078   1.451   6.830 -0.5699  0.9292  1.8381
  154SAPE   C2517093   2.153   1.598   6.681 -0.0778 -0.3033  0.5596
  154SAPE   H5R17094   2.136   1.637   6.580  0.0653 -1.6638  0.0065
  154SAPE   C2617095   2.276   1.619   6.735 -0.2695  0.0827  0.1464
  154SAPE   H6R17096   2.340   1.684   6.673 -0.0975 -0.3506 -0.1283
  154SAPE   C2717097   2.325   1.584   6.871 -0.3459 -0.0035 -0.2121
  154SAPE   H7R17098   2.275   1.493   6.909 -0.9356 -0.7386 -2.6739
  154SAPE   H7S17099   2.299   1.671   6.936 -0.1850  1.4778 -2.0844
  154SAPE   C2817100   2.476   1.556   6.871  0.8809  0.5073  0.6025
  154SAPE   H8R17101   2.515   1.498   6.786 -1.8114  0.1004 -0.4203
  154SAPE   C2917102   2.564   1.586   6.967 -0.0376 -0.2649 -0.1205
  154SAPE   H9R17103   2.672   1.574   6.948  0.0073  0.0092 -0.0344
  154SAPE  C21017104   2.530   1.660   7.096  0.4332  0.2563 -0.2612
  154SAPE  H10R17105   2.590   1.626   7.183 -0.4040 -0.5666  0.0014
  154SAPE  H10S17106   2.422   1.649   7.117  0.5004 -1.9418 -0.8979
  154SAPE  C21117107   2.547   1.808   7.069 -0.0148  0.1728 -0.1195
  154SAPE  H11R17108   2.515   1.847   6.971 -0.2708 -1.6270 -0.7538
  154SAPE  C21217109   2.606   1.903   7.144 -0.8563  0.4498 -0.2534
  154SAPE  H12R17110   2.611   2.008   7.112 -2.0670  1.1815  1.7888
  154SAPE  C21317111   2.673   1.886   7.275 -0.9718 -0.1389 -0.0504
  154SAPE  H13R17112   2.675   1.777   7.298  0.1538 -0.4564 -1.5099
  154SAPE  H13S17113   2.613   1.920   7.362  0.8553  0.3818  1.0256
  154SAPE  C21417114   2.821   1.922   7.269  0.9948 -0.0585  0.0189
  154SAPE  H14R17115   2.860   1.963   7.175  0.8170  3.4742  1.3876
  154SAPE  C21517116   2.896   1.946   7.376 -0.1311  0.5876 -0.1717
  154SAPE  H15R17117   2.993   1.986   7.343  1.3125 -2.0227  0.7571
  154SAPE  C21617118   2.876   1.938   7.527 -0.2319  0.3934  0.0303
  154SAPE  H16R17119   2.772   1.909   7.552  0.9337 -1.1315  3.4468
  154SAPE  H16S17120   2.892   2.037   7.575 -0.4825  0.1601  0.6032
  154SAPE  C21717121   2.970   1.838   7.596  0.0318 -0.6773  0.3963
  154SAPE  H17R17122   3.075   1.844   7.561 -0.2622 -1.0427 -0.5703
  154SAPE  H17S17123   2.929   1.744   7.554  0.0657 -0.6034  0.1925
  154SAPE  C21817124   2.981   1.841   7.753 -0.1972 -0.2674 -0.5236
  154SAPE  H18R17125   2.932   1.928   7.801  0.7421 -0.1222  0.2084
  154SAPE  H18S17126   3.091   1.848   7.773 -0.1755 -1.1591 -0.3081
  154SAPE  C21917127   2.938   1.704   7.815 -0.5362  0.1319  0.7226
  154SAPE  H19R17128   2.999   1.627   7.764  0.0234  1.4140 -0.6041
  154SAPE  H19S17129   2.832   1.679   7.789 -0.5086  2.0820 -1.4890
  154SAPE  C22017130   2.932   1.692   7.959 -0.0524 -0.2442  0.1224
  154SAPE  H20R17131   2.834   1.731   7.994 -0.9301 -1.7445 -0.6042
  154SAPE  H20S17132   3.016   1.739   8.014  0.0362  0.5930 -0.7208
  154SAPE  H20T17133   2.919   1.583   7.979  0.5614 -1.0710 -3.5203
  154SAPE   C3317134   1.636   1.344   6.765  0.1481  0.8649 -0.5319
  154SAPE   H3X17135   1.542   1.403   6.762 -0.5306 -0.2999 -3.6844
  154SAPE   H3Y17136   1.718   1.418   6.767  0.3329  0.6413  0.4545
  154SAPE   C3417137   1.648   1.251   6.889 -0.7379  0.2384 -0.0135
  154SAPE   H4X17138   1.729   1.176   6.876 -2.0486 -1.4582  1.2932
  154SAPE   H4Y17139   1.557   1.192   6.916 -0.7080  0.8214  1.3912
  154SAPE   C3517140   1.665   1.326   7.023 -0.3879 -0.0965 -0.3205
  154SAPE   H5X17141   1.586   1.404   7.036  1.4762  1.8708 -0.5274
  154SAPE   H5Y17142   1.757   1.388   7.015 -0.7852  0.5606  0.1900
  154SAPE   C3617143   1.693   1.232   7.143  0.5202  0.3337 -0.2698
  154SAPE   H6X17144   1.791   1.182   7.126  1.0201  0.7696  1.2702
  154SAPE   H6Y17145   1.618   1.149   7.145  2.1535 -1.1386  1.2625
  154SAPE   C3717146   1.720   1.311   7.276 -0.4508 -0.1040  0.4037
  154SAPE   H7X17147   1.629   1.372   7.293  0.9245  1.4250  2.4271
  154SAPE   H7Y17148   1.802   1.385   7.265 -1.3888  0.9003 -0.0630
  154SAPE   C3817149   1.742   1.228   7.401 -0.4366 -0.0146  0.1503
  154SAPE   H8X17150   1.848   1.195   7.396 -0.9247 -1.3596 -1.9452
  154SAPE   H8Y17151   1.684   1.133   7.406  0.6677 -0.7064 -0.0331
  154SAPE   C3917152   1.730   1.322   7.526  1.0841 -0.2818  0.8255
  154SAPE   H9X17153   1.640   1.386   7.518  0.7975 -0.4457  2.6584
  154SAPE   H9Y17154   1.809   1.400   7.530 -1.1355  2.0235  1.2403
  154SAPE  C31017155   1.737   1.237   7.649 -0.3874  0.7775 -1.0210
  154SAPE  H10X17156   1.845   1.209   7.653 -0.5507  0.4028  1.2485
  154SAPE  H10Y17157   1.679   1.143   7.640 -1.6830  1.6805 -2.1723
  154SAPE  C31117158   1.685   1.304   7.772 -0.7045  0.1609  0.4620
  154SAPE  H11X17159   1.579   1.325   7.749 -1.0917  1.2503  3.0668
  154SAPE  H11Y17160   1.735   1.403   7.764  0.0068 -0.1673  0.7678
  154SAPE  C31217161   1.705   1.231   7.900  0.4889 -0.0511 -0.0854
  154SAPE  H12X17162   1.786   1.156   7.892 -0.3883 -0.8847 -1.4283
  154SAPE  H12Y17163   1.612   1.181   7.934 -2.0625  2.4543 -3.0331
  154SAPE  C31317164   1.740   1.325   8.018 -0.0895  0.0475 -0.1826
  154SAPE  H13X17165   1.664   1.406   8.020 -0.0062  0.1111  0.6234
  154SAPE  H13Y17166   1.837   1.373   7.997 -0.4193  0.4795 -0.7305
  154SAPE  C31417167   1.743   1.256   8.153  0.1073 -0.5025  0.2273
  154SAPE  H14X17168   1.815   1.172   8.147 -1.8515 -2.2307  0.1941
  154SAPE  H14Y17169   1.639   1.218   8.167 -0.2830  1.0116  1.6980
  154SAPE  C31517170   1.780   1.343   8.281  0.7391  0.5742 -0.1977
  154SAPE  H15X17171   1.707   1.423   8.308  1.2114  0.3271  1.8691
  154SAPE  H15Y17172   1.880   1.384   8.254  1.4229 -1.1215 -0.2606
  154SAPE  C31617173   1.827   1.254   8.395  0.0632  0.0365  0.8909
  154SAPE  H16X17174   1.903   1.186   8.350 -1.0852 -0.3992 -0.4114
  154SAPE  H16Y17175   1.736   1.194   8.414 -0.4532  0.7869  0.8086
  154SAPE  C31717176   1.880   1.319   8.521  0.4889  0.1664  0.5258
  154SAPE  H17X17177   1.972   1.378   8.503  0.8762 -0.4954  0.2944
  154SAPE  H17Y17178   1.924   1.238   8.584 -0.5400 -1.4738 -0.8243
  154SAPE  C31817179   1.770   1.383   8.601 -0.3496 -0.2306 -0.2003
  154SAPE  H18X17180   1.735   1.480   8.558 -1.4560 -0.1576  0.8609
  154SAPE  H18Y17181   1.818   1.404   8.699  0.1534 -2.2497  0.0105
  154SAPE  H18Z17182   1.697   1.308   8.637  1.5171 -0.8063  2.5381
  155SAPE     N17183   2.130   3.572   6.458  0.3844 -0.3781  0.1822
  155SAPE   HN117184   2.170   3.640   6.526  2.1125 -0.2988 -0.8724
  155SAPE   HN217185   2.135   3.605   6.360  0.5664  1.3006  0.7507
  155SAPE   HN317186   2.027   3.565   6.469  0.2414 -0.0052 -0.9191
  155SAPE   C1217187   2.180   3.432   6.474 -0.3817 -0.8444  0.1409
  155SAPE  H12A17188   2.251   3.445   6.559  0.7538 -0.9853 -0.7661
  155SAPE  H12B17189   2.230   3.407   6.377 -0.4002 -1.3072  0.2496
  155SAPE   C1117190   2.073   3.334   6.508  0.0819  0.3662 -0.6566
  155SAPE  H11A17191   2.070   3.344   6.618 -0.9567  0.8026 -0.7214
  155SAPE  H11B17192   2.107   3.230   6.487  2.0248  1.3457 -2.6486
  155SAPE     P17193   1.846   3.243   6.412 -0.1456 -0.0168  0.2934
  155SAPE   O1317194   1.722   3.302   6.351 -0.2195  0.4482  0.5415
  155SAPE   O1417195   1.919   3.139   6.336  0.5950 -0.2518 -0.2397
  155SAPE   O1217196   1.941   3.369   6.451  0.8667 -0.0986  0.2097
  155SAPE   O1117197   1.810   3.188   6.552  0.0227 -0.0814  0.0812
  155SAPE    C117198   1.751   3.256   6.655 -0.5737 -0.2043  0.5723
  155SAPE    HA17199   1.796   3.357   6.666  1.5383 -0.9763 -0.6913
  155SAPE    HB17200   1.643   3.270   6.632 -1.0029 -2.1240  1.2797
  155SAPE    C217201   1.758   3.178   6.794 -0.8919 -0.1531  0.0147
  155SAPE    HS17202   1.743   3.254   6.874  0.9647 -0.3001  0.5292
  155SAPE   O2117203   1.882   3.103   6.809  0.2482  0.0374 -0.3662
  155SAPE   C2117204   1.986   3.176   6.829 -0.4875  0.7520 -1.1142
  155SAPE   O2217205   1.987   3.296   6.830 -0.3115 -0.4870 -0.3780
  155SAPE   C2217206   2.101   3.081   6.854 -0.0522 -0.7460 -0.4386
  155SAPE   H2R17207   2.090   3.032   6.953 -1.3195  1.6991  0.6562
  155SAPE   H2S17208   2.089   3.013   6.767 -0.5641  1.9491 -2.5245
  155SAPE    C317209   1.633   3.087   6.821 -0.1266  0.0419  0.2167
  155SAPE    HX17210   1.639   2.997   6.756  0.3702 -0.3770  0.8508
  155SAPE    HY17211   1.549   3.151   6.786 -0.4684 -0.2741  0.4484
  155SAPE   O3117212   1.626   3.062   6.963  0.2488 -0.0308 -0.1758
  155SAPE   C3117213   1.675   2.950   6.996 -0.4640  0.6255 -0.2540
  155SAPE   O3217214   1.693   2.854   6.925  0.4432  0.7103 -0.0284
  155SAPE   C3217215   1.703   2.958   7.143 -0.0879 -0.6499  0.6626
  155SAPE   H2X17216   1.606   2.959   7.198 -1.1278  0.3341 -1.1455
  155SAPE   H2Y17217   1.777   3.037   7.166  0.2744 -0.5592 -0.7980
  155SAPE   C2317218   2.253   3.133   6.838  0.9208  0.0140 -0.9295
  155SAPE   H3R17219   2.277   3.217   6.906  2.2680 -1.4576  0.4450
  155SAPE   H3S17220   2.267   3.177   6.737 -0.9585  0.2398 -1.1081
  155SAPE   C2417221   2.361   3.028   6.868 -0.2523 -0.0196 -0.0892
  155SAPE   H4R17222   2.355   3.000   6.975  0.1928  1.4121  0.3260
  155SAPE   H4S17223   2.461   3.075   6.858 -0.9207  1.2603 -0.9117
  155SAPE   C2517224   2.354   2.909   6.776 -0.3228 -0.1082 -0.7167
  155SAPE   H5R17225   2.404   2.921   6.679 -0.0667 -0.3201 -0.6107
  155SAPE   C2617226   2.303   2.789   6.811 -0.7101  0.1008  0.6213
  155SAPE   H6R17227   2.311   2.707   6.738  1.4443  0.6982  0.1571
  155SAPE   C2717228   2.261   2.744   6.941 -0.4330  0.0647  0.2916
  155SAPE   H7R17229   2.186   2.662   6.930 -1.1962  0.8705 -0.5076
  155SAPE   H7S17230   2.211   2.825   6.998  0.4277 -0.2517  1.5134
  155SAPE   C2817231   2.379   2.697   7.019 -0.4678 -1.0412  0.8493
  155SAPE   H8R17232   2.475   2.681   6.969 -0.4582  3.3104 -0.7081
  155SAPE   C2917233   2.372   2.688   7.158  0.1401 -0.3353  0.5446
  155SAPE   H9R17234   2.468   2.669   7.208  0.8782  0.7418 -0.4214
  155SAPE  C21017235   2.251   2.717   7.242  0.5528  0.6766  0.4804
  155SAPE  H10R17236   2.243   2.618   7.292  0.1568  0.6174  0.3054
  155SAPE  H10S17237   2.159   2.742   7.184  0.1915  1.0016  1.1929
  155SAPE  C21117238   2.259   2.823   7.345 -0.6764  0.3348  0.0514
  155SAPE  H11R17239   2.279   2.925   7.309 -0.7462  0.3534  0.0669
  155SAPE  C21217240   2.254   2.813   7.481  0.3635  0.2443 -0.1652
  155SAPE  H12R17241   2.269   2.899   7.548  0.2752 -0.4910  0.7994
  155SAPE  C21317242   2.231   2.692   7.569 -0.3094 -0.0098  0.2097
  155SAPE  H13R17243   2.176   2.611   7.515  3.6827 -2.3211 -0.5998
  155SAPE  H13S17244   2.174   2.720   7.660 -1.9439 -0.9307 -0.5013
  155SAPE  C21417245   2.352   2.620   7.605 -0.1243  0.1409  0.0902
  155SAPE  H14R17246   2.419   2.604   7.520  0.4912  0.8200  0.4424
  155SAPE  C21517247   2.383   2.552   7.715  0.7512  0.2420 -0.7876
  155SAPE  H15R17248   2.486   2.514   7.720  0.1061 -1.5166 -0.5113
  155SAPE  C21617249   2.297   2.538   7.838 -0.4477  0.3945 -0.0246
  155SAPE  H16R17250   2.329   2.439   7.877  1.5901  1.1876  0.3835
  155SAPE  H16S17251   2.190   2.540   7.806 -0.2270  2.6100 -0.6596
  155SAPE  C21717252   2.331   2.636   7.948 -0.0498 -0.1157  0.5629
  155SAPE  H17R17253   2.293   2.737   7.920 -0.7054 -0.1010  1.4916
  155SAPE  H17S17254   2.442   2.638   7.952  0.0273 -1.4186 -0.7463
  155SAPE  C21817255   2.268   2.600   8.082 -0.1734  0.3781 -0.5285
  155SAPE  H18R17256   2.274   2.489   8.089  0.8966  0.6047  3.1492
  155SAPE  H18S17257   2.161   2.630   8.068 -0.0712  0.6965 -0.6304
  155SAPE  C21917258   2.324   2.685   8.198 -0.6783 -0.2078  0.1928
  155SAPE  H19R17259   2.330   2.792   8.169  3.4150 -0.2583  0.5460
  155SAPE  H19S17260   2.431   2.656   8.203 -0.9982 -1.0966  3.0459
  155SAPE  C22017261   2.258   2.667   8.338 -0.1927 -0.3445 -0.5525
  155SAPE  H20R17262   2.296   2.746   8.406 -0.5907  0.9446 -1.8064
  155SAPE  H20S17263   2.276   2.566   8.380 -0.4856  0.3144  1.2284
  155SAPE  H20T17264   2.151   2.684   8.313 -0.6286 -2.7963 -0.4473
  155SAPE   C3317265   1.771   2.825   7.188 -0.0204  0.4373 -0.0977
  155SAPE   H3X17266   1.858   2.812   7.121 -0.8904 -0.8300 -0.9908
  155SAPE   H3Y17267   1.697   2.745   7.165  0.2013  0.3300 -0.4389
  155SAPE   C3417268   1.836   2.833   7.331 -0.2488 -0.1658 -0.2193
  155SAPE   H4X17269   1.907   2.916   7.349  0.4410 -1.3475  2.9813
  155SAPE   H4Y17270   1.896   2.740   7.331 -0.5109 -0.4333 -4.7367
  155SAPE   C3517271   1.748   2.816   7.454 -0.1067  0.2030  0.4096
  155SAPE   H5X17272   1.697   2.717   7.458  1.6286 -0.7601 -1.1328
  155SAPE   H5Y17273   1.677   2.899   7.480  1.2688  0.5028  3.4671
  155SAPE   C3617274   1.830   2.815   7.583  0.1002  0.1257 -0.1854
  155SAPE   H6X17275   1.869   2.917   7.607  1.8382 -0.5899  0.1038
  155SAPE   H6Y17276   1.918   2.750   7.564 -0.7012 -0.8033 -0.7408
  155SAPE   C3717277   1.746   2.764   7.704 -0.1065 -0.0765 -0.1476
  155SAPE   H7X17278   1.687   2.677   7.670 -1.3892  1.4718 -2.0064
  155SAPE   H7Y17279   1.676   2.846   7.732 -0.4872  0.7498 -3.4002
  155SAPE   C3817280   1.831   2.737   7.830 -0.0650  0.4474  0.3966
  155SAPE   H8X17281   1.901   2.824   7.832  0.2052  0.3495 -2.6001
  155SAPE   H8Y17282   1.892   2.646   7.810  1.4901  2.1092 -2.9380
  155SAPE   C3917283   1.747   2.738   7.954  0.1205  0.4326  0.6515
  155SAPE   H9X17284   1.673   2.656   7.957 -1.1844  1.3223 -3.5085
  155SAPE   H9Y17285   1.690   2.833   7.959 -0.3340  0.0372  3.7013
  155SAPE  C31017286   1.850   2.717   8.073  0.0144 -0.4308 -0.3328
  155SAPE  H10X17287   1.925   2.798   8.061  0.3423 -0.8307 -0.9754
  155SAPE  H10Y17288   1.915   2.627   8.079  2.2699  1.2110  0.5967
  155SAPE  C31117289   1.779   2.748   8.202  0.2869  0.4623  0.1332
  155SAPE  H11X17290   1.728   2.657   8.243  0.6277  0.1567 -0.1216
  155SAPE  H11Y17291   1.699   2.822   8.179 -0.5518  0.2225  2.1230
  155SAPE  C31217292   1.874   2.810   8.304  0.4764  0.5497 -0.0673
  155SAPE  H12X17293   1.918   2.903   8.262  0.6418  1.4066  1.9548
  155SAPE  H12Y17294   1.952   2.734   8.322  2.7671  2.5863 -1.0381
  155SAPE  C31317295   1.806   2.846   8.433  0.6215 -0.1733  1.0307
  155SAPE  H13X17296   1.747   2.760   8.469  1.2878 -1.0073  0.1541
  155SAPE  H13Y17297   1.724   2.917   8.412 -0.5329 -1.3125  1.6634
  155SAPE  C31417298   1.900   2.879   8.545 -0.1285  0.1447  0.5833
  155SAPE  H14X17299   1.935   2.984   8.537 -1.1076  0.4058 -0.3478
  155SAPE  H14Y17300   1.984   2.806   8.542 -0.4168 -0.1278 -1.3446
  155SAPE  C31517301   1.837   2.882   8.687  0.7479  0.3905  0.2070
  155SAPE  H15X17302   1.735   2.925   8.697  0.9844  1.1834 -0.7559
  155SAPE  H15Y17303   1.919   2.925   8.749 -0.2036  1.7132  0.5870
  155SAPE  C31617304   1.831   2.741   8.747 -0.1818 -0.2585  0.0778
  155SAPE  H16X17305   1.934   2.703   8.732  0.8933  2.2888  0.7369
  155SAPE  H16Y17306   1.765   2.675   8.687  0.5082 -0.2435 -0.7027
  155SAPE  C31717307   1.797   2.723   8.894 -0.5763  0.0914  0.5926
  155SAPE  H17X17308   1.860   2.787   8.960  1.2334  0.3143 -1.2713
  155SAPE  H17Y17309   1.815   2.616   8.917 -1.9730 -0.2214  0.2574
  155SAPE  C31817310   1.648   2.747   8.917 -0.0188 -0.1836 -0.2289
  155SAPE  H18X17311   1.628   2.856   8.914  2.0049  0.2652  1.2975
  155SAPE  H18Y17312   1.609   2.711   9.015  1.6703 -1.2872  0.0591
  155SAPE  H18Z17313   1.582   2.692   8.846  0.3587 -1.7654  0.5977
  156SAPE     N17314   1.096   3.456   6.588  0.0691  0.3389 -0.0527
  156SAPE   HN117315   1.197   3.478   6.581  0.3200 -0.7382  0.0701
  156SAPE   HN217316   1.033   3.519   6.535  2.4386 -0.7358 -4.3521
  156SAPE   HN317317   1.073   3.459   6.690  2.6843  0.7648  0.5476
  156SAPE   C1217318   1.068   3.322   6.537 -0.2696  0.3856 -0.0056
  156SAPE  H12A17319   1.130   3.253   6.598  0.3816  0.9650 -0.0069
  156SAPE  H12B17320   1.108   3.320   6.433  0.2691 -0.9195  0.2137
  156SAPE   C1117321   0.921   3.294   6.542  0.3041  0.6903 -0.1516
  156SAPE  H11A17322   0.878   3.296   6.644 -0.7342  0.7778 -0.5834
  156SAPE  H11B17323   0.913   3.188   6.511 -1.6348  0.7478  0.0646
  156SAPE     P17324   0.694   3.371   6.446  0.1242  0.3334  0.2579
  156SAPE   O1317325   0.658   3.490   6.367 -0.1709 -0.6521  0.4052
  156SAPE   O1417326   0.655   3.238   6.395  0.2866  0.4961  0.2596
  156SAPE   O1217327   0.846   3.374   6.455 -0.0491  0.2402  0.7078
  156SAPE   O1117328   0.657   3.383   6.592 -0.4951  0.1130  0.2535
  156SAPE    C117329   0.567   3.491   6.632  0.2001 -0.0099  0.1146
  156SAPE    HA17330   0.626   3.583   6.615  0.2142 -0.1052 -0.3653
  156SAPE    HB17331   0.470   3.484   6.577  1.3143  1.2057 -2.0860
  156SAPE    C217332   0.530   3.477   6.779  0.9848 -0.3418  0.2198
  156SAPE    HS17333   0.421   3.498   6.791  0.6560 -1.5449 -0.6107
  156SAPE   O2117334   0.610   3.567   6.859 -0.2157  0.0034 -0.3147
  156SAPE   C2117335   0.575   3.693   6.840  0.1296 -0.1903  0.3003
  156SAPE   O2217336   0.477   3.732   6.774  0.4548  0.0339  0.1201
  156SAPE   C2217337   0.664   3.783   6.923 -0.1442  0.4418 -0.3626
  156SAPE   H2R17338   0.771   3.755   6.908 -0.0164  0.5615  0.3089
  156SAPE   H2S17339   0.638   3.889   6.901 -2.7443 -0.8191 -3.8343
  156SAPE    C317340   0.550   3.331   6.828 -0.4077 -0.4636 -0.4621
  156SAPE    HX17341   0.651   3.291   6.803  1.1941  2.7754  0.5700
  156SAPE    HY17342   0.473   3.285   6.763 -0.3790  0.5488 -1.2149
  156SAPE   O3117343   0.516   3.320   6.969  0.1083  0.2892 -0.0326
  156SAPE   C3117344   0.434   3.214   6.995 -0.2187 -0.4105 -1.2550
  156SAPE   O3217345   0.397   3.130   6.914  0.6975 -0.2688  0.8648
  156SAPE   C3217346   0.394   3.214   7.146  0.3113  0.5139  0.5931
  156SAPE   H2X17347   0.301   3.154   7.157  0.6240  0.0131  0.5075
  156SAPE   H2Y17348   0.351   3.316   7.155 -3.0198 -0.7167 -0.6759
  156SAPE   C2317349   0.638   3.751   7.077 -0.0595  0.5330 -0.3065
  156SAPE   H3R17350   0.718   3.778   7.149 -2.4912  1.6707  2.1031
  156SAPE   H3S17351   0.619   3.642   7.082 -3.3940  1.0393 -0.7790
  156SAPE   C2417352   0.512   3.831   7.123 -0.1872  0.1509 -0.5767
  156SAPE   H4R17353   0.423   3.786   7.075 -0.0381  0.6437 -1.3332
  156SAPE   H4S17354   0.518   3.939   7.095  4.0544  0.2466  0.2986
  156SAPE   C2517355   0.495   3.823   7.276  0.2783 -0.5122 -0.3188
  156SAPE   H5R17356   0.577   3.873   7.329 -0.2695  1.5363 -1.3607
  156SAPE   C2617357   0.415   3.750   7.345  0.3786 -0.0592 -0.0759
  156SAPE   H6R17358   0.408   3.773   7.452  2.9601  0.7760 -0.0590
  156SAPE   C2717359   0.320   3.648   7.290 -0.3173  0.2029  0.3128
  156SAPE   H7R17360   0.369   3.572   7.225 -1.8532 -2.0730  1.7497
  156SAPE   H7S17361   0.241   3.697   7.229  0.1253  0.3009 -0.1896
  156SAPE   C2817362   0.252   3.551   7.391  0.0811 -0.0405  0.3470
  156SAPE   H8R17363   0.284   3.446   7.384 -0.4645 -0.2271  0.6741
  156SAPE   C2917364   0.176   3.581   7.502  0.2940 -0.3522  0.4425
  156SAPE   H9R17365   0.133   3.497   7.558  1.0350 -0.2871  1.1157
  156SAPE  C21017366   0.129   3.719   7.542 -0.7569  0.2415 -0.7735
  156SAPE  H10R17367   0.018   3.706   7.539 -0.6714 -0.4604 -1.0531
  156SAPE  H10S17368   0.158   3.801   7.473 -0.8505 -0.2167 -1.3635
  156SAPE  C21117369   0.192   3.735   7.680 -0.6013 -0.1359 -0.3908
  156SAPE  H11R17370   0.288   3.787   7.690 -0.2070 -0.7652 -0.8548
  156SAPE  C21217371   0.133   3.685   7.793 -0.0559 -0.2863  0.3828
  156SAPE  H12R17372   0.180   3.700   7.891  0.4622 -1.3304  0.3031
  156SAPE  C21317373   0.006   3.601   7.798  0.3908  0.6667 -0.1374
  156SAPE  H13R17374   0.012   3.541   7.705  0.3921  0.3518  0.0664
  156SAPE  H13S17375  -0.078   3.669   7.770  1.5535  1.7481 -1.0560
  156SAPE  C21417376  -0.020   3.519   7.921  0.2452  0.3350  0.3158
  156SAPE  H14R17377  -0.093   3.559   7.992 -1.4526  0.6426 -1.5473
  156SAPE  C21517378   0.020   3.391   7.946  0.2334  0.3023  0.1222
  156SAPE  H15R17379  -0.028   3.337   8.029 -1.7369 -0.4209 -1.4442
  156SAPE  C21617380   0.106   3.307   7.850  0.4794  0.6238 -0.1736
  156SAPE  H16R17381   0.201   3.274   7.898 -0.4393 -0.4817  0.9094
  156SAPE  H16S17382   0.112   3.362   7.754 -0.7459  1.2911  0.1224
  156SAPE  C21717383   0.034   3.175   7.795 -0.5304 -0.5674 -1.0531
  156SAPE  H17R17384  -0.071   3.211   7.785 -1.2164 -1.6481  1.7665
  156SAPE  H17S17385   0.020   3.102   7.878 -0.2405  1.0734  0.4625
  156SAPE  C21817386   0.077   3.097   7.676  0.4812  0.5714  0.0836
  156SAPE  H18R17387   0.010   3.010   7.662 -1.3968  1.4541  3.1537
  156SAPE  H18S17388   0.178   3.059   7.704  0.6657 -0.4997 -1.9053
  156SAPE  C21917389   0.094   3.175   7.552 -0.7061 -1.0622 -0.2179
  156SAPE  H19R17390   0.124   3.102   7.474 -0.9722 -1.3390 -0.0613
  156SAPE  H19S17391   0.187   3.236   7.553 -1.0362 -0.4275 -2.8515
  156SAPE  C22017392  -0.034   3.242   7.499 -0.5012  0.3906  0.3137
  156SAPE  H20R17393  -0.037   3.259   7.389 -1.4745 -1.3244  0.0552
  156SAPE  H20S17394  -0.058   3.336   7.552 -1.5526 -0.7093  1.8326
  156SAPE  H20T17395  -0.113   3.165   7.507 -0.9086  0.8184  0.3987
  156SAPE   C3317396   0.510   3.201   7.242  0.0230  0.1853  0.5914
  156SAPE   H3X17397   0.581   3.287   7.250  0.6437 -0.4967  2.7083
  156SAPE   H3Y17398   0.564   3.110   7.207 -0.5937  0.3259 -0.7556
  156SAPE   C3417399   0.466   3.190   7.390 -0.5541 -0.0947  0.2162
  156SAPE   H4X17400   0.378   3.122   7.399 -0.7693  0.1449 -0.0800
  156SAPE   H4Y17401   0.434   3.288   7.430  0.0489  0.5982 -0.9792
  156SAPE   C3517402   0.574   3.138   7.493 -0.7255  0.3251 -0.6706
  156SAPE   H5X17403   0.663   3.204   7.483 -1.3275  1.0976 -0.9295
  156SAPE   H5Y17404   0.598   3.031   7.473 -0.4571  0.1398  0.5593
  156SAPE   C3617405   0.523   3.158   7.638  0.0600  0.3410  0.1678
  156SAPE   H6X17406   0.431   3.096   7.641  0.8645 -1.0047 -1.9530
  156SAPE   H6Y17407   0.505   3.263   7.668  0.7610  0.4069  0.3698
  156SAPE   C3717408   0.626   3.105   7.740  0.2465 -0.3330  1.0479
  156SAPE   H7X17409   0.726   3.140   7.706 -0.2159  0.1031  0.1052
  156SAPE   H7Y17410   0.616   2.995   7.731 -2.2168 -0.0796  0.1293
  156SAPE   C3817411   0.598   3.150   7.889 -0.4601 -0.5419 -0.2571
  156SAPE   H8X17412   0.592   3.261   7.894 -2.5910 -0.5966 -0.8133
  156SAPE   H8Y17413   0.686   3.114   7.946  1.5761 -0.0297 -2.9692
  156SAPE   C3917414   0.471   3.089   7.959  0.6678  0.2674 -0.4702
  156SAPE   H9X17415   0.479   2.978   7.954 -0.3081  0.1046  1.0799
  156SAPE   H9Y17416   0.389   3.122   7.893 -0.1049  0.4522  0.5786
  156SAPE  C31017417   0.447   3.125   8.112  0.3314 -0.1412 -0.0373
  156SAPE  H10X17418   0.349   3.088   8.150  0.1573  1.5176  1.1782
  156SAPE  H10Y17419   0.454   3.235   8.123  1.6836 -0.1108 -0.9874
  156SAPE  C31117420   0.566   3.080   8.190  0.7188 -0.7685  0.7900
  156SAPE  H11X17421   0.651   3.136   8.147 -0.7930  0.5970 -0.4932
  156SAPE  H11Y17422   0.582   2.973   8.165  0.5189 -1.5183  3.6515
  156SAPE  C31217423   0.554   3.102   8.342 -0.2975  0.3448 -0.6243
  156SAPE  H12X17424   0.448   3.084   8.369 -0.3736 -2.0159 -2.3564
  156SAPE  H12Y17425   0.583   3.204   8.374  0.2451 -0.0359  0.1050
  156SAPE  C31317426   0.639   3.011   8.427  0.3349 -0.1896 -0.0076
  156SAPE  H13X17427   0.740   3.032   8.386 -1.1664  1.7235 -2.8564
  156SAPE  H13Y17428   0.615   2.904   8.409  0.2626  0.0098 -1.1295
  156SAPE  C31417429   0.624   3.043   8.581  0.6717 -0.2500  0.4084
  156SAPE  H14X17430   0.540   2.986   8.626  0.2202  1.1468  1.3869
  156SAPE  H14Y17431   0.609   3.151   8.602  1.2497 -0.4157  1.7255
  156SAPE  C31517432   0.752   2.993   8.655  0.3510  0.2190  0.0789
  156SAPE  H15X17433   0.846   3.044   8.627 -0.0623  0.1572 -1.4227
  156SAPE  H15Y17434   0.768   2.883   8.659  1.6246  0.3554 -0.9674
  156SAPE  C31617435   0.753   3.026   8.806 -0.4848 -0.1329  0.2659
  156SAPE  H16X17436   0.807   2.950   8.867 -0.1001  0.8107  1.1057
  156SAPE  H16Y17437   0.652   3.019   8.851 -0.3623  0.3319  0.6053
  156SAPE  C31717438   0.817   3.169   8.837  0.2629  0.0804  0.0661
  156SAPE  H17X17439   0.758   3.248   8.786  0.1938 -0.6751 -1.0397
  156SAPE  H17Y17440   0.915   3.173   8.786  0.5261 -0.0406  0.5616
  156SAPE  C31817441   0.827   3.205   8.985  0.5148 -0.3946  0.6788
  156SAPE  H18X17442   0.892   3.127   9.029 -0.2845 -3.7742 -3.7035
  156SAPE  H18Y17443   0.729   3.201   9.035  0.2433  2.7598  0.5286
  156SAPE  H18Z17444   0.877   3.303   9.001 -3.2065  2.0322 -1.8062
  157SAPE     N17445   3.657   4.229   6.184  0.3652 -0.4222  0.4426
  157SAPE   HN117446   3.725   4.219   6.262  0.7858 -0.7735  0.0298
  157SAPE   HN217447   3.562   4.238   6.226 -0.2181  0.8727 -1.0946
  157SAPE   HN317448   3.659   4.140   6.131  0.5778 -0.8454  1.1528
  157SAPE   C1217449   3.683   4.355   6.102 -0.4859  0.8445  0.2374
  157SAPE  H12A17450   3.584   4.405   6.094 -1.9415 -2.1380 -1.0566
  157SAPE  H12B17451   3.703   4.333   5.995 -2.1072 -3.3736  0.7412
  157SAPE   C1117452   3.802   4.438   6.159  1.1795 -0.1357 -0.6160
  157SAPE  H11A17453   3.777   4.461   6.264 -0.3411  0.2343 -1.0554
  157SAPE  H11B17454   3.811   4.524   6.089 -1.5560 -1.4053 -2.5943
  157SAPE     P17455   4.051   4.420   6.224  0.3339 -0.1768 -0.1417
  157SAPE   O1317456   4.162   4.329   6.210 -0.1936 -0.5264  0.2848
  157SAPE   O1417457   4.071   4.559   6.187 -0.1518 -0.1899 -0.1714
  157SAPE   O1217458   3.923   4.370   6.157  0.1883 -0.5579  0.4893
  157SAPE   O1117459   4.011   4.426   6.379  0.3141  0.6543 -0.0437
  157SAPE    C117460   4.016   4.542   6.460 -0.6114 -0.1126 -0.8967
  157SAPE    HA17461   3.977   4.631   6.405 -2.1118 -1.0907 -1.4683
  157SAPE    HB17462   3.963   4.515   6.554 -0.2928  1.4480 -0.2532
  157SAPE    C217463   4.163   4.566   6.489 -0.1102 -0.1200  0.3142
  157SAPE    HS17464   4.210   4.620   6.404 -1.6129 -1.9391 -1.7371
  157SAPE   O2117465   4.238   4.445   6.511 -0.0632  0.4721  0.0648
  157SAPE   C2117466   4.369   4.462   6.510  0.1112  0.6642  0.0269
  157SAPE   O2217467   4.431   4.565   6.491 -0.1672 -0.1960 -0.3452
  157SAPE   C2217468   4.442   4.335   6.543 -0.2045  0.2746  0.6883
  157SAPE   H2R17469   4.370   4.254   6.569  0.0933 -0.3781 -0.4665
  157SAPE   H2S17470   4.502   4.305   6.454 -3.2469 -3.1271 -0.3771
  157SAPE    C317471   4.179   4.668   6.610  0.3102  0.4415  0.1331
  157SAPE    HX17472   4.107   4.752   6.603 -0.3214 -0.1705 -0.8144
  157SAPE    HY17473   4.279   4.715   6.598  0.5747 -0.3862 -0.9201
  157SAPE   O3117474   4.169   4.590   6.731  0.1063 -0.4108  0.8805
  157SAPE   C3117475   4.058   4.612   6.806  0.3042 -0.2544 -0.8740
  157SAPE   O3217476   3.957   4.671   6.771 -0.6703  0.1664  0.0094
  157SAPE   C3217477   4.082   4.559   6.950  0.1309 -0.5058 -0.4086
  157SAPE   H2X17478   4.174   4.602   6.995 -2.2034  2.8421  1.3542
  157SAPE   H2Y17479   4.105   4.451   6.935  0.8867  0.0879 -4.1030
  157SAPE   C2317480   4.541   4.358   6.659  0.4609  0.0787 -1.0140
  157SAPE   H3R17481   4.587   4.459   6.656  0.2230  0.1578 -2.0983
  157SAPE   H3S17482   4.622   4.282   6.657  1.0386  0.7049 -1.7615
  157SAPE   C2417483   4.477   4.345   6.796  0.0551  0.7770  0.6780
  157SAPE   H4R17484   4.394   4.418   6.795 -0.1836  0.4942 -0.6975
  157SAPE   H4S17485   4.546   4.381   6.875  0.5519 -0.5541  0.8691
  157SAPE   C2517486   4.418   4.209   6.830 -0.8473  0.5791  0.1217
  157SAPE   H5R17487   4.369   4.162   6.744 -1.3715  1.0391  0.1666
  157SAPE   C2617488   4.444   4.138   6.946  0.2051  0.4947  0.7486
  157SAPE   H6R17489   4.410   4.034   6.939  0.0117  0.6820 -1.4927
  157SAPE   C2717490   4.526   4.196   7.063 -0.2030  0.0692  0.6401
  157SAPE   H7R17491   4.479   4.283   7.115  0.4653 -0.3105  1.8940
  157SAPE   H7S17492   4.620   4.225   7.013  0.0872 -1.0913  0.5039
  157SAPE   C2817493   4.549   4.073   7.150 -0.1347 -0.3949  0.2237
  157SAPE   H8R17494   4.605   3.998   7.092  0.8544  0.4530  0.0601
  157SAPE   C2917495   4.531   4.057   7.278  0.0766 -0.9069  0.9441
  157SAPE   H9R17496   4.562   3.959   7.316  2.0061 -0.7383 -0.1174
  157SAPE  C21017497   4.471   4.151   7.380 -0.9509 -0.0263 -0.5963
  157SAPE  H10R17498   4.384   4.110   7.435 -0.3293  1.7434  1.8015
  157SAPE  H10S17499   4.435   4.245   7.333 -1.2795  0.0964 -0.1042
  157SAPE  C21117500   4.576   4.184   7.485  0.1006 -0.3436 -0.2675
  157SAPE  H11R17501   4.646   4.263   7.454  1.5261 -1.4083  0.1527
  157SAPE  C21217502   4.610   4.112   7.590 -0.4923 -0.0431  0.0546
  157SAPE  H12R17503   4.692   4.144   7.657 -1.1531 -0.4762  1.0747
  157SAPE  C21317504   4.540   3.992   7.644 -0.2964  0.2677  0.2133
  157SAPE  H13R17505   4.443   3.986   7.591 -0.5103  1.1659  0.4950
  157SAPE  H13S17506   4.513   4.002   7.752 -2.4323 -0.0484 -0.2801
  157SAPE  C21417507   4.619   3.867   7.620  0.0174  0.0546  1.0234
  157SAPE  H14R17508   4.587   3.817   7.527  0.0325  0.3398  0.8632
  157SAPE  C21517509   4.709   3.808   7.699 -0.6704  0.2612  0.1635
  157SAPE  H15R17510   4.754   3.711   7.675  1.1104  1.2764 -0.6840
  157SAPE  C21617511   4.770   3.860   7.829  0.9214 -0.2031  0.4826
  157SAPE  H16R17512   4.777   3.971   7.822  1.4944 -0.2055  0.9701
  157SAPE  H16S17513   4.867   3.821   7.867  1.2302 -1.4339 -1.5047
  157SAPE  C21717514   4.677   3.833   7.947 -0.1993  0.2382 -0.5892
  157SAPE  H17R17515   4.645   3.727   7.957 -0.3629  0.2362 -1.1572
  157SAPE  H17S17516   4.587   3.894   7.924 -0.3132 -0.2084 -1.3455
  157SAPE  C21817517   4.719   3.882   8.088  0.1593 -0.8657  0.7132
  157SAPE  H18R17518   4.725   3.993   8.090 -1.2661 -0.7927  1.5546
  157SAPE  H18S17519   4.819   3.844   8.120  1.8375  0.9370 -2.1682
  157SAPE  C21917520   4.614   3.850   8.195 -0.6040  0.1741 -0.1427
  157SAPE  H19R17521   4.660   3.867   8.295  1.3031  1.3433 -1.2004
  157SAPE  H19S17522   4.588   3.742   8.189 -0.0965  0.0827 -0.7004
  157SAPE  C22017523   4.490   3.932   8.180 -0.1394 -0.4611  0.1743
  157SAPE  H20R17524   4.438   3.911   8.084 -1.9572 -0.0017  1.0213
  157SAPE  H20S17525   4.504   4.041   8.195 -1.6007 -0.1220 -0.7737
  157SAPE  H20T17526   4.410   3.911   8.255 -0.3838  2.1899  0.6794
  157SAPE   C3317527   3.950   4.587   7.024 -0.2440 -0.2578  1.0177
  157SAPE   H3X17528   3.942   4.523   7.114 -0.6176 -2.4365 -0.5235
  157SAPE   H3Y17529   3.856   4.561   6.970 -0.6108 -0.3298  1.6931
  157SAPE   C3417530   3.952   4.735   7.074 -0.2371  0.3974 -0.1619
  157SAPE   H4X17531   3.847   4.771   7.072  0.4756  2.7850  2.4223
  157SAPE   H4Y17532   4.007   4.800   7.003 -0.5302  0.1988 -0.5740
  157SAPE   C3517533   4.006   4.755   7.215  1.0622 -0.0461  0.0555
  157SAPE   H5X17534   4.011   4.864   7.237  0.9077  0.0074 -0.1731
  157SAPE   H5Y17535   4.108   4.715   7.237  2.2841  2.7058 -0.2775
  157SAPE   C3617536   3.931   4.695   7.326 -0.2276 -0.5374  0.1097
  157SAPE   H6X17537   3.917   4.584   7.320  2.3183 -0.9765  1.5214
  157SAPE   H6Y17538   3.826   4.729   7.311 -0.2813  0.8169  3.1887
  157SAPE   C3717539   3.956   4.743   7.468 -0.6257 -0.5389  0.0304
  157SAPE   H7X17540   3.864   4.712   7.521 -0.3453  0.5148  1.1757
  157SAPE   H7Y17541   3.966   4.854   7.471  1.0957 -0.6706  0.0956
  157SAPE   C3817542   4.073   4.662   7.535  0.1096 -0.3083 -0.1436
  157SAPE   H8X17543   4.174   4.698   7.505 -0.2089  2.6114  2.0474
  157SAPE   H8Y17544   4.050   4.556   7.513  2.3268 -1.0235  0.8423
  157SAPE   C3917545   4.073   4.681   7.689 -0.1443  0.0279 -0.4189
  157SAPE   H9X17546   3.970   4.653   7.720  0.6677  0.2241  2.5696
  157SAPE   H9Y17547   4.087   4.790   7.701 -0.0518  0.0237 -0.4900
  157SAPE  C31017548   4.180   4.608   7.777  0.5565 -0.1973  0.1621
  157SAPE  H10X17549   4.283   4.626   7.741  0.6465  0.6253  0.7977
  157SAPE  H10Y17550   4.154   4.501   7.765 -0.8375  0.2686 -1.2395
  157SAPE  C31117551   4.150   4.648   7.922  0.6218 -0.5778  0.2905
  157SAPE  H11X17552   4.056   4.598   7.953  0.9891 -1.1737  0.4397
  157SAPE  H11Y17553   4.130   4.757   7.910  3.8599 -0.0165 -0.3291
  157SAPE  C31217554   4.264   4.641   8.025  0.5577  0.4058 -0.1361
  157SAPE  H12X17555   4.357   4.690   7.988  0.4471 -0.0355 -1.0073
  157SAPE  H12Y17556   4.299   4.535   8.028  1.9365  0.8237 -0.7490
  157SAPE  C31317557   4.222   4.691   8.164  0.2935  0.0771 -0.3701
  157SAPE  H13X17558   4.150   4.621   8.210  1.7123  0.1514  2.0519
  157SAPE  H13Y17559   4.167   4.788   8.159 -1.3404 -0.8163  0.1259
  157SAPE  C31417560   4.332   4.708   8.276 -0.1133 -0.2434  0.3750
  157SAPE  H14X17561   4.434   4.710   8.232  0.7545 -3.5359  2.0919
  157SAPE  H14Y17562   4.326   4.614   8.334 -4.4968  1.0026  2.1180
  157SAPE  C31517563   4.307   4.833   8.366 -0.4377  0.7840 -0.4892
  157SAPE  H15X17564   4.201   4.845   8.398 -0.2386  0.1819  0.4202
  157SAPE  H15Y17565   4.317   4.926   8.307  0.8169 -0.1941 -1.8424
  157SAPE  C31617566   4.406   4.833   8.478  0.7864 -0.2511 -0.2190
  157SAPE  H16X17567   4.509   4.824   8.437  1.3668  1.9197  0.7125
  157SAPE  H16Y17568   4.375   4.754   8.550 -0.6549 -1.4509 -2.1043
  157SAPE  C31717569   4.395   4.970   8.550  0.7913  0.3185  0.2192
  157SAPE  H17X17570   4.422   5.051   8.479 -2.9813  0.8062 -0.7720
  157SAPE  H17Y17571   4.469   4.970   8.633 -1.9024 -0.5964  2.7089
  157SAPE  C31817572   4.261   4.992   8.625 -0.3243 -0.1238  0.4628
  157SAPE  H18X17573   4.183   5.004   8.548 -1.0386 -2.9391  0.7001
  157SAPE  H18Y17574   4.266   5.081   8.692 -0.4281 -0.1411  0.4941
  157SAPE  H18Z17575   4.237   4.904   8.687  0.0581 -1.6331 -1.5012
  158SAPE     N17576   5.671   3.079   6.300 -0.3262  0.2151  0.1241
  158SAPE   HN117577   5.574   3.103   6.272  0.0403  2.2545  0.5996
  158SAPE   HN217578   5.728   3.025   6.231  1.0443  1.4589  0.2750
  158SAPE   HN317579   5.666   3.011   6.378  1.8203 -0.2298 -0.0883
  158SAPE   C1217580   5.748   3.196   6.345 -0.2261  0.0128  0.5733
  158SAPE  H12A17581   5.672   3.272   6.369 -1.2470  0.1575 -2.8727
  158SAPE  H12B17582   5.802   3.238   6.257 -3.1015 -0.9271 -1.7260
  158SAPE   C1117583   5.841   3.150   6.456 -0.3169  0.0283 -0.1830
  158SAPE  H11A17584   5.778   3.110   6.538 -0.2462  1.8482  0.7761
  158SAPE  H11B17585   5.895   3.241   6.490 -0.8339 -0.3043  1.5646
  158SAPE     P17586   6.083   3.080   6.411 -0.0882 -0.2513 -0.3355
  158SAPE   O1317587   6.153   2.945   6.404 -0.2125 -0.5281  0.4935
  158SAPE   O1417588   6.100   3.170   6.295 -0.9325 -0.3310 -0.0130
  158SAPE   O1217589   5.932   3.058   6.416 -0.1688  0.0779  0.4126
  158SAPE   O1117590   6.137   3.161   6.533  0.0895 -0.2507 -0.0389
  158SAPE    C117591   6.135   3.096   6.661 -0.2442  0.1227 -0.4788
  158SAPE    HA17592   6.033   3.059   6.685  0.6709 -2.2296 -0.0917
  158SAPE    HB17593   6.193   3.003   6.651 -1.8859 -0.8128 -1.4689
  158SAPE    C217594   6.196   3.186   6.774 -0.6768  0.0289  1.5205
  158SAPE    HS17595   6.280   3.241   6.725  0.1638 -1.0475  1.7571
  158SAPE   O2117596   6.252   3.095   6.874  0.1526  0.3750  0.0600
  158SAPE   C2117597   6.342   3.153   6.958 -0.2042  0.6054  0.7004
  158SAPE   O2217598   6.402   3.260   6.940  0.5971 -0.2923  0.5716
  158SAPE   C2217599   6.384   3.058   7.068  0.1511  0.2400 -0.3002
  158SAPE   H2R17600   6.336   3.090   7.163  0.2791 -0.2975 -0.0541
  158SAPE   H2S17601   6.344   2.955   7.057 -0.1328  0.4842 -1.5697
  158SAPE    C317602   6.097   3.293   6.824  0.0411  0.4632  1.0057
  158SAPE    HX17603   6.071   3.366   6.745 -1.6276 -0.8071  0.3624
  158SAPE    HY17604   6.138   3.353   6.909  0.6676  1.3766  0.0700
  158SAPE   O3117605   5.981   3.214   6.863 -0.5486 -0.2931  0.0758
  158SAPE   C3117606   5.859   3.269   6.836 -0.5039  0.7755  0.4450
  158SAPE   O3217607   5.844   3.372   6.782 -0.3293  0.2125 -0.2298
  158SAPE   C3217608   5.755   3.162   6.860 -0.1992 -0.8854 -0.7291
  158SAPE   H2X17609   5.773   3.120   6.961 -1.2695 -1.0145 -0.5801
  158SAPE   H2Y17610   5.775   3.089   6.778 -1.6938 -0.2859 -1.6668
  158SAPE   C2317611   6.539   3.059   7.086  0.3256 -0.5692 -0.6117
  158SAPE   H3R17612   6.571   3.165   7.091  1.2132 -0.7206 -2.6041
  158SAPE   H3S17613   6.591   3.017   6.997  4.5240  1.2742  0.8186
  158SAPE   C2417614   6.594   2.999   7.214  0.2786  0.6333 -0.3448
  158SAPE   H4R17615   6.566   3.060   7.303  2.2272  0.8246  0.1710
  158SAPE   H4S17616   6.705   3.005   7.215  0.4457 -2.0193  0.9028
  158SAPE   C2517617   6.555   2.852   7.209 -0.1212  0.1585 -0.2312
  158SAPE   H5R17618   6.598   2.792   7.128 -2.4823 -0.8594 -0.7634
  158SAPE   C2617619   6.482   2.802   7.309  0.0375  0.6024 -0.4713
  158SAPE   H6R17620   6.463   2.693   7.313 -0.1077  0.5987 -1.1141
  158SAPE   C2717621   6.454   2.870   7.435  0.2321  0.1943 -0.4374
  158SAPE   H7R17622   6.394   2.805   7.503  0.6586 -0.2468 -0.4821
  158SAPE   H7S17623   6.390   2.957   7.409 -1.1096 -0.8432 -0.6762
  158SAPE   C2817624   6.560   2.924   7.527  0.1829 -0.3832  0.5286
  158SAPE   H8R17625   6.657   2.950   7.482  0.2669 -0.1780  0.8237
  158SAPE   C2917626   6.550   2.943   7.658  0.3853 -0.1161 -0.1752
  158SAPE   H9R17627   6.637   2.977   7.714 -0.5971  1.0882  0.6543
  158SAPE  C21017628   6.427   2.912   7.747  0.4410  0.0642  0.1250
  158SAPE  H10R17629   6.330   2.881   7.702  0.8657 -2.1966  0.7125
  158SAPE  H10S17630   6.411   3.006   7.805 -0.5972  0.0669 -0.1439
  158SAPE  C21117631   6.463   2.800   7.840  0.2123  0.5456  0.5127
  158SAPE  H11R17632   6.471   2.698   7.800 -0.6873  0.9292 -0.6878
  158SAPE  C21217633   6.480   2.819   7.976 -0.3710 -0.2511  0.8338
  158SAPE  H12R17634   6.497   2.727   8.034  1.0685  1.2240  2.8321
  158SAPE  C21317635   6.478   2.947   8.055  0.2835  0.4469  0.9882
  158SAPE  H13R17636   6.372   2.981   8.057 -0.0159 -0.2431 -1.0395
  158SAPE  H13S17637   6.528   3.023   7.991 -1.2071  1.6464  1.2126
  158SAPE  C21417638   6.541   2.942   8.193 -0.2436 -0.5142  0.4998
  158SAPE  H14R17639   6.497   2.876   8.269  1.6827 -2.0816  0.3101
  158SAPE  C21517640   6.649   3.005   8.235 -0.3859 -0.2518 -0.1378
  158SAPE  H15R17641   6.688   2.976   8.333  0.8630  1.9183  0.0455
  158SAPE  C21617642   6.743   3.094   8.165 -0.0409 -0.2403 -0.3255
  158SAPE  H16R17643   6.679   3.159   8.101 -0.1485 -0.5368 -0.5216
  158SAPE  H16S17644   6.818   3.040   8.104  0.0506  0.8390 -1.1919
  158SAPE  C21717645   6.823   3.191   8.247 -0.2492 -0.0023  0.5461
  158SAPE  H17R17646   6.764   3.277   8.287 -1.0346 -0.1824 -0.2147
  158SAPE  H17S17647   6.903   3.229   8.180  0.4997 -3.7277 -0.7601
  158SAPE  C21817648   6.898   3.135   8.368  0.3563 -0.0383  0.1416
  158SAPE  H18R17649   6.964   3.051   8.339 -0.2778 -0.3260 -0.4947
  158SAPE  H18S17650   6.827   3.089   8.440 -0.8777 -0.3781 -1.2640
  158SAPE  C21917651   6.996   3.240   8.436  0.6157  0.4587 -0.2968
  158SAPE  H19R17652   6.931   3.327   8.461 -1.9741 -1.4778 -0.0632
  158SAPE  H19S17653   7.080   3.270   8.370  0.5936  0.7157 -0.2081
  158SAPE  C22017654   7.050   3.192   8.570  0.0103 -0.4876  0.5410
  158SAPE  H20R17655   7.107   3.097   8.559  1.9405  0.7058  0.0076
  158SAPE  H20S17656   6.969   3.184   8.645  0.7417 -1.2604  1.2671
  158SAPE  H20T17657   7.130   3.259   8.609 -1.3560  0.1495  2.2556
  158SAPE   C3317658   5.609   3.212   6.850  0.3506  0.3302 -0.0937
  158SAPE   H3X17659   5.595   3.251   6.747 -2.1729  0.9202  0.4131
  158SAPE   H3Y17660   5.583   3.284   6.931 -1.5671 -2.9057  2.2795
  158SAPE   C3417661   5.498   3.101   6.858 -0.3689  0.1429  0.5204
  158SAPE   H4X17662   5.521   3.020   6.785 -0.7920 -0.4935  1.0975
  158SAPE   H4Y17663   5.405   3.153   6.828  0.7289  0.7653 -1.9489
  158SAPE   C3517664   5.497   3.048   7.007 -0.1080  0.4453  0.2094
  158SAPE   H5X17665   5.471   3.131   7.075 -0.3424  2.2470 -2.0077
  158SAPE   H5Y17666   5.601   3.017   7.029 -0.6822 -1.3969  0.4045
  158SAPE   C3617667   5.388   2.945   7.038  0.5910  0.4474 -0.4342
  158SAPE   H6X17668   5.428   2.860   6.979  1.2611 -0.9561  1.9616
  158SAPE   H6Y17669   5.288   2.976   7.002  0.6070  0.7701 -0.2013
  158SAPE   C3717670   5.376   2.878   7.181  0.3310 -0.5208  0.9717
  158SAPE   H7X17671   5.303   2.931   7.246 -0.9649 -2.0468  0.7992
  158SAPE   H7Y17672   5.339   2.773   7.174 -1.2085  0.0650  0.0497
  158SAPE   C3817673   5.509   2.852   7.261  0.7299 -0.9655 -0.0912
  158SAPE   H8X17674   5.570   2.943   7.275  1.0146 -1.2578  0.6133
  158SAPE   H8Y17675   5.566   2.773   7.208 -0.3801 -1.2376 -0.8870
  158SAPE   C3917676   5.468   2.802   7.402  0.3751 -0.2149 -0.6993
  158SAPE   H9X17677   5.422   2.700   7.400 -0.0853 -0.0254 -0.1507
  158SAPE   H9Y17678   5.400   2.877   7.448  1.6316  1.0270 -0.8483
  158SAPE  C31017679   5.595   2.779   7.488 -0.6532 -0.5854  0.5398
  158SAPE  H10X17680   5.638   2.879   7.511  0.3269 -0.6503 -0.9882
  158SAPE  H10Y17681   5.671   2.726   7.427 -0.2669 -1.9719  2.1841
  158SAPE  C31117682   5.572   2.713   7.622 -0.4824 -0.1409  0.0667
  158SAPE  H11X17683   5.471   2.733   7.663  0.0140  0.6212  0.9316
  158SAPE  H11Y17684   5.641   2.759   7.696 -0.5108  0.8178 -0.5062
  158SAPE  C31217685   5.589   2.560   7.620 -0.2163 -0.2688 -0.2619
  158SAPE  H12X17686   5.688   2.520   7.590  1.3418  3.1086  0.2446
  158SAPE  H12Y17687   5.515   2.505   7.556  1.3449 -0.9409 -1.5223
  158SAPE  C31317688   5.557   2.502   7.762 -0.3225  0.1945  1.2735
  158SAPE  H13X17689   5.550   2.392   7.747  1.3860 -0.0397  2.0508
  158SAPE  H13Y17690   5.464   2.539   7.810  0.8108  2.1848  2.0012
  158SAPE  C31417691   5.670   2.534   7.858 -0.1863 -0.4227  0.2938
  158SAPE  H14X17692   5.680   2.644   7.873 -0.7783 -0.3466  0.1418
  158SAPE  H14Y17693   5.762   2.494   7.810 -1.6274 -2.3843 -0.9250
  158SAPE  C31517694   5.639   2.470   7.993 -0.7584 -0.4033 -0.8929
  158SAPE  H15X17695   5.622   2.361   7.978  2.0538 -1.1966  1.3779
  158SAPE  H15Y17696   5.545   2.514   8.032 -0.2146  1.9469 -2.1315
  158SAPE  C31617697   5.759   2.483   8.083  0.1435 -0.4379 -0.0925
  158SAPE  H16X17698   5.802   2.583   8.061 -0.1377 -0.0405  1.1336
  158SAPE  H16Y17699   5.836   2.410   8.049  0.8355  0.1346  0.2543
  158SAPE  C31717700   5.738   2.463   8.234  0.0996  0.5062 -0.2040
  158SAPE  H17X17701   5.781   2.362   8.256  2.2407  1.4981  0.2943
  158SAPE  H17Y17702   5.628   2.462   8.246  0.0141  1.7116 -0.8343
  158SAPE  C31817703   5.803   2.560   8.336 -0.2713 -0.1140 -0.8715
  158SAPE  H18X17704   5.775   2.543   8.442  0.6192  0.6928 -0.4892
  158SAPE  H18Y17705   5.774   2.664   8.311 -1.8197 -0.6226 -1.2189
  158SAPE  H18Z17706   5.914   2.549   8.328  0.1645  0.9996  2.6552
  159SAPE     N17707   6.077   5.548   5.937 -0.5684 -0.5325 -0.6682
  159SAPE   HN117708   6.049   5.461   5.987  0.0178  0.7486  2.0052
  159SAPE   HN217709   6.001   5.620   5.944  0.8801  1.0244 -0.5687
  159SAPE   HN317710   6.083   5.526   5.836 -1.4193  1.0799 -1.0889
  159SAPE   C1217711   6.205   5.602   5.985 -0.0375 -0.3186 -0.2442
  159SAPE  H12A17712   6.246   5.657   5.898 -2.4990  2.8159  0.4906
  159SAPE  H12B17713   6.266   5.510   5.999  0.7733  0.0058 -1.6188
  159SAPE   C1117714   6.179   5.685   6.114 -0.7773 -0.9467 -0.0968
  159SAPE  H11A17715   6.276   5.730   6.144 -2.5302  0.9555  3.0369
  159SAPE  H11B17716   6.152   5.611   6.193 -0.8345 -0.9727 -0.1406
  159SAPE     P17717   6.087   5.935   6.125 -0.2655  0.1014 -0.0595
  159SAPE   O1317718   6.199   6.006   6.062  0.6980  0.1743  0.0987
  159SAPE   O1417719   5.952   5.998   6.117 -0.1941 -0.1413  0.7120
  159SAPE   O1217720   6.078   5.784   6.084  0.2549 -0.1703  0.0868
  159SAPE   O1117721   6.123   5.929   6.272 -0.0779  0.2002 -0.4367
  159SAPE    C117722   6.029   5.850   6.360  0.6710  0.9049  0.2361
  159SAPE    HA17723   5.922   5.870   6.337 -0.0625 -1.8129  1.1338
  159SAPE    HB17724   6.039   5.744   6.330  2.8848  0.2532  3.0826
  159SAPE    C217725   6.070   5.858   6.503 -1.0720  0.5632 -0.3684
  159SAPE    HS17726   6.175   5.823   6.515 -1.4206  0.1158  1.3429
  159SAPE   O2117727   5.987   5.772   6.585  0.0011  0.1463  0.4941
  159SAPE   C2117728   5.862   5.811   6.618  0.0307 -0.5067 -0.0366
  159SAPE   O2217729   5.797   5.903   6.575 -0.0360 -0.5884  0.2464
  159SAPE   C2217730   5.810   5.717   6.720 -0.4098  0.8033 -0.1101
  159SAPE   H2R17731   5.745   5.643   6.669  1.7017 -1.4200  0.3443
  159SAPE   H2S17732   5.895   5.661   6.764 -0.1100  0.6484 -0.8921
  159SAPE    C317733   6.075   6.004   6.547 -0.5751  0.4002 -0.8457
  159SAPE    HX17734   5.980   6.055   6.521 -1.1992 -1.2475 -1.9125
  159SAPE    HY17735   6.143   6.063   6.482  0.4620  1.4778  1.1874
  159SAPE   O3117736   6.109   6.017   6.688  0.2954  0.4485  0.0780
  159SAPE   C3117737   6.242   5.996   6.718  0.5096 -0.1064  0.4721
  159SAPE   O3217738   6.328   5.962   6.642 -0.2239 -0.0552  0.2045
  159SAPE   C3217739   6.261   6.033   6.864 -0.5371  0.5109 -0.1803
  159SAPE   H2X17740   6.242   6.143   6.865 -2.7871  0.1544  1.5312
  159SAPE   H2Y17741   6.369   6.016   6.884 -0.5370  1.2924  0.5136
  159SAPE   C2317742   5.733   5.785   6.833 -0.0464  0.5200 -0.3991
  159SAPE   H3R17743   5.704   5.710   6.910  1.8969 -1.8201 -1.8441
  159SAPE   H3S17744   5.637   5.824   6.793 -1.0258 -1.1820  0.2387
  159SAPE   C2417745   5.815   5.898   6.899  0.5668 -0.0963  0.0385
  159SAPE   H4R17746   5.903   5.919   6.835  0.6629 -0.2800  0.1096
  159SAPE   H4S17747   5.850   5.861   6.998 -0.1018 -0.6175  0.0872
  159SAPE   C2517748   5.745   6.029   6.929  0.1142 -0.4103  0.1803
  159SAPE   H5R17749   5.751   6.076   6.830  0.1499 -1.5299 -0.3541
  159SAPE   C2617750   5.688   6.082   7.038  0.7447  0.8037 -0.6163
  159SAPE   H6R17751   5.637   6.179   7.027  4.1184  2.5788 -1.4644
  159SAPE   C2717752   5.657   6.015   7.171 -0.0875 -0.3367  0.4921
  159SAPE   H7R17753   5.579   5.937   7.160 -0.5534  0.2248 -0.2701
  159SAPE   H7S17754   5.603   6.098   7.223  0.1963  0.1540  0.0132
  159SAPE   C2817755   5.768   5.970   7.251 -0.3667 -0.1282 -0.3353
  159SAPE   H8R17756   5.868   6.002   7.216 -1.0651 -0.5167 -2.7465
  159SAPE   C2917757   5.768   5.880   7.351  0.3391  0.0715 -0.8027
  159SAPE   H9R17758   5.866   5.845   7.386  1.0849  0.2906 -2.6728
  159SAPE  C21017759   5.653   5.814   7.418  0.4489 -0.5699  0.2013
  159SAPE  H10R17760   5.576   5.828   7.339  3.2444 -0.4511 -2.5818
  159SAPE  H10S17761   5.617   5.880   7.500  1.8199  0.2802  0.1326
  159SAPE  C21117762   5.660   5.673   7.466 -0.3883 -0.1302 -1.0744
  159SAPE  H11R17763   5.669   5.609   7.377  1.6410  1.7506 -2.2834
  159SAPE  C21217764   5.646   5.627   7.591 -0.5928 -0.5687  0.2645
  159SAPE  H12R17765   5.655   5.519   7.609 -0.2846 -0.1592  2.7950
  159SAPE  C21317766   5.628   5.714   7.711 -0.2165  0.2214 -0.0277
  159SAPE  H13R17767   5.573   5.638   7.771 -0.5212 -1.5802 -2.5332
  159SAPE  H13S17768   5.563   5.802   7.693  0.5289  0.7525 -0.1547
  159SAPE  C21417769   5.752   5.778   7.766 -0.1173 -0.0705 -0.0514
  159SAPE  H14R17770   5.843   5.786   7.706 -0.8102  0.1054 -1.1029
  159SAPE  C21517771   5.746   5.805   7.900  0.0651 -0.0441  0.5628
  159SAPE  H15R17772   5.838   5.823   7.959  0.9882 -0.2683 -0.7864
  159SAPE  C21617773   5.627   5.796   7.994  0.5740  0.4044 -0.3470
  159SAPE  H16R17774   5.534   5.810   7.935 -0.0632 -1.5523  0.1490
  159SAPE  H16S17775   5.629   5.881   8.065 -1.1930 -1.4450  1.9786
  159SAPE  C21717776   5.631   5.685   8.099  0.1523 -1.3099 -0.0608
  159SAPE  H17R17777   5.698   5.717   8.182  1.7813  1.5290 -2.3812
  159SAPE  H17S17778   5.661   5.582   8.074 -0.5256 -1.3537 -0.7067
  159SAPE  C21817779   5.491   5.693   8.175  0.0600  0.5388  0.2837
  159SAPE  H18R17780   5.402   5.661   8.116 -0.2750  0.1198  1.0078
  159SAPE  H18S17781   5.466   5.793   8.214 -1.2316  0.2936  0.1222
  159SAPE  C21917782   5.496   5.610   8.310  0.0421 -0.1846 -0.0025
  159SAPE  H19R17783   5.395   5.620   8.356 -0.8522 -2.4348 -1.3956
  159SAPE  H19S17784   5.569   5.671   8.368 -1.0385 -0.8431  2.1146
  159SAPE  C22017785   5.536   5.465   8.303 -0.1350 -0.0139 -0.3857
  159SAPE  H20R17786   5.569   5.428   8.402 -3.0643 -0.3337  0.5296
  159SAPE  H20S17787   5.622   5.448   8.236  0.3324 -3.5383  0.9986
  159SAPE  H20T17788   5.451   5.410   8.258  0.5109  0.7976 -2.6665
  159SAPE   C3317789   6.167   5.963   6.968 -0.6886 -0.3627  0.1937
  159SAPE   H3X17790   6.155   5.853   6.952 -0.7584 -0.3894  0.4353
  159SAPE   H3Y17791   6.063   6.001   6.961 -1.2483 -1.5795  1.5744
  159SAPE   C3417792   6.207   5.997   7.112  0.0416 -0.4493  0.7326
  159SAPE   H4X17793   6.167   6.098   7.133 -0.5504 -0.2506 -1.1925
  159SAPE   H4Y17794   6.316   6.013   7.101 -0.4073  2.4882  0.2094
  159SAPE   C3517795   6.167   5.888   7.211  0.1324 -0.1925 -0.6078
  159SAPE   H5X17796   6.227   5.795   7.210  0.9952  0.3590 -0.4283
  159SAPE   H5Y17797   6.066   5.853   7.182  0.0190  1.7884 -2.7481
  159SAPE   C3617798   6.144   5.941   7.346  0.1704  0.1038 -1.1302
  159SAPE   H6X17799   6.053   6.004   7.359  1.8157  1.9756  1.7283
  159SAPE   H6Y17800   6.227   6.009   7.374  0.8137 -1.2100  0.2403
  159SAPE   C3717801   6.135   5.843   7.460 -0.2154 -0.5664  0.5473
  159SAPE   H7X17802   6.232   5.790   7.469  0.3113 -0.0355 -1.7583
  159SAPE   H7Y17803   6.070   5.757   7.433 -3.9947  1.9833  1.0659
  159SAPE   C3817804   6.096   5.905   7.595  1.0605 -0.6184  0.3282
  159SAPE   H8X17805   5.987   5.922   7.604  1.1304 -0.7187  1.4232
  159SAPE   H8Y17806   6.143   6.005   7.608 -0.3143  0.3426 -1.8502
  159SAPE   C3917807   6.142   5.813   7.709  0.1923 -0.7643  0.1598
  159SAPE   H9X17808   6.246   5.781   7.689  0.2241  1.4219 -3.5395
  159SAPE   H9Y17809   6.078   5.723   7.694  1.0724 -0.9795 -2.6840
  159SAPE  C31017810   6.125   5.867   7.846  0.4961  0.3306  1.1398
  159SAPE  H10X17811   6.020   5.841   7.873  0.3773 -0.7673 -0.3447
  159SAPE  H10Y17812   6.153   5.974   7.834 -0.0529  0.0745 -3.2230
  159SAPE  C31117813   6.216   5.815   7.951  0.0125 -0.2059  0.1556
  159SAPE  H11X17814   6.322   5.843   7.935  0.3708 -1.5727  0.0480
  159SAPE  H11Y17815   6.213   5.706   7.930  2.5418  0.3883 -3.8488
  159SAPE  C31217816   6.174   5.830   8.098  0.3222 -0.1103  0.0536
  159SAPE  H12X17817   6.078   5.778   8.117 -0.3185  1.0031 -0.1026
  159SAPE  H12Y17818   6.154   5.937   8.122 -0.5791 -0.2611 -0.0129
  159SAPE  C31317819   6.293   5.786   8.183  0.2824 -0.2220  0.5689
  159SAPE  H13X17820   6.389   5.840   8.170 -0.4419  1.1478  0.8406
  159SAPE  H13Y17821   6.338   5.694   8.140  0.8126  1.2622 -2.0989
  159SAPE  C31417822   6.261   5.777   8.333 -0.6678 -0.2976  0.0444
  159SAPE  H14X17823   6.190   5.694   8.355 -1.0021  0.3687  1.5443
  159SAPE  H14Y17824   6.198   5.864   8.360 -1.1923 -0.6194 -0.1259
  159SAPE  C31517825   6.391   5.771   8.408 -0.2282 -0.0030 -0.3823
  159SAPE  H15X17826   6.452   5.862   8.391  2.1010 -1.3870  0.2222
  159SAPE  H15Y17827   6.452   5.687   8.368  0.9920  0.2080  0.9617
  159SAPE  C31617828   6.380   5.738   8.555  0.2688 -0.1904 -0.5248
  159SAPE  H16X17829   6.303   5.665   8.587 -1.3994  1.8570  0.2233
  159SAPE  H16Y17830   6.364   5.830   8.614 -0.4477  0.1749 -1.2810
  159SAPE  C31717831   6.515   5.686   8.609  0.3441  0.2084  0.8115
  159SAPE  H17X17832   6.590   5.765   8.588 -0.1964  1.0336  1.9432
  159SAPE  H17Y17833   6.550   5.589   8.567  0.9278  0.3705  0.9263
  159SAPE  C31817834   6.509   5.669   8.761 -0.8155 -1.3844 -0.1694
  159SAPE  H18X17835   6.608   5.639   8.802 -0.9833  0.3072  1.5259
  159SAPE  H18Y17836   6.429   5.595   8.781 -1.2239 -0.7513  0.5549
  159SAPE  H18Z17837   6.477   5.767   8.801  1.0949 -1.9379  2.8565
  160SAPE     N17838   6.781   3.821   6.364 -0.1473  0.3604  0.3939
  160SAPE   HN117839   6.734   3.874   6.288  1.1871 -1.5696 -1.8723
  160SAPE   HN217840   6.858   3.887   6.389  0.0112 -0.0845  1.0984
  160SAPE   HN317841   6.818   3.737   6.314 -1.6637  1.1812 -2.2010
  160SAPE   C1217842   6.697   3.787   6.488  0.2286 -0.5235  0.3002
  160SAPE  H12A17843   6.760   3.728   6.557 -1.4668 -1.6683  0.8843
  160SAPE  H12B17844   6.610   3.725   6.457 -2.0085  3.0573 -1.0390
  160SAPE   C1117845   6.663   3.917   6.566  0.4553  0.7209  0.3627
  160SAPE  H11A17846   6.753   3.974   6.598  0.5608  1.4431 -1.1511
  160SAPE  H11B17847   6.613   3.874   6.656  0.6962 -1.1133 -0.3698
  160SAPE     P17848   6.566   4.129   6.470 -0.0523 -0.0597 -0.0429
  160SAPE   O1317849   6.696   4.188   6.440 -0.2848 -0.4662  0.3755
  160SAPE   O1417850   6.464   4.167   6.370  0.6353  0.0535  0.3109
  160SAPE   O1217851   6.562   3.979   6.491 -0.2642 -0.9239 -0.9539
  160SAPE   O1117852   6.523   4.174   6.620  0.3230 -0.1358 -0.1182
  160SAPE    C117853   6.381   4.155   6.645  0.5353 -0.0615 -0.2532
  160SAPE    HA17854   6.313   4.223   6.590  0.6571 -0.5858 -1.0679
  160SAPE    HB17855   6.355   4.051   6.617  1.9906 -0.3383 -0.6589
  160SAPE    C217856   6.356   4.159   6.794  0.1022  0.1187 -0.3331
  160SAPE    HS17857   6.247   4.145   6.810 -0.3137  1.0392 -2.2799
  160SAPE   O2117858   6.397   4.283   6.859  0.0367 -0.0990  0.2111
  160SAPE   C2117859   6.310   4.376   6.842 -0.4990 -0.2978  0.8723
  160SAPE   O2217860   6.194   4.366   6.801 -0.0929 -0.3568 -0.1039
  160SAPE   C2217861   6.369   4.503   6.904 -0.2490  0.1825  0.3202
  160SAPE   H2R17862   6.467   4.470   6.946 -0.3211  0.5567  0.7888
  160SAPE   H2S17863   6.387   4.582   6.829 -0.0571  0.7173  0.9217
  160SAPE    C317864   6.428   4.031   6.864  0.2556  0.6981  0.2399
  160SAPE    HX17865   6.537   4.029   6.843  0.4291  1.2390  1.0330
  160SAPE    HY17866   6.382   3.949   6.807 -1.6393  1.3878  0.7330
  160SAPE   O3117867   6.401   4.020   7.001  0.0544  0.0710 -0.0199
  160SAPE   C3117868   6.495   4.050   7.089  0.6909 -0.6045 -0.3660
  160SAPE   O3217869   6.603   4.095   7.059 -0.7335  0.0717 -0.8285
  160SAPE   C3217870   6.453   4.012   7.237  0.1485 -0.8616  0.7191
  160SAPE   H2X17871   6.487   3.909   7.261 -1.7686 -1.9854 -1.2390
  160SAPE   H2Y17872   6.342   4.014   7.237  0.1564  2.4963 -1.0153
  160SAPE   C2317873   6.273   4.575   6.998  0.3632  0.0678 -0.0201
  160SAPE   H3R17874   6.179   4.578   6.939 -0.5269  0.7285  1.4077
  160SAPE   H3S17875   6.308   4.679   7.019 -1.9350  0.5706  1.4810
  160SAPE   C2417876   6.251   4.510   7.140 -0.4041 -0.3696 -0.4508
  160SAPE   H4R17877   6.350   4.514   7.192 -1.2603  3.5529  1.0553
  160SAPE   H4S17878   6.227   4.404   7.121  0.3929 -0.4435 -1.0628
  160SAPE   C2517879   6.136   4.577   7.207  0.0811 -0.4880 -0.5422
  160SAPE   H5R17880   6.044   4.591   7.150 -1.0213  2.0106  1.7384
  160SAPE   C2617881   6.135   4.612   7.338  0.2215  0.3456 -0.5832
  160SAPE   H6R17882   6.038   4.657   7.364  1.0342  2.8863 -1.7551
  160SAPE   C2717883   6.233   4.591   7.453 -0.1093 -0.0002  0.1740
  160SAPE   H7R17884   6.203   4.646   7.545  0.8690 -2.9874  2.3765
  160SAPE   H7S17885   6.331   4.636   7.425 -2.1380  3.6889 -1.3070
  160SAPE   C2817886   6.238   4.437   7.472  0.1404  0.6533 -0.3088
  160SAPE   H8R17887   6.201   4.377   7.388 -1.6347  1.0732  0.1397
  160SAPE   C2917888   6.280   4.371   7.578  0.6240 -0.2529  0.3897
  160SAPE   H9R17889   6.280   4.261   7.571  1.9117 -0.2278 -0.2028
  160SAPE  C21017890   6.328   4.422   7.713  0.2267  0.9867 -0.4084
  160SAPE  H10R17891   6.286   4.524   7.718 -2.9265 -0.3676  2.3695
  160SAPE  H10S17892   6.434   4.437   7.682 -0.1716  0.1380 -2.2823
  160SAPE  C21117893   6.310   4.339   7.842  0.8826  0.2255  0.2347
  160SAPE  H11R17894   6.326   4.230   7.831 -0.4822  0.2782 -2.7932
  160SAPE  C21217895   6.275   4.387   7.964  0.0775 -0.3257 -0.4517
  160SAPE  H12R17896   6.280   4.313   8.045 -1.4114  0.2862  0.2201
  160SAPE  C21317897   6.246   4.528   8.024  0.0159 -0.2292  0.2266
  160SAPE  H13R17898   6.149   4.517   8.078  0.5597 -2.7164  0.7254
  160SAPE  H13S17899   6.233   4.601   7.940  0.8659  1.2583  1.3652
  160SAPE  C21417900   6.354   4.592   8.116  0.4552 -1.3282  0.5919
  160SAPE  H14R17901   6.433   4.649   8.065 -1.4839  1.0193  0.0694
  160SAPE  C21517902   6.351   4.593   8.249 -0.0508 -0.5209  0.0639
  160SAPE  H15R17903   6.421   4.647   8.315  1.0263 -0.2206 -1.2967
  160SAPE  C21617904   6.246   4.528   8.331  0.1488 -0.2513  0.8060
  160SAPE  H16R17905   6.294   4.470   8.413  1.5873  2.1443  1.7080
  160SAPE  H16S17906   6.196   4.450   8.269  0.6744  1.2897 -1.6463
  160SAPE  C21717907   6.145   4.629   8.376 -0.8099 -0.4534 -0.0843
  160SAPE  H17R17908   6.070   4.643   8.296 -0.2383 -2.0548 -0.9155
  160SAPE  H17S17909   6.193   4.726   8.404  0.2830 -0.8994 -0.3985
  160SAPE  C21817910   6.062   4.582   8.505  0.2047  0.7647  0.1633
  160SAPE  H18R17911   6.022   4.482   8.478 -2.2052  1.6806  0.2122
  160SAPE  H18S17912   5.976   4.649   8.528 -0.9908 -1.0021  0.9441
  160SAPE  C21917913   6.147   4.593   8.637 -0.1576  0.2964  0.6508
  160SAPE  H19R17914   6.252   4.562   8.617 -0.5350  0.0320 -1.0100
  160SAPE  H19S17915   6.095   4.530   8.712  0.2318 -1.2155 -0.3014
  160SAPE  C22017916   6.165   4.736   8.690  0.2692  0.6025 -0.4391
  160SAPE  H20R17917   6.228   4.731   8.782  0.2433 -0.4583 -0.4732
  160SAPE  H20S17918   6.063   4.776   8.708 -0.8413 -0.9382 -3.0051
  160SAPE  H20T17919   6.216   4.801   8.615  2.4001 -2.1090 -1.4160
  160SAPE   C3317920   6.514   4.107   7.343 -0.1784 -0.1618  0.0568
  160SAPE   H3X17921   6.475   4.210   7.325  1.4522  0.8540  2.1236
  160SAPE   H3Y17922   6.623   4.108   7.324 -0.1579  0.4227  0.1886
  160SAPE   C3417923   6.475   4.063   7.480  0.2942  0.2414  0.1824
  160SAPE   H4X17924   6.365   4.047   7.490  0.0216  1.5958 -0.4885
  160SAPE   H4Y17925   6.493   4.150   7.546 -2.0669  0.1544  1.0017
  160SAPE   C3517926   6.566   3.952   7.527 -0.1438  0.5698 -0.1013
  160SAPE   H5X17927   6.669   3.994   7.534  0.5487 -1.0117 -0.6450
  160SAPE   H5Y17928   6.570   3.861   7.464  1.4256  0.2339  0.4419
  160SAPE   C3617929   6.522   3.902   7.672 -0.1046  0.4087 -0.0815
  160SAPE   H6X17930   6.588   3.819   7.706 -0.8622  0.2791  1.0746
  160SAPE   H6Y17931   6.419   3.864   7.657  0.8784 -2.1762 -0.5937
  160SAPE   C3717932   6.542   4.000   7.792 -0.5848 -0.3454 -0.1730
  160SAPE   H7X17933   6.466   4.080   7.793  0.8210  1.0159 -0.3263
  160SAPE   H7Y17934   6.640   4.050   7.776  0.8472 -1.2680  4.7791
  160SAPE   C3817935   6.537   3.922   7.930 -0.5091  0.5079  0.0689
  160SAPE   H8X17936   6.568   3.998   8.006  0.6800 -0.4600  0.5844
  160SAPE   H8Y17937   6.606   3.836   7.922 -1.7532 -0.4349 -0.6591
  160SAPE   C3917938   6.392   3.871   7.962 -0.3793 -0.0368 -0.4747
  160SAPE   H9X17939   6.360   3.787   7.896  0.4213  0.1946 -1.1598
  160SAPE   H9Y17940   6.312   3.948   7.954  0.8595  1.1974 -1.3014
  160SAPE  C31017941   6.370   3.819   8.105 -0.3729 -0.5073 -0.8803
  160SAPE  H10X17942   6.442   3.736   8.118  1.7461  1.3887 -0.3039
  160SAPE  H10Y17943   6.269   3.773   8.092  0.4087 -2.2231 -1.0135
  160SAPE  C31117944   6.393   3.915   8.218  0.2896  0.7536  0.1629
  160SAPE  H11X17945   6.407   4.020   8.185 -1.6982  1.3048  1.0491
  160SAPE  H11Y17946   6.486   3.888   8.273 -0.0279  0.1642  0.4119
  160SAPE  C31217947   6.295   3.905   8.330  0.2276  0.8143  0.2710
  160SAPE  H12X17948   6.337   3.936   8.428 -2.7299  0.6306  1.6478
  160SAPE  H12Y17949   6.258   3.800   8.332 -0.0384  0.9168  0.9068
  160SAPE  C31317950   6.181   4.006   8.314  0.2169 -0.1934 -0.5009
  160SAPE  H13X17951   6.118   3.982   8.226 -2.3158  1.1673  0.8900
  160SAPE  H13Y17952   6.217   4.109   8.295 -0.4196  0.4141  1.4651
  160SAPE  C31417953   6.089   4.024   8.434 -1.1721 -0.8766 -0.6424
  160SAPE  H14X17954   6.150   4.090   8.499 -0.6570 -0.1624 -1.8445
  160SAPE  H14Y17955   6.066   3.926   8.483 -2.6118 -0.9738 -1.4984
  160SAPE  C31517956   5.958   4.100   8.418 -0.2619 -0.0875 -0.4062
  160SAPE  H15X17957   5.995   4.190   8.365 -0.6338  0.3752  0.1193
  160SAPE  H15Y17958   5.922   4.140   8.515 -2.6545 -0.0798 -1.2549
  160SAPE  C31617959   5.861   4.006   8.342  0.0534  0.0490  0.0057
  160SAPE  H16X17960   5.868   3.898   8.365 -1.8902  0.0144  0.5835
  160SAPE  H16Y17961   5.893   4.011   8.236 -1.6252  2.1114 -0.4464
  160SAPE  C31717962   5.715   4.043   8.346 -0.2466  0.1966 -0.3434
  160SAPE  H17X17963   5.696   4.149   8.319 -0.5993 -0.0504 -1.0833
  160SAPE  H17Y17964   5.683   4.037   8.452 -1.1727 -0.1996 -0.6394
  160SAPE  C31817965   5.618   3.945   8.273  0.3224 -0.0313 -0.0286
  160SAPE  H18X17966   5.650   3.933   8.167 -0.0916 -2.3416  0.0762
  160SAPE  H18Y17967   5.511   3.977   8.280  0.6495  1.0159  0.2280
  160SAPE  H18Z17968   5.635   3.847   8.323  1.4699  0.3882  0.4091
  161SOPE     N17969   5.098   5.850  10.882 -0.3058  0.4813  0.0277
  161SOPE   HN117970   5.053   5.797  10.804  0.3464  0.8558 -0.6057
  161SOPE   HN217971   5.033   5.851  10.964  0.9586 -1.8277  1.1204
  161SOPE   HN317972   5.111   5.951  10.865  3.4138  0.6140  2.9249
  161SOPE   C1217973   5.232   5.791  10.921  0.1343  0.2465  0.5596
  161SOPE  H12A17974   5.239   5.696  10.863 -2.4967 -0.5246  1.3925
  161SOPE  H12B17975   5.243   5.769  11.030  2.0215 -1.1484  0.1229
  161SOPE   C1117976   5.348   5.892  10.880  0.3104 -0.3993 -0.0652
  161SOPE  H11A17977   5.444   5.852  10.920 -0.1982 -0.2940  1.2829
  161SOPE  H11B17978   5.330   5.979  10.946 -1.8509 -1.3481  0.6431
  161SOPE     P17979   5.305   6.069  10.686 -0.2754  0.0596 -0.4404
  161SOPE   O1317980   5.414   6.170  10.709 -0.2704 -0.3969 -0.0591
  161SOPE   O1417981   5.179   6.081  10.761  0.3531 -0.4837  0.5440
  161SOPE   O1217982   5.351   5.920  10.729 -0.3546  0.1384 -0.2605
  161SOPE   O1117983   5.273   6.069  10.540 -0.3955  0.0623  0.2148
  161SOPE    C117984   5.216   5.952  10.477  0.3229 -0.3329 -0.0518
  161SOPE    HA17985   5.250   5.858  10.525  3.8504  1.2758  0.7802
  161SOPE    HB17986   5.246   5.937  10.371  0.7423 -0.0483  0.0261
  161SOPE    C217987   5.056   5.953  10.483 -0.1695  0.5679 -0.9160
  161SOPE    HS17988   5.026   5.936  10.589 -1.5988  1.4013 -1.1673
  161SOPE   O2117989   5.017   5.847  10.396  0.8284 -0.3131  0.2672
  161SOPE   C2117990   4.894   5.800  10.420  0.3352 -0.1057  0.4919
  161SOPE   O2217991   4.825   5.830  10.516 -0.0116  0.6617 -0.0123
  161SOPE   C2217992   4.845   5.703  10.309  0.5177  0.2070  0.1886
  161SOPE   H2R17993   4.866   5.604  10.355  0.6432  1.2818  2.5004
  161SOPE   H2S17994   4.900   5.716  10.213 -0.8191  0.7576 -0.5135
  161SOPE    C317995   4.991   6.090  10.449 -0.1421 -0.5304 -0.1859
  161SOPE    HX17996   5.018   6.172  10.518  1.1907 -0.9014 -0.2418
  161SOPE    HY17997   4.882   6.072  10.454 -0.3593  1.3753  2.5783
  161SOPE   O3117998   5.034   6.110  10.310  0.4566  0.4240 -0.6943
  161SOPE   C3117999   5.005   6.228  10.255  0.0530 -0.7388 -0.5045
  161SOPE   O3218000   4.957   6.323  10.315 -0.0289  0.3045 -0.0387
  161SOPE   C3218001   5.064   6.243  10.116  0.0734  0.0062  0.4054
  161SOPE   H2X18002   5.153   6.177  10.106 -0.4947 -0.7129  0.0513
  161SOPE   H2Y18003   5.094   6.349  10.106 -0.6687  0.1881  0.0840
  161SOPE   C2318004   4.692   5.716  10.282 -0.4395 -0.4837 -0.4259
  161SOPE   H3R18005   4.673   5.815  10.236 -2.0647 -0.3506  0.4731
  161SOPE   H3S18006   4.632   5.699  10.374  0.9004  2.7652  1.1516
  161SOPE   C2418007   4.638   5.617  10.179 -0.7024 -0.8073 -0.0715
  161SOPE   H4R18008   4.685   5.522  10.211 -2.3415 -0.6214  3.0003
  161SOPE   H4S18009   4.530   5.603  10.197 -0.3753  1.2364  3.9717
  161SOPE   C2518010   4.684   5.634  10.034 -0.0182  0.4725  0.4420
  161SOPE   H5R18011   4.617   5.703   9.979 -1.1598 -2.6465 -2.2842
  161SOPE   H5S18012   4.785   5.680  10.023  0.2383 -0.1134  0.3198
  161SOPE   C2618013   4.679   5.499   9.957 -0.1916  0.3200 -0.2956
  161SOPE   H6R18014   4.749   5.418   9.987  1.1412  1.3421 -0.5496
  161SOPE   H6S18015   4.572   5.470   9.962  0.1058 -0.6715  0.4340
  161SOPE   C2718016   4.715   5.511   9.810 -0.7024  0.5356  0.1842
  161SOPE   H7R18017   4.813   5.557   9.786 -2.1433  3.4419 -0.2830
  161SOPE   H7S18018   4.724   5.403   9.782  0.0401  0.6250  0.0587
  161SOPE   C2818019   4.611   5.580   9.724 -0.1938 -0.4191  0.0673
  161SOPE   H8R18020   4.514   5.572   9.777  0.9486 -0.8938  2.1600
  161SOPE   H8S18021   4.617   5.688   9.746  0.5129 -0.3166 -0.5820
  161SOPE   C2918022   4.604   5.531   9.579 -0.1555 -0.0816 -0.1529
  161SOPE   H9118023   4.615   5.421   9.574  0.5252  0.0365 -1.5783
  161SOPE  C21018024   4.628   5.607   9.470  0.1809  0.1517 -0.6386
  161SOPE  H10118025   4.635   5.567   9.368 -1.6751 -3.0081  0.4049
  161SOPE  C21118026   4.652   5.753   9.471  0.3421 -0.2901 -0.4387
  161SOPE  H11R18027   4.636   5.810   9.565 -1.3506 -0.9435 -0.3196
  161SOPE  H11S18028   4.579   5.789   9.396  0.7743 -0.1503 -0.7959
  161SOPE  C21218029   4.789   5.799   9.420 -0.6145 -0.0548  0.1121
  161SOPE  H12R18030   4.860   5.762   9.497 -0.3418 -1.6590 -0.8862
  161SOPE  H12S18031   4.795   5.910   9.415  1.5325 -0.1282  0.3449
  161SOPE  C21318032   4.823   5.738   9.286 -0.2370  0.0023 -0.2086
  161SOPE  H13R18033   4.797   5.630   9.288  3.0806 -0.8966 -1.9678
  161SOPE  H13S18034   4.932   5.742   9.265 -0.2968  0.6306 -0.3934
  161SOPE  C21418035   4.756   5.806   9.174 -0.8147 -0.0774  0.0841
  161SOPE  H14R18036   4.807   5.903   9.153 -1.0061 -0.0774 -0.3820
  161SOPE  H14S18037   4.655   5.841   9.201  0.5413  3.4542  0.9209
  161SOPE  C21518038   4.746   5.722   9.043 -0.4063  0.4167  0.5755
  161SOPE  H15R18039   4.649   5.668   9.050 -0.4010  0.3949  0.4824
  161SOPE  H15S18040   4.826   5.645   9.042 -0.5054  0.3131  0.6407
  161SOPE  C21618041   4.763   5.795   8.912  0.6662 -0.7069  0.2907
  161SOPE  H16R18042   4.866   5.837   8.908  0.0921  1.0055  2.3565
  161SOPE  H16S18043   4.689   5.877   8.910  0.4457 -0.8993  0.5618
  161SOPE  C21718044   4.743   5.708   8.788  0.3242  0.0937 -0.0027
  161SOPE  H17R18045   4.826   5.635   8.779 -0.4798 -0.9500  0.8147
  161SOPE  H17S18046   4.740   5.781   8.705 -3.3840 -1.8009 -1.6420
  161SOPE  C21818047   4.606   5.637   8.772  0.0685 -0.1835  0.1603
  161SOPE  H18R18048   4.600   5.568   8.858 -1.4933  1.9773  1.8704
  161SOPE  H18S18049   4.598   5.579   8.677 -3.3230 -1.1959  0.9703
  161SOPE  H18T18050   4.513   5.697   8.784  0.6217  0.9051 -0.8165
  161SOPE   C3318051   4.958   6.219  10.007 -0.5412  0.1949 -0.4344
  161SOPE   H3X18052   4.876   6.284  10.043 -0.3108  0.3941 -0.2634
  161SOPE   H3Y18053   4.937   6.110  10.005  0.6372 -0.1518  3.1073
  161SOPE   C3418054   4.995   6.264   9.868  0.4832  1.0821 -0.5174
  161SOPE   H4X18055   5.091   6.220   9.835  0.1683 -0.2523  0.3066
  161SOPE   H4Y18056   4.995   6.375   9.867  0.7453  1.1101  1.0709
  161SOPE   C3518057   4.888   6.230   9.763 -0.1214 -0.3757 -0.1328
  161SOPE   H5X18058   4.790   6.246   9.812 -1.4141 -1.2389 -2.3305
  161SOPE   H5Y18059   4.895   6.128   9.720  0.3759  0.1148 -1.2603
  161SOPE   C3618060   4.896   6.326   9.638 -0.0165  0.0230 -0.8725
  161SOPE   H6X18061   4.998   6.330   9.593 -1.0435 -0.2540 -3.3244
  161SOPE   H6Y18062   4.876   6.429   9.674 -2.3175 -0.2981 -1.1711
  161SOPE   C3718063   4.795   6.301   9.529 -0.6229  0.0123 -0.7732
  161SOPE   H7X18064   4.700   6.356   9.549 -0.8073 -0.7988  0.6247
  161SOPE   H7Y18065   4.765   6.195   9.539  0.3650 -0.0412  2.0908
  161SOPE   C3818066   4.859   6.332   9.393  0.1577  0.4714  0.5248
  161SOPE   H8X18067   4.944   6.263   9.374  0.7792  1.3936 -0.0225
  161SOPE   H8Y18068   4.897   6.436   9.401 -1.5021  1.1300 -0.0553
  161SOPE   C3918069   4.762   6.319   9.282  0.8494  0.1354 -0.4270
  161SOPE   H9X18070   4.693   6.407   9.277 -0.0514 -0.5186  0.2180
  161SOPE   H9Y18071   4.695   6.232   9.301 -0.1696  0.4224 -2.5025
  161SOPE  C31018072   4.823   6.303   9.138  0.3155 -0.1350 -0.0154
  161SOPE  H10X18073   4.924   6.259   9.151  0.1107 -0.8704 -0.9308
  161SOPE  H10Y18074   4.841   6.398   9.083 -0.1364  0.0943  0.2235
  161SOPE  C31118075   4.729   6.215   9.055  0.8417 -0.3350 -0.0533
  161SOPE  H11X18076   4.626   6.229   9.095  0.2677 -0.6428 -1.4267
  161SOPE  H11Y18077   4.763   6.112   9.078  1.3107 -0.7556 -2.4834
  161SOPE  C31218078   4.721   6.244   8.901  0.1778 -0.3705  0.0207
  161SOPE  H12X18079   4.701   6.353   8.903  0.2811 -0.2517 -3.1867
  161SOPE  H12Y18080   4.626   6.197   8.867  0.9486 -0.6238 -1.8348
  161SOPE  C31318081   4.841   6.194   8.818 -0.1999  0.6606 -0.4109
  161SOPE  H13X18082   4.831   6.084   8.815  1.6110  0.4360  1.3738
  161SOPE  H13Y18083   4.937   6.225   8.865  1.3530 -2.8924 -1.1290
  161SOPE  C31418084   4.840   6.248   8.671  0.4700 -0.6379 -0.2518
  161SOPE  H14X18085   4.843   6.359   8.674  1.4515 -0.5868 -2.3823
  161SOPE  H14Y18086   4.739   6.224   8.631  1.0879  0.1180 -2.3197
  161SOPE  C31518087   4.962   6.187   8.605  0.2051 -0.3001  0.4068
  161SOPE  H15X18088   4.960   6.076   8.602 -1.0798 -0.2650 -0.0492
  161SOPE  H15Y18089   5.057   6.226   8.649  0.9154  0.3498 -1.6312
  161SOPE  C31618090   4.970   6.228   8.455 -0.1395  0.2427  0.1151
  161SOPE  H16X18091   5.067   6.190   8.416 -1.2380 -0.3149 -2.1348
  161SOPE  H16Y18092   4.970   6.338   8.442 -1.5169  0.5093  2.1231
  161SOPE  C31718093   4.853   6.165   8.375  1.2288  0.5267  0.2069
  161SOPE  H17X18094   4.758   6.204   8.417  1.5378 -0.0749  1.5079
  161SOPE  H17Y18095   4.861   6.055   8.390 -0.8073  0.3969  0.4476
  161SOPE  C31818096   4.865   6.195   8.227 -0.3596 -0.5906 -1.1302
  161SOPE  H18X18097   4.783   6.142   8.172  0.3167 -0.7814 -1.9577
  161SOPE  H18Y18098   4.968   6.169   8.193  0.3176  0.2179  0.2872
  161SOPE  H18Z18099   4.854   6.303   8.207 -1.2359 -0.3823  0.4369
  162SOPE     N18100   4.151   6.699  10.855  0.0262 -0.3628  0.4974
  162SOPE   HN118101   4.175   6.760  10.936  0.6753 -1.9677  1.5335
  162SOPE   HN218102   4.225   6.626  10.852  1.0816  0.7209 -0.6775
  162SOPE   HN318103   4.159   6.754  10.767 -0.6590 -1.7926 -0.4810
  162SOPE   C1218104   4.015   6.653  10.896 -0.4192 -0.5014  0.0294
  162SOPE  H12A18105   3.982   6.598  10.806 -1.5647 -1.0677  0.7851
  162SOPE  H12B18106   3.951   6.739  10.924  1.1662  0.6339  0.2006
  162SOPE   C1118107   4.031   6.547  11.005 -0.7273  0.3123 -0.3882
  162SOPE  H11A18108   3.936   6.490  11.012  0.5357 -2.0128 -1.5328
  162SOPE  H11B18109   4.046   6.604  11.099 -1.0514  2.7170 -1.7336
  162SOPE     P18110   4.125   6.316  10.918 -0.1309 -0.4170  0.2342
  162SOPE   O1318111   4.054   6.219  11.001  0.1054  0.3847  0.0784
  162SOPE   O1418112   4.252   6.278  10.863 -0.0655  0.6690  0.5420
  162SOPE   O1218113   4.142   6.460  10.982 -0.4901  0.2549  0.0186
  162SOPE   O1118114   4.022   6.358  10.811  0.5755  0.5629  0.3622
  162SOPE    C118115   4.050   6.352  10.669 -0.8262 -0.5494 -0.2262
  162SOPE    HA18116   4.124   6.273  10.642  0.3582  1.9501 -4.7802
  162SOPE    HB18117   4.098   6.447  10.637  0.8611 -0.8432  1.2967
  162SOPE    C218118   3.923   6.324  10.590 -0.6671  0.1207 -0.5287
  162SOPE    HS18119   3.912   6.215  10.574  1.2318 -0.3024  0.8656
  162SOPE   O2118120   3.935   6.386  10.460 -0.0984  0.0088  0.9260
  162SOPE   C2118121   4.017   6.313  10.375 -0.2404 -0.0795  0.4268
  162SOPE   O2218122   4.090   6.226  10.409 -0.3892 -0.0194  0.5364
  162SOPE   C2218123   3.988   6.362  10.234 -0.5142  0.5167  0.0758
  162SOPE   H2R18124   4.032   6.463  10.242  0.8752  0.0564 -1.4099
  162SOPE   H2S18125   3.877   6.361  10.229 -0.5201 -1.1435  0.2793
  162SOPE    C318126   3.790   6.371  10.664  0.3879  0.1875  0.1923
  162SOPE    HX18127   3.804   6.479  10.688 -1.3532  0.1586  1.3859
  162SOPE    HY18128   3.789   6.323  10.765  1.4992 -0.1668  0.0395
  162SOPE   O3118129   3.668   6.352  10.588  0.4872 -0.6279  0.0989
  162SOPE   C3118130   3.639   6.223  10.570 -0.4163 -0.3111  0.2882
  162SOPE   O3218131   3.705   6.135  10.616  0.0521 -0.0332  0.0249
  162SOPE   C3218132   3.509   6.201  10.490  0.1895  0.4316 -0.0713
  162SOPE   H2X18133   3.498   6.288  10.422 -2.8818  0.1028 -0.0905
  162SOPE   H2Y18134   3.422   6.205  10.559 -0.3494  0.6465 -0.7525
  162SOPE   C2318135   4.047   6.276  10.126 -0.4923  0.9756  0.8616
  162SOPE   H3R18136   4.008   6.172  10.135  0.4969  0.5548  0.3800
  162SOPE   H3S18137   4.156   6.292  10.126 -0.2480 -0.3985 -1.1377
  162SOPE   C2418138   4.009   6.328   9.990  0.0593 -1.0109  0.0495
  162SOPE   H4R18139   3.900   6.336   9.973  0.1597  0.9284  0.2455
  162SOPE   H4S18140   4.043   6.432   9.972  0.6417 -1.4060 -1.1954
  162SOPE   C2518141   4.074   6.232   9.889  0.2382  0.5008  0.1282
  162SOPE   H5R18142   4.184   6.225   9.900  0.4201  3.4359  0.5308
  162SOPE   H5S18143   4.043   6.125   9.900  1.8296  0.1621  1.5473
  162SOPE   C2618144   4.054   6.259   9.744  0.8298  0.0929  0.5730
  162SOPE   H6R18145   3.947   6.245   9.716  1.2616 -1.9841 -0.1370
  162SOPE   H6S18146   4.093   6.359   9.718 -1.9531  1.0814  0.0415
  162SOPE   C2718147   4.131   6.149   9.654  0.0648 -0.2113  0.4413
  162SOPE   H7R18148   4.239   6.158   9.680  0.2653 -1.5841  0.1320
  162SOPE   H7S18149   4.086   6.051   9.682  0.3601  0.1224  2.1384
  162SOPE   C2818150   4.113   6.170   9.506 -0.3261 -0.9737 -0.1093
  162SOPE   H8R18151   4.173   6.087   9.462  1.8511  1.5702 -2.0619
  162SOPE   H8S18152   4.006   6.155   9.480  0.2222 -2.9371 -1.4131
  162SOPE   C2918153   4.143   6.306   9.460  0.8086 -0.0371  0.2120
  162SOPE   H9118154   4.070   6.388   9.475  2.1479  1.8401 -2.9765
  162SOPE  C21018155   4.249   6.351   9.396 -0.4449  0.1216 -0.8980
  162SOPE  H10118156   4.257   6.459   9.383  0.7273  0.3717  1.4738
  162SOPE  C21118157   4.372   6.271   9.368  1.3252 -0.2648  0.3579
  162SOPE  H11R18158   4.381   6.175   9.424  0.5708 -0.4385  0.1956
  162SOPE  H11S18159   4.459   6.338   9.378  1.2286 -0.1661  0.5458
  162SOPE  C21218160   4.382   6.219   9.220  0.3580 -0.2905  0.8925
  162SOPE  H12R18161   4.472   6.163   9.188  0.0802 -0.3235  0.1480
  162SOPE  H12S18162   4.369   6.304   9.149  1.1986 -3.0399 -2.7446
  162SOPE  C21318163   4.265   6.121   9.183  0.5400 -1.0018  0.8143
  162SOPE  H13R18164   4.172   6.182   9.179  0.8177 -0.7034 -2.1110
  162SOPE  H13S18165   4.249   6.041   9.258 -0.9876 -2.1017 -0.6259
  162SOPE  C21418166   4.282   6.055   9.048  0.6760  0.3690 -0.0732
  162SOPE  H14R18167   4.305   6.147   8.988  2.7464  1.2437  1.9760
  162SOPE  H14S18168   4.188   6.015   9.006  0.4141  1.4658 -0.5611
  162SOPE  C21518169   4.391   5.950   9.026 -0.6829  0.4745 -1.5375
  162SOPE  H15R18170   4.491   5.992   9.050 -0.4894 -0.5608 -0.4696
  162SOPE  H15S18171   4.386   5.916   8.920 -3.9364 -1.5036 -0.8116
  162SOPE  C21618172   4.385   5.827   9.126  0.1048  0.1474 -0.3513
  162SOPE  H16R18173   4.387   5.882   9.223 -1.2253  0.2241 -0.3566
  162SOPE  H16S18174   4.473   5.759   9.123 -0.9046 -1.0907 -3.1042
  162SOPE  C21718175   4.265   5.734   9.112 -0.6518  0.8647 -0.4806
  162SOPE  H17R18176   4.279   5.674   9.019  1.2947  1.7708 -0.7826
  162SOPE  H17S18177   4.169   5.787   9.090  0.2286  1.9694 -1.7024
  162SOPE  C21818178   4.258   5.638   9.231 -0.0720  0.2508  0.1064
  162SOPE  H18R18179   4.177   5.562   9.228  1.0741 -0.9102 -1.8336
  162SOPE  H18S18180   4.260   5.696   9.326 -2.8892  2.9444 -1.3707
  162SOPE  H18T18181   4.344   5.569   9.238  1.5691  2.3591  1.4242
  162SOPE   C3318182   3.517   6.064  10.406  0.3444  0.0300  1.4183
  162SOPE   H3X18183   3.570   5.984  10.463  2.2435  1.7162  2.0741
  162SOPE   H3Y18184   3.580   6.102  10.323  1.2966 -1.8381  1.2699
  162SOPE   C3418185   3.375   6.024  10.359  0.7292  0.4225  0.1341
  162SOPE   H4X18186   3.314   6.007  10.451 -1.2868  2.2128 -0.8304
  162SOPE   H4Y18187   3.388   5.924  10.312 -1.1065  1.2773 -2.2787
  162SOPE   C3518188   3.303   6.109  10.255  0.5210  0.0876 -0.3108
  162SOPE   H5X18189   3.298   6.219  10.271  0.7192 -0.0690  0.8689
  162SOPE   H5Y18190   3.199   6.073  10.245 -0.0614  0.8233  2.7483
  162SOPE   C3618191   3.370   6.104  10.116  0.2346  0.5038  0.8730
  162SOPE   H6X18192   3.382   5.997  10.088 -0.5820  0.7171 -0.3246
  162SOPE   H6Y18193   3.471   6.150  10.120 -0.9397  3.5065 -1.8357
  162SOPE   C3718194   3.282   6.170  10.007  0.5474  0.3512  0.4194
  162SOPE   H7X18195   3.282   6.277  10.038  0.5689  1.1084 -2.0826
  162SOPE   H7Y18196   3.180   6.131   9.992  0.0420  1.7998  0.0210
  162SOPE   C3818197   3.344   6.149   9.869 -0.0274 -0.5859 -0.4117
  162SOPE   H8X18198   3.345   6.039   9.852  1.7037 -0.3982 -1.6151
  162SOPE   H8Y18199   3.449   6.185   9.864  0.6919 -2.6746 -0.9374
  162SOPE   C3918200   3.267   6.214   9.755  0.2719  0.6413  0.0420
  162SOPE   H9X18201   3.292   6.322   9.758  0.4013  0.5993  0.7601
  162SOPE   H9Y18202   3.156   6.215   9.757  0.1634 -0.2182 -3.2829
  162SOPE  C31018203   3.315   6.152   9.621 -0.7475  0.2561 -1.1246
  162SOPE  H10X18204   3.270   6.051   9.612 -1.7335  0.4707  0.9499
  162SOPE  H10Y18205   3.423   6.137   9.638 -1.1906  0.6562  2.5437
  162SOPE  C31118206   3.280   6.237   9.494 -0.0550 -0.6109 -0.1372
  162SOPE  H11X18207   3.311   6.340   9.521 -2.2328  0.8652 -2.9213
  162SOPE  H11Y18208   3.169   6.234   9.481 -0.2470  2.0270  0.5973
  162SOPE  C31218209   3.345   6.180   9.371 -0.1648 -0.8013  0.0834
  162SOPE  H12X18210   3.321   6.073   9.357 -1.2316 -0.4266 -1.0305
  162SOPE  H12Y18211   3.453   6.207   9.365 -0.3595  0.2793  1.1535
  162SOPE  C31318212   3.294   6.255   9.248 -0.3689 -0.7501 -0.0026
  162SOPE  H13X18213   3.309   6.363   9.265 -0.1389 -0.4441 -1.9418
  162SOPE  H13Y18214   3.187   6.224   9.242  0.1538 -3.3010  2.8794
  162SOPE  C31418215   3.365   6.213   9.115 -0.1569  0.5795 -0.3095
  162SOPE  H14X18216   3.355   6.103   9.110 -0.2288  0.5689  0.0799
  162SOPE  H14Y18217   3.474   6.238   9.119  0.1334 -0.9376  2.3012
  162SOPE  C31518218   3.326   6.288   8.994  0.2996 -0.3415  0.5026
  162SOPE  H15X18219   3.376   6.387   8.996  0.8540 -0.6176  0.4810
  162SOPE  H15Y18220   3.219   6.316   9.001 -0.3456 -1.8766 -2.4176
  162SOPE  C31618221   3.346   6.208   8.864  0.3621  0.0128  0.4132
  162SOPE  H16X18222   3.274   6.124   8.853 -1.6747  1.8630 -0.9596
  162SOPE  H16Y18223   3.441   6.152   8.873  0.1347 -0.6939 -1.4936
  162SOPE  C31718224   3.347   6.297   8.736 -1.0882  0.2818  0.0698
  162SOPE  H17X18225   3.429   6.371   8.745  0.2772 -1.2831  0.7355
  162SOPE  H17Y18226   3.249   6.349   8.737 -0.1093  2.1743 -0.5809
  162SOPE  C31818227   3.364   6.232   8.600  0.5255 -0.3985 -0.1328
  162SOPE  H18X18228   3.350   6.299   8.512 -1.1578 -2.4212 -1.4250
  162SOPE  H18Y18229   3.278   6.166   8.579 -1.6721  2.2729  0.2236
  162SOPE  H18Z18230   3.457   6.172   8.593  0.4027 -0.4791 -1.0957
  163SOPE     N18231   3.969   3.420  11.057 -0.8166  0.4518  0.4010
  163SOPE   HN118232   3.991   3.504  10.999  2.2917 -0.7934 -0.3203
  163SOPE   HN218233   4.047   3.387  11.118  0.0280  0.0221 -0.8893
  163SOPE   HN318234   3.982   3.339  10.994  0.8444  0.2412  0.9748
  163SOPE   C1218235   3.829   3.418  11.118 -0.0848  0.1468 -0.5108
  163SOPE  H12A18236   3.812   3.523  11.151 -0.9511  0.3986 -1.6885
  163SOPE  H12B18237   3.818   3.334  11.189  3.2454  0.6221  0.6564
  163SOPE   C1118238   3.721   3.396  11.007  0.0768 -0.6354  0.2591
  163SOPE  H11A18239   3.628   3.390  11.067  0.6113 -1.8869  0.9908
  163SOPE  H11B18240   3.736   3.295  10.964  0.1842 -1.4265  2.0850
  163SOPE     P18241   3.586   3.549  10.843 -0.1447 -0.0563 -0.1260
  163SOPE   O1318242   3.611   3.676  10.768 -0.0500  0.0298  0.0543
  163SOPE   O1418243   3.470   3.546  10.933 -0.2909  0.1542 -0.4936
  163SOPE   O1218244   3.719   3.499  10.914 -0.7200  0.9132  0.0478
  163SOPE   O1118245   3.552   3.444  10.723  0.4117  0.3953 -0.3870
  163SOPE    C118246   3.667   3.374  10.661  0.2068  0.1462 -0.0943
  163SOPE    HA18247   3.635   3.274  10.628 -0.2420 -0.3594  1.8081
  163SOPE    HB18248   3.750   3.346  10.730 -1.3203 -2.2330  0.8308
  163SOPE    C218249   3.733   3.444  10.536 -0.2725  0.8947 -0.1184
  163SOPE    HS18250   3.767   3.545  10.566  1.8548  0.1539  0.0488
  163SOPE   O2118251   3.627   3.451  10.437  0.6773 -0.1200  0.4740
  163SOPE   C2118252   3.644   3.552  10.347  0.1515  0.2080  0.4741
  163SOPE   O2218253   3.740   3.624  10.345 -0.6873  0.6439 -0.2377
  163SOPE   C2218254   3.526   3.545  10.249  0.8732 -0.1070 -0.5404
  163SOPE   H2R18255   3.448   3.620  10.273 -0.8134 -1.4631 -1.7045
  163SOPE   H2S18256   3.474   3.447  10.257 -0.7106  0.7441 -0.3157
  163SOPE    C318257   3.849   3.356  10.473  0.1560 -0.2506 -0.7160
  163SOPE    HX18258   3.796   3.265  10.436  1.7619 -1.5988  0.2208
  163SOPE    HY18259   3.917   3.337  10.559  0.3940 -1.0220 -1.0683
  163SOPE   O3118260   3.919   3.424  10.366  0.3239 -0.1289  0.2154
  163SOPE   C3118261   3.975   3.353  10.277 -0.1988  0.2612  0.2852
  163SOPE   O3218262   3.986   3.230  10.284 -0.5339 -0.2798  0.4316
  163SOPE   C3218263   4.038   3.437  10.170 -0.8126  0.0588  0.5663
  163SOPE   H2X18264   4.107   3.510  10.218  0.3718  0.2714 -1.4071
  163SOPE   H2Y18265   3.960   3.507  10.131  2.2244  4.2805  1.6598
  163SOPE   C2318266   3.582   3.560  10.107  0.0882 -0.3212 -0.4913
  163SOPE   H3R18267   3.637   3.652  10.079  0.4785 -0.7486 -1.1444
  163SOPE   H3S18268   3.494   3.549  10.039 -1.4139  0.8284  1.2273
  163SOPE   C2418269   3.670   3.438  10.064  0.3225 -0.0237 -0.3857
  163SOPE   H4R18270   3.751   3.434  10.140 -0.1756 -1.6913  0.0635
  163SOPE   H4S18271   3.601   3.352  10.071  1.5994 -0.9502  0.8663
  163SOPE   C2518272   3.731   3.451   9.922  0.3786 -0.6163  0.3802
  163SOPE   H5R18273   3.751   3.558   9.901  2.5439 -0.7719  1.4412
  163SOPE   H5S18274   3.828   3.398   9.910  0.0239 -1.1838 -0.0145
  163SOPE   C2618275   3.645   3.404   9.806  0.0542 -0.3659 -0.3692
  163SOPE   H6R18276   3.613   3.302   9.836  0.3442 -0.8971 -1.8553
  163SOPE   H6S18277   3.558   3.469   9.783 -1.1178 -1.3794  1.0560
  163SOPE   C2718278   3.737   3.389   9.679 -0.2552 -0.0103  0.4461
  163SOPE   H7R18279   3.772   3.487   9.639 -0.1320 -0.1872  0.1190
  163SOPE   H7S18280   3.832   3.335   9.699 -0.0852  0.4734  0.9474
  163SOPE   C2818281   3.672   3.311   9.555 -0.4612  0.4598 -0.1162
  163SOPE   H8R18282   3.577   3.363   9.528 -0.2041  0.9048 -0.1751
  163SOPE   H8S18283   3.729   3.314   9.460 -0.1011  2.8198  0.1477
  163SOPE   C2918284   3.658   3.171   9.597 -0.3471 -0.3685  0.4134
  163SOPE   H9118285   3.599   3.156   9.689 -1.1989 -0.8272 -0.2049
  163SOPE  C21018286   3.706   3.061   9.548  0.0086 -0.4275  0.5202
  163SOPE  H10118287   3.684   2.965   9.598  1.8179 -1.3267 -0.3343
  163SOPE  C21118288   3.787   3.038   9.426  0.2891 -0.0221 -0.0042
  163SOPE  H11R18289   3.868   2.962   9.431  2.0541  1.7669 -0.6903
  163SOPE  H11S18290   3.820   3.138   9.391 -0.8944  0.3179 -0.1958
  163SOPE  C21218291   3.706   2.985   9.304  0.4899 -0.2925 -0.1875
  163SOPE  H12R18292   3.766   2.984   9.210  0.9956  0.8488  0.1237
  163SOPE  H12S18293   3.610   3.039   9.293  0.1861 -0.6383  0.6733
  163SOPE  C21318294   3.661   2.832   9.318  0.4212  0.1385 -0.1213
  163SOPE  H13R18295   3.593   2.827   9.406  0.3689  1.0479 -0.1016
  163SOPE  H13S18296   3.744   2.762   9.343  0.7223  0.4029 -0.3893
  163SOPE  C21418297   3.580   2.777   9.197 -0.6744  0.2784  0.2877
  163SOPE  H14R18298   3.483   2.831   9.189 -0.3547  0.9514  0.9559
  163SOPE  H14S18299   3.549   2.671   9.211  1.5325 -0.1828  1.8490
  163SOPE  C21518300   3.670   2.778   9.069 -0.4342  0.1273  0.3073
  163SOPE  H15R18301   3.761   2.718   9.093 -0.7469  0.1353  1.5718
  163SOPE  H15S18302   3.698   2.885   9.062 -1.9441  0.4248 -1.3662
  163SOPE  C21618303   3.601   2.721   8.945  0.3947  0.3867 -0.1175
  163SOPE  H16R18304   3.529   2.803   8.924  0.3260  0.3748  0.0720
  163SOPE  H16S18305   3.552   2.627   8.977  0.2127  0.5977  0.2391
  163SOPE  C21718306   3.704   2.703   8.833  0.1904 -0.0890  0.1596
  163SOPE  H17R18307   3.655   2.645   8.752  4.0238 -0.7194 -1.8026
  163SOPE  H17S18308   3.789   2.645   8.875  1.3012  0.8623 -0.7583
  163SOPE  C21818309   3.758   2.839   8.775  0.7686 -0.0411 -0.5102
  163SOPE  H18R18310   3.803   2.913   8.844  0.7657 -0.0061 -0.5465
  163SOPE  H18S18311   3.688   2.896   8.710 -0.1867 -1.4881 -0.7641
  163SOPE  H18T18312   3.839   2.813   8.703  0.7820 -0.0783 -0.4802
  163SOPE   C3318313   4.104   3.342  10.067  0.0180 -0.1773 -0.0873
  163SOPE   H3X18314   4.038   3.254  10.050  2.6493 -2.4557  1.0725
  163SOPE   H3Y18315   4.199   3.308  10.113  0.8038  0.9717 -0.8444
  163SOPE   C3418316   4.120   3.400   9.924 -0.2288  0.4110 -1.0276
  163SOPE   H4X18317   4.203   3.471   9.945  0.4311 -1.3870  2.9764
  163SOPE   H4Y18318   4.030   3.460   9.897  0.5203  0.6861 -2.9917
  163SOPE   C3518319   4.154   3.297   9.819 -0.8183  0.3940  1.5056
  163SOPE   H5X18320   4.111   3.196   9.837 -0.4145 -0.2469 -0.9386
  163SOPE   H5Y18321   4.261   3.270   9.811 -0.4148  1.9300  1.4983
  163SOPE   C3618322   4.125   3.346   9.680  0.4304 -0.0345 -0.3272
  163SOPE   H6X18323   4.171   3.446   9.667  2.1648 -0.6778  0.6045
  163SOPE   H6Y18324   4.015   3.361   9.672  0.0733 -1.8792  0.7439
  163SOPE   C3718325   4.167   3.267   9.553  0.3525 -0.5813 -0.6144
  163SOPE   H7X18326   4.101   3.177   9.555 -0.5258  0.0377 -1.5690
  163SOPE   H7Y18327   4.274   3.239   9.559  0.5598  0.5207  1.2301
  163SOPE   C3818328   4.139   3.343   9.430 -0.2641  0.3756  0.4994
  163SOPE   H8X18329   4.208   3.429   9.417  0.7680 -0.4891  0.2358
  163SOPE   H8Y18330   4.035   3.383   9.439  0.4058  2.0997  0.7919
  163SOPE   C3918331   4.140   3.259   9.303 -0.5084 -0.0650  0.8280
  163SOPE   H9X18332   4.073   3.172   9.316  0.1496 -0.6460  0.3635
  163SOPE   H9Y18333   4.243   3.225   9.278  0.2153  1.8354  1.1407
  163SOPE  C31018334   4.109   3.351   9.176 -0.4640  0.7446 -0.1647
  163SOPE  H10X18335   4.190   3.426   9.165  1.0171 -0.8017  0.0615
  163SOPE  H10Y18336   4.016   3.410   9.191  1.4106  3.4709  1.1716
  163SOPE  C31118337   4.098   3.272   9.045  1.1073  0.3676 -0.4486
  163SOPE  H11X18338   4.195   3.216   9.041  0.0831 -1.4373 -0.5058
  163SOPE  H11Y18339   4.089   3.329   8.950  2.5703 -1.3421 -1.6600
  163SOPE  C31218340   3.987   3.169   9.043  0.1473 -0.0444 -0.3341
  163SOPE  H12X18341   3.945   3.146   9.143 -1.2968  1.4028 -0.5821
  163SOPE  H12Y18342   4.027   3.084   8.984 -1.0176 -1.8763  1.4795
  163SOPE  C31318343   3.871   3.229   8.963 -0.5198  0.5972 -0.3001
  163SOPE  H13X18344   3.807   3.141   8.942 -0.4857  0.7567 -1.0942
  163SOPE  H13Y18345   3.905   3.279   8.869  0.5152 -0.2885 -0.4100
  163SOPE  C31418346   3.783   3.321   9.051  0.6610 -0.2076 -0.3550
  163SOPE  H14X18347   3.839   3.416   9.065 -1.0354  1.2030 -2.6873
  163SOPE  H14Y18348   3.760   3.288   9.155  0.5281 -0.0587 -0.3358
  163SOPE  C31518349   3.653   3.351   8.970  0.3042 -0.0323 -0.2357
  163SOPE  H15X18350   3.589   3.267   8.935  1.0905 -0.4694 -0.6299
  163SOPE  H15Y18351   3.694   3.402   8.880  0.2623  1.6416  0.6728
  163SOPE  C31618352   3.554   3.451   9.045 -0.4709  0.7923  0.2930
  163SOPE  H16X18353   3.619   3.486   9.129  0.4475  0.8255 -0.4151
  163SOPE  H16Y18354   3.469   3.396   9.091 -0.1713  0.1027  0.0283
  163SOPE  C31718355   3.513   3.563   8.956  0.4750 -0.3692 -0.0463
  163SOPE  H17X18356   3.476   3.512   8.865  0.6515  0.4856 -0.6008
  163SOPE  H17Y18357   3.597   3.623   8.914 -0.6578  1.2354 -0.0586
  163SOPE  C31818358   3.421   3.657   9.034 -0.4428 -0.0852  0.4406
  163SOPE  H18X18359   3.334   3.595   9.066 -0.4354 -1.1607 -1.5427
  163SOPE  H18Y18360   3.402   3.754   8.984  0.3082 -0.6889 -1.0350
  163SOPE  H18Z18361   3.474   3.668   9.131  4.2508 -1.1933 -1.8462
  164SOPE     N18362   0.945   2.367  10.889  0.2507 -0.5151 -0.7101
  164SOPE   HN118363   0.891   2.309  10.957  1.3539  1.3195  1.8443
  164SOPE   HN218364   1.038   2.322  10.897 -0.1765 -1.4608 -1.0892
  164SOPE   HN318365   0.951   2.458  10.939  0.6260  0.1242 -1.9049
  164SOPE   C1218366   0.896   2.373  10.748  0.8348 -0.2134  0.2122
  164SOPE  H12A18367   0.902   2.275  10.696  0.3552  0.1617 -0.5619
  164SOPE  H12B18368   0.958   2.449  10.694 -1.6975  2.0746  0.4068
  164SOPE   C1118369   0.743   2.399  10.742 -0.1176 -0.3816 -0.3012
  164SOPE  H11A18370   0.707   2.388  10.638 -0.2406 -0.7183 -0.2216
  164SOPE  H11B18371   0.720   2.498  10.787 -1.0052 -0.6642 -0.1131
  164SOPE     P18372   0.609   2.167  10.779  0.1722  0.2998  0.1268
  164SOPE   O1318373   0.466   2.190  10.809  0.4031 -0.4873  0.4457
  164SOPE   O1418374   0.688   2.052  10.837 -0.4539  0.0707 -0.1328
  164SOPE   O1218375   0.686   2.295  10.828  0.4563  0.1397  0.0428
  164SOPE   O1118376   0.633   2.166  10.622 -0.3361 -0.2917 -0.0722
  164SOPE    C118377   0.732   2.087  10.555  0.4195  0.2889  0.3589
  164SOPE    HA18378   0.709   1.981  10.581  1.8139  0.0275  0.6231
  164SOPE    HB18379   0.834   2.097  10.599 -0.7482  3.1672  2.6363
  164SOPE    C218380   0.730   2.093  10.407  0.0258  0.8351 -0.2783
  164SOPE    HS18381   0.806   2.025  10.364  0.9151 -0.3770  3.0381
  164SOPE   O2118382   0.734   2.230  10.373 -0.1869 -0.0333  0.3531
  164SOPE   C2118383   0.853   2.279  10.373  0.0125  0.1778 -0.5874
  164SOPE   O2218384   0.954   2.216  10.403 -0.3130 -0.6635 -0.1113
  164SOPE   C2218385   0.855   2.425  10.318  0.3085  0.8221 -0.9261
  164SOPE   H2R18386   0.950   2.472  10.350  1.7223 -1.1191 -2.0954
  164SOPE   H2S18387   0.772   2.474  10.372  1.5509  1.1310  0.7579
  164SOPE    C318388   0.591   2.037  10.341 -0.5740  0.2609  0.1482
  164SOPE    HX18389   0.510   2.095  10.389 -1.3259  0.9807 -1.9179
  164SOPE    HY18390   0.568   1.929  10.358  0.0521  0.3271  1.4486
  164SOPE   O3118391   0.603   2.057  10.199  0.1932  0.8545 -0.2620
  164SOPE   C3118392   0.525   2.147  10.145  0.0651 -0.4924  1.0343
  164SOPE   O3218393   0.430   2.208  10.199 -0.3125  0.3474 -0.1526
  164SOPE   C3218394   0.576   2.181  10.001  0.5691  0.1776  0.2494
  164SOPE   H2X18395   0.657   2.111   9.972  1.0430  0.6563  0.4196
  164SOPE   H2Y18396   0.606   2.288   9.994  1.4766 -0.0261  1.0024
  164SOPE   C2318397   0.831   2.433  10.166 -0.6224  0.0470  0.2948
  164SOPE   H3R18398   0.798   2.533  10.131  1.5625  0.7396  0.1244
  164SOPE   H3S18399   0.754   2.354  10.155 -0.5699  0.1241 -0.6961
  164SOPE   C2418400   0.947   2.397  10.081 -0.3432  0.0562 -0.3614
  164SOPE   H4R18401   1.035   2.455  10.116 -2.0633  2.1931  0.4706
  164SOPE   H4S18402   0.968   2.289  10.097  1.7223  0.3399 -0.9991
  164SOPE   C2518403   0.910   2.421   9.937 -0.3681  0.9801  0.3550
  164SOPE   H5R18404   0.817   2.366   9.910 -0.3619  1.6253 -1.0502
  164SOPE   H5S18405   0.876   2.527   9.946 -0.8310  1.0643 -1.8822
  164SOPE   C2618406   1.025   2.395   9.846 -0.0718  0.4317  0.0020
  164SOPE   H6R18407   1.089   2.312   9.883 -2.3930 -1.0101  0.9079
  164SOPE   H6S18408   0.971   2.356   9.757  0.0870 -0.7386  0.4086
  164SOPE   C2718409   1.119   2.517   9.818 -0.4065  0.2131 -1.0976
  164SOPE   H7R18410   1.048   2.603   9.821  0.2843  0.7972 -1.3097
  164SOPE   H7S18411   1.194   2.538   9.897  0.6642  0.4414 -2.1702
  164SOPE   C2818412   1.198   2.498   9.686  0.3787  0.3433 -0.0817
  164SOPE   H8R18413   1.269   2.582   9.669  1.1001 -0.0799  0.7754
  164SOPE   H8S18414   1.253   2.401   9.693 -1.1034 -0.3950  2.0054
  164SOPE   C2918415   1.108   2.507   9.563 -0.1797 -0.0654  0.0939
  164SOPE   H9118416   1.006   2.539   9.588 -0.0042 -0.1340  0.9097
  164SOPE  C21018417   1.147   2.484   9.434 -0.0053 -0.1463  0.1396
  164SOPE  H10118418   1.074   2.485   9.352 -0.6150 -3.7642  0.5452
  164SOPE  C21118419   1.281   2.442   9.393  0.2753 -0.4821  0.2575
  164SOPE  H11R18420   1.356   2.441   9.475  0.1720 -2.1944  0.3603
  164SOPE  H11S18421   1.317   2.516   9.320 -1.4619  0.3178  0.1856
  164SOPE  C21218422   1.275   2.298   9.336 -0.1620  0.6596  0.2837
  164SOPE  H12R18423   1.239   2.224   9.410  0.5248  0.3045  0.2600
  164SOPE  H12S18424   1.383   2.282   9.315 -0.3173  0.0042 -0.0255
  164SOPE  C21318425   1.189   2.286   9.204  0.7854  0.2881 -0.1413
  164SOPE  H13R18426   1.220   2.373   9.142 -2.5526 -0.3784 -2.9079
  164SOPE  H13S18427   1.082   2.300   9.226  0.9422 -0.2789  1.0005
  164SOPE  C21418428   1.214   2.159   9.129 -0.2186 -0.6982  0.3793
  164SOPE  H14R18429   1.144   2.152   9.042  0.7297 -0.8479 -0.3800
  164SOPE  H14S18430   1.200   2.080   9.207  2.0705 -0.6255  0.8805
  164SOPE  C21518431   1.355   2.152   9.077  0.7939  0.1083 -0.6575
  164SOPE  H15R18432   1.387   2.045   9.074 -1.0002 -0.4228 -1.1531
  164SOPE  H15S18433   1.432   2.207   9.136  2.5415 -0.8392 -1.9763
  164SOPE  C21618434   1.372   2.190   8.929 -1.3719  0.0724  0.3731
  164SOPE  H16R18435   1.288   2.131   8.887 -0.9793  0.5222 -1.1036
  164SOPE  H16S18436   1.468   2.148   8.892 -3.0368 -3.3008 -0.2329
  164SOPE  C21718437   1.365   2.334   8.882 -0.5790  0.1706 -0.1177
  164SOPE  H17R18438   1.270   2.386   8.905 -0.7250  0.8003 -2.0428
  164SOPE  H17S18439   1.376   2.340   8.772 -0.5902  0.9042 -0.0848
  164SOPE  C21818440   1.473   2.414   8.946 -0.1913  0.1367 -0.1223
  164SOPE  H18R18441   1.568   2.358   8.932 -0.6481 -0.1487 -2.2772
  164SOPE  H18S18442   1.451   2.440   9.052 -2.7104 -1.3709 -0.2306
  164SOPE  H18T18443   1.473   2.514   8.898  4.1607 -0.2478 -1.0724
  164SOPE   C3318444   0.460   2.149   9.903 -0.1181  0.2945 -0.5247
  164SOPE   H3X18445   0.482   2.193   9.803 -0.8039  0.7668 -0.4727
  164SOPE   H3Y18446   0.367   2.203   9.933  0.1753 -0.7477  2.3299
  164SOPE   C3418447   0.433   2.002   9.870 -0.7757  0.1005 -0.3325
  164SOPE   H4X18448   0.421   1.946   9.966  0.7439 -1.3128 -0.9438
  164SOPE   H4Y18449   0.526   1.962   9.826 -1.3207 -1.9609  0.3432
  164SOPE   C3518450   0.311   1.977   9.784 -0.2764 -0.0412 -0.4692
  164SOPE   H5X18451   0.233   2.037   9.837 -1.2469 -0.4176 -1.4528
  164SOPE   H5Y18452   0.270   1.874   9.785  0.2057 -0.2269  1.9306
  164SOPE   C3618453   0.320   2.023   9.642 -0.2742 -0.2146 -0.0372
  164SOPE   H6X18454   0.363   2.125   9.641 -0.4545 -0.1306 -1.5177
  164SOPE   H6Y18455   0.217   2.020   9.599 -0.2353 -2.8198 -0.0404
  164SOPE   C3718456   0.403   1.931   9.558 -0.1161  1.1191 -0.1042
  164SOPE   H7X18457   0.373   1.825   9.566  0.5329  1.0657  1.7360
  164SOPE   H7Y18458   0.508   1.943   9.592 -0.5260  0.3991  1.4188
  164SOPE   C3818459   0.383   1.953   9.410  0.2068 -0.3398  0.0882
  164SOPE   H8X18460   0.430   2.048   9.375 -0.8038  0.1877  0.1567
  164SOPE   H8Y18461   0.275   1.959   9.385 -0.3394 -4.2654  1.1813
  164SOPE   C3918462   0.444   1.850   9.315 -0.5767 -0.0647 -0.2253
  164SOPE   H9X18463   0.410   1.753   9.356 -1.3351  0.1245 -0.4014
  164SOPE   H9Y18464   0.555   1.855   9.323 -0.3175 -3.0598 -1.3832
  164SOPE  C31018465   0.392   1.865   9.170  0.8122 -0.2249  0.2184
  164SOPE  H10X18466   0.414   1.963   9.123 -0.4242 -0.4404 -0.8326
  164SOPE  H10Y18467   0.281   1.864   9.175  0.8724  0.4954  1.9422
  164SOPE  C31118468   0.440   1.760   9.076 -0.3464 -0.1348 -0.0258
  164SOPE  H11X18469   0.436   1.661   9.126 -0.6772  0.1981  0.6124
  164SOPE  H11Y18470   0.543   1.770   9.036 -1.5279 -0.9573 -3.4830
  164SOPE  C31218471   0.346   1.746   8.956 -0.3885 -0.6048  0.3212
  164SOPE  H12X18472   0.335   1.842   8.901  1.5677  0.8394  2.3659
  164SOPE  H12Y18473   0.246   1.725   9.001  0.1337  0.3961  1.9480
  164SOPE  C31318474   0.384   1.627   8.860 -0.5712  0.6877  0.1290
  164SOPE  H13X18475   0.386   1.536   8.924 -1.0552  1.1436  0.7973
  164SOPE  H13Y18476   0.479   1.637   8.803 -0.1389  0.9327  0.8801
  164SOPE  C31418477   0.267   1.595   8.762  0.5852  0.0460  0.3544
  164SOPE  H14X18478   0.248   1.682   8.695  1.8583  0.6559  0.7828
  164SOPE  H14Y18479   0.180   1.587   8.831 -1.9750 -2.0439 -2.9300
  164SOPE  C31518480   0.286   1.470   8.665  0.7388  0.5939 -0.3936
  164SOPE  H15X18481   0.385   1.480   8.616  1.8480 -2.6983  1.0854
  164SOPE  H15Y18482   0.200   1.475   8.594 -0.3176 -2.1435  0.6530
  164SOPE  C31618483   0.287   1.319   8.709  0.2490 -1.7171 -0.2512
  164SOPE  H16X18484   0.203   1.307   8.780 -0.6330 -0.7006 -1.1040
  164SOPE  H16Y18485   0.380   1.290   8.763 -1.5471 -2.1244  2.7130
  164SOPE  C31718486   0.273   1.220   8.594  0.1885  0.3607  0.1077
  164SOPE  H17X18487   0.348   1.234   8.514  0.6491 -0.4876  0.3834
  164SOPE  H17Y18488   0.171   1.237   8.553 -0.0917 -1.8670 -0.2213
  164SOPE  C31818489   0.278   1.075   8.639 -0.0769  0.1729 -0.3352
  164SOPE  H18X18490   0.219   1.054   8.731 -0.6896 -1.6418 -1.1130
  164SOPE  H18Y18491   0.385   1.049   8.648  0.4562  3.0412  2.8369
  164SOPE  H18Z18492   0.229   1.013   8.561 -1.2346  1.6808 -0.8200
  165SOPE     N18493   5.536   1.851  11.199 -0.3305  0.1073 -0.1907
  165SOPE   HN118494   5.528   1.793  11.284 -0.7293  0.2121 -0.1567
  165SOPE   HN218495   5.544   1.943  11.245 -1.2451 -0.6785  1.5813
  165SOPE   HN318496   5.447   1.845  11.145 -0.7878  2.5083  0.2779
  165SOPE   C1218497   5.659   1.809  11.125  0.1794 -0.1562 -0.0654
  165SOPE  H12A18498   5.654   1.702  11.097  0.9165  0.2155 -1.6644
  165SOPE  H12B18499   5.736   1.819  11.203 -1.2029  1.6895  1.1062
  165SOPE   C1118500   5.671   1.889  10.994  0.1412 -0.0298 -0.3964
  165SOPE  H11A18501   5.578   1.877  10.935  1.1707  0.0157 -2.0444
  165SOPE  H11B18502   5.754   1.845  10.934 -0.1763 -1.9882  0.5677
  165SOPE     P18503   5.836   2.090  11.041  0.2729 -0.0381  0.6056
  165SOPE   O1318504   5.931   1.996  11.106  0.1053 -0.1675 -0.4330
  165SOPE   O1418505   5.826   2.231  11.091  0.7033 -0.0303 -0.2051
  165SOPE   O1218506   5.691   2.027  11.031 -0.4379 -0.1413  0.4228
  165SOPE   O1118507   5.882   2.096  10.891  0.2240 -0.3900 -0.4324
  165SOPE    C118508   5.811   2.077  10.775  0.0891 -0.5878  0.8280
  165SOPE    HA18509   5.702   2.085  10.797  0.1189  2.9777  0.0645
  165SOPE    HB18510   5.829   1.973  10.740 -0.2065 -0.1316 -0.7097
  165SOPE    C218511   5.864   2.169  10.658 -0.2413 -0.7680 -0.3240
  165SOPE    HS18512   5.842   2.272  10.695  2.1708 -0.1858 -0.4512
  165SOPE   O2118513   5.790   2.139  10.536  0.4836  0.3592 -0.4473
  165SOPE   C2118514   5.675   2.195  10.526  0.7370 -0.6072 -0.2454
  165SOPE   O2218515   5.624   2.275  10.599 -1.0008 -0.6135 -0.4101
  165SOPE   C2218516   5.612   2.167  10.393 -0.1290  0.5640  0.1660
  165SOPE   H2R18517   5.545   2.080  10.410  1.4209 -0.5978  0.4538
  165SOPE   H2S18518   5.698   2.138  10.329 -2.0218 -1.4078 -1.5996
  165SOPE    C318519   6.018   2.174  10.634 -0.4967 -0.6647 -0.6300
  165SOPE    HX18520   6.068   2.081  10.668  1.1486 -0.7529 -3.1678
  165SOPE    HY18521   6.049   2.244  10.714 -0.9892  0.9416 -1.8036
  165SOPE   O3118522   6.050   2.213  10.497  0.5576 -0.8573  1.1076
  165SOPE   C3118523   6.035   2.347  10.465 -0.2944  0.1008  0.2993
  165SOPE   O3218524   5.995   2.429  10.546  0.3986  0.0055  0.0163
  165SOPE   C3218525   6.071   2.373  10.328  0.2944  0.3052 -0.8426
  165SOPE   H2X18526   6.104   2.275  10.285 -0.0355 -0.7636  1.2707
  165SOPE   H2Y18527   6.155   2.444  10.311  0.3243 -0.3294 -3.5518
  165SOPE   C2318528   5.526   2.269  10.322  0.0357 -0.7620  0.5789
  165SOPE   H3R18529   5.590   2.354  10.288 -0.3993 -0.7191 -0.1495
  165SOPE   H3S18530   5.434   2.298  10.378  0.1757  0.6024  0.1199
  165SOPE   C2418531   5.488   2.214  10.189  0.2759  0.1959  0.1352
  165SOPE   H4R18532   5.571   2.176  10.126  1.0799  0.6975  0.8903
  165SOPE   H4S18533   5.413   2.134  10.206 -0.3103  0.4927 -0.9891
  165SOPE   C2518534   5.404   2.308  10.104  0.3195  0.1773 -0.3978
  165SOPE   H5R18535   5.310   2.345  10.152  0.6243  0.5290 -0.0586
  165SOPE   H5S18536   5.458   2.403  10.084 -2.7615  2.3199  0.9610
  165SOPE   C2618537   5.365   2.250   9.966  0.6193 -0.2997  0.5007
  165SOPE   H6R18538   5.433   2.165   9.943 -1.3712 -1.6741 -0.4070
  165SOPE   H6S18539   5.265   2.201   9.970  1.7030 -3.0475 -3.4740
  165SOPE   C2718540   5.371   2.344   9.846 -1.0265  0.0488 -0.0392
  165SOPE   H7R18541   5.301   2.429   9.859 -0.5528  0.7565 -1.9611
  165SOPE   H7S18542   5.470   2.393   9.835 -0.4456 -1.4601 -1.8526
  165SOPE   C2818543   5.335   2.277   9.720 -0.0043 -0.2326  0.7108
  165SOPE   H8R18544   5.376   2.329   9.631  0.6335 -0.4315  0.8835
  165SOPE   H8S18545   5.379   2.176   9.738 -0.4949 -0.1556  2.4818
  165SOPE   C2918546   5.188   2.257   9.699  0.9307  0.3366 -0.5160
  165SOPE   H9118547   5.147   2.169   9.750  1.1585  0.3314 -0.3416
  165SOPE  C21018548   5.100   2.343   9.641 -0.3494  0.6124  0.6653
  165SOPE  H10118549   4.992   2.324   9.644  0.0147 -1.4364  1.7830
  165SOPE  C21118550   5.134   2.477   9.581 -0.1732 -0.0263 -0.1641
  165SOPE  H11R18551   5.232   2.507   9.625  0.1170 -1.0257 -0.1018
  165SOPE  H11S18552   5.059   2.550   9.619  0.5459  0.6849 -0.0971
  165SOPE  C21218553   5.140   2.485   9.425 -0.3119  0.1079 -0.6467
  165SOPE  H12R18554   5.169   2.590   9.401  1.0044 -0.3748 -1.1970
  165SOPE  H12S18555   5.040   2.475   9.378  0.5178 -3.0668 -1.8581
  165SOPE  C21318556   5.251   2.393   9.370 -0.4374 -0.1507 -0.2174
  165SOPE  H13R18557   5.246   2.286   9.397  0.3042  0.0072  0.5438
  165SOPE  H13S18558   5.345   2.439   9.406 -0.8945  1.0368 -0.5056
  165SOPE  C21418559   5.242   2.396   9.211  0.2947 -0.8773 -0.2728
  165SOPE  H14R18560   5.252   2.500   9.172 -0.1735  0.1803  2.3316
  165SOPE  H14S18561   5.138   2.363   9.189 -0.7082  1.2678  1.1287
  165SOPE  C21518562   5.344   2.304   9.146 -0.0581  0.2820 -0.2303
  165SOPE  H15R18563   5.341   2.196   9.169 -1.9155  0.1811 -0.8423
  165SOPE  H15S18564   5.447   2.336   9.171 -0.7301  2.9106 -0.6447
  165SOPE  C21618565   5.343   2.308   8.998  0.6317  0.5762 -0.1559
  165SOPE  H16R18566   5.360   2.408   8.954  2.1558  0.0726 -0.7560
  165SOPE  H16S18567   5.241   2.273   8.972  0.7351 -0.5771  0.9203
  165SOPE  C21718568   5.445   2.219   8.925  0.1382  0.1127 -0.6070
  165SOPE  H17R18569   5.437   2.114   8.960 -0.5311  1.1261  2.4262
  165SOPE  H17S18570   5.545   2.250   8.962  0.4795 -0.1211 -1.3205
  165SOPE  C21818571   5.416   2.229   8.776  0.7733 -0.3054  0.2539
  165SOPE  H18R18572   5.500   2.180   8.723 -0.3069 -1.6562 -0.2289
  165SOPE  H18S18573   5.427   2.337   8.749  0.6746 -0.2314  0.5108
  165SOPE  H18T18574   5.315   2.193   8.747  0.1836  0.1671  1.6861
  165SOPE   C3318575   5.943   2.423  10.254  0.0124 -0.3363 -0.1819
  165SOPE   H3X18576   5.918   2.527  10.285  0.5992 -0.5635  1.0778
  165SOPE   H3Y18577   5.854   2.367  10.289 -0.2370 -0.0230 -0.3103
  165SOPE   C3418578   5.957   2.424  10.098  0.2126  0.1116  0.1522
  165SOPE   H4X18579   5.958   2.320  10.058  0.4922  0.2202 -0.1237
  165SOPE   H4Y18580   6.053   2.471  10.067  0.0741 -1.0376 -2.1624
  165SOPE   C3518581   5.837   2.497  10.038 -0.0843  0.7317 -0.1159
  165SOPE   H5X18582   5.857   2.600  10.073  0.4600  0.8720 -0.8186
  165SOPE   H5Y18583   5.749   2.463  10.096  1.1081 -0.7550  0.8384
  165SOPE   C3618584   5.839   2.479   9.891  0.3356  0.5133 -0.2984
  165SOPE   H6X18585   5.740   2.498   9.843 -0.3901 -2.6546 -0.1401
  165SOPE   H6Y18586   5.856   2.376   9.855  2.2766  0.7799 -0.1786
  165SOPE   C3718587   5.933   2.580   9.817 -0.5494 -0.2831  0.3446
  165SOPE   H7X18588   6.032   2.539   9.848 -0.6773  0.3292  1.5970
  165SOPE   H7Y18589   5.923   2.681   9.861 -0.1357 -0.1749  0.1882
  165SOPE   C3818590   5.928   2.585   9.663  0.1545  0.0561  0.3493
  165SOPE   H8X18591   5.983   2.681   9.651  0.2530  0.5711  4.2662
  165SOPE   H8Y18592   5.827   2.600   9.619 -0.1633  1.7052  1.5947
  165SOPE   C3918593   6.012   2.479   9.592  0.6057 -0.1912 -0.2901
  165SOPE   H9X18594   5.982   2.372   9.602 -0.3205  0.0569 -0.3581
  165SOPE   H9Y18595   6.111   2.478   9.642  0.0972 -0.0334  0.7175
  165SOPE  C31018596   6.021   2.504   9.441 -0.3512 -0.9761 -0.2326
  165SOPE  H10X18597   6.111   2.444   9.414  1.3392  0.9604  0.9323
  165SOPE  H10Y18598   6.043   2.611   9.421  2.3111 -1.2520  1.0127
  165SOPE  C31118599   5.901   2.443   9.369  0.3524  0.0991  0.3659
  165SOPE  H11X18600   5.807   2.480   9.416  0.9040  1.2892  0.5611
  165SOPE  H11Y18601   5.890   2.335   9.390 -0.5038  0.2889  0.9676
  165SOPE  C31218602   5.901   2.461   9.213  0.0550 -0.7389 -0.0008
  165SOPE  H12X18603   5.987   2.408   9.167 -0.5985 -0.2026 -1.9185
  165SOPE  H12Y18604   5.920   2.570   9.202  0.3899 -0.7484  0.4433
  165SOPE  C31318605   5.779   2.406   9.146  0.3852  0.3586 -0.2919
  165SOPE  H13X18606   5.692   2.475   9.154 -0.0603 -0.2348  0.0585
  165SOPE  H13Y18607   5.743   2.305   9.177  0.0614  0.6051  0.1273
  165SOPE  C31418608   5.804   2.405   8.992  0.1640  0.0147 -0.4901
  165SOPE  H14X18609   5.881   2.484   8.973 -0.8371  0.2580 -3.9677
  165SOPE  H14Y18610   5.712   2.417   8.931  0.4810 -2.0716 -1.4393
  165SOPE  C31518611   5.873   2.276   8.945 -1.1166  0.0838  0.0443
  165SOPE  H15X18612   5.806   2.188   8.952 -0.9422 -0.3006 -2.4905
  165SOPE  H15Y18613   5.953   2.264   9.022  1.0371  0.1262 -2.1072
  165SOPE  C31618614   5.941   2.281   8.808 -0.8360  0.8213  0.1072
  165SOPE  H16X18615   6.008   2.193   8.802 -0.7141  0.8913  0.4203
  165SOPE  H16Y18616   6.007   2.371   8.807  1.8132 -1.0604  1.0224
  165SOPE  C31718617   5.856   2.279   8.675 -0.1553  0.1046  0.0728
  165SOPE  H17X18618   5.772   2.352   8.671 -0.3350 -0.1949 -2.4715
  165SOPE  H17Y18619   5.809   2.178   8.680 -1.1625  0.5523 -0.1580
  165SOPE  C31818620   5.932   2.291   8.543  0.3545  0.6714 -0.3714
  165SOPE  H18X18621   5.956   2.187   8.512  0.7680 -0.2974  2.9448
  165SOPE  H18Y18622   6.025   2.351   8.549  3.0382 -3.5030  2.8665
  165SOPE  H18Z18623   5.869   2.333   8.461  1.6364 -1.5535 -2.5624
  166SOPE     N18624   1.968   3.244  10.753  0.1669 -0.4061 -0.5555
  166SOPE   HN118625   2.005   3.337  10.724  0.1902 -0.5530 -0.9917
  166SOPE   HN218626   2.052   3.188  10.778  1.0272  1.4181  0.7917
  166SOPE   HN318627   1.912   3.204  10.675 -2.9005  0.9349  0.8541
  166SOPE   C1218628   1.884   3.234  10.875  0.2013  0.0629  0.6316
  166SOPE  H12A18629   1.800   3.306  10.876 -0.8171 -1.0482 -1.6451
  166SOPE  H12B18630   1.940   3.260  10.967  1.0002 -0.1061  0.1970
  166SOPE   C1118631   1.830   3.089  10.881  0.0284 -0.2531 -0.2971
  166SOPE  H11A18632   1.775   3.071  10.976  1.6823 -1.4042  0.4612
  166SOPE  H11B18633   1.915   3.018  10.876 -0.7744 -1.1544 -1.4504
  166SOPE     P18634   1.680   2.912  10.768  0.5218 -0.2702  0.5324
  166SOPE   O1318635   1.542   2.916  10.819  0.0257  0.2545  0.3122
  166SOPE   O1418636   1.774   2.812  10.822 -0.5177 -0.0567 -0.2942
  166SOPE   O1218637   1.738   3.066  10.777  0.7613 -0.2224 -0.4997
  166SOPE   O1118638   1.669   2.895  10.613  0.2385  0.3916  0.1348
  166SOPE    C118639   1.783   2.905  10.526  0.4807 -0.7621 -0.7858
  166SOPE    HA18640   1.823   2.803  10.505 -2.2716 -1.8675 -0.8314
  166SOPE    HB18641   1.867   2.968  10.562 -0.3052  0.1300 -0.5070
  166SOPE    C218642   1.735   2.963  10.389 -0.1441 -0.1332  0.3181
  166SOPE    HS18643   1.826   2.988  10.329  0.8600 -2.2103  0.9323
  166SOPE   O2118644   1.664   3.088  10.408 -0.2700 -0.0692  0.0877
  166SOPE   C2118645   1.731   3.187  10.462 -0.3399 -0.9313 -0.4674
  166SOPE   O2218646   1.846   3.190  10.499  0.3787  0.0301  0.4670
  166SOPE   C2218647   1.638   3.303  10.479  0.3061 -0.1699  0.0098
  166SOPE   H2R18648   1.607   3.317  10.585  0.9335 -1.4430  0.3728
  166SOPE   H2S18649   1.546   3.275  10.425  0.6233  0.4913 -0.8937
  166SOPE    C318650   1.654   2.861  10.309  0.7691 -0.8545  0.9164
  166SOPE    HX18651   1.560   2.832  10.360 -0.0574 -0.0483 -0.1143
  166SOPE    HY18652   1.712   2.767  10.301 -0.2502 -1.4955  1.0301
  166SOPE   O3118653   1.630   2.917  10.178 -0.2072  0.1841  0.7551
  166SOPE   C3118654   1.522   2.991  10.169  0.7040  0.8503 -0.2429
  166SOPE   O3218655   1.451   3.015  10.263  0.0280 -0.2673  0.5454
  166SOPE   C3218656   1.492   3.043  10.032  0.0400  0.5183  0.2640
  166SOPE   H2X18657   1.573   3.007   9.964  0.1098  1.0960  0.0427
  166SOPE   H2Y18658   1.512   3.152  10.036  1.7187  0.3740 -2.5442
  166SOPE   C2318659   1.685   3.434  10.419 -0.3563  0.4017 -0.0333
  166SOPE   H3R18660   1.794   3.454  10.427 -0.6335  1.3454  1.7841
  166SOPE   H3S18661   1.635   3.516  10.474  0.3009  1.3274 -0.7992
  166SOPE   C2418662   1.644   3.446  10.272 -0.3909  0.5231  0.1547
  166SOPE   H4R18663   1.543   3.411  10.242 -0.4154 -1.0203  1.9273
  166SOPE   H4S18664   1.654   3.553  10.243  0.0959  0.7501  1.1386
  166SOPE   C2518665   1.740   3.375  10.180 -0.5143  0.2762  0.6390
  166SOPE   H5R18666   1.841   3.413  10.204 -0.2836 -1.1035  1.8858
  166SOPE   H5S18667   1.732   3.266  10.196 -0.8161  0.3035  0.6923
  166SOPE   C2618668   1.702   3.383  10.028 -1.1732 -0.4805  0.7367
  166SOPE   H6R18669   1.593   3.362  10.022 -0.8360 -2.0810  0.0368
  166SOPE   H6S18670   1.716   3.481   9.978  0.1761 -1.7086 -1.3663
  166SOPE   C2718671   1.787   3.282   9.950  0.1635 -0.0105  0.0227
  166SOPE   H7R18672   1.890   3.311   9.979  0.6971 -0.9027 -0.9229
  166SOPE   H7S18673   1.767   3.179   9.986 -0.6634  0.5666  1.2213
  166SOPE   C2818674   1.774   3.298   9.803  0.0133 -0.2968  0.1687
  166SOPE   H8R18675   1.811   3.402   9.795  0.6609 -0.2888  2.8758
  166SOPE   H8S18676   1.840   3.229   9.747 -0.1197 -0.8092  0.6355
  166SOPE   C2918677   1.637   3.269   9.761 -0.2453 -0.4935 -0.5740
  166SOPE   H9118678   1.599   3.166   9.770 -1.3044 -0.4930 -4.2532
  166SOPE  C21018679   1.551   3.361   9.704  0.5292  0.2595 -0.6887
  166SOPE  H10118680   1.463   3.322   9.650  0.9128 -0.6600 -0.6603
  166SOPE  C21118681   1.581   3.505   9.683 -0.5429  0.3544  0.2207
  166SOPE  H11R18682   1.690   3.523   9.695 -0.1647 -0.9965 -1.1403
  166SOPE  H11S18683   1.527   3.558   9.765  0.4232  0.1933  0.9629
  166SOPE  C21218684   1.532   3.555   9.546  0.4059  0.6073  0.7880
  166SOPE  H12R18685   1.535   3.666   9.547  1.9955  0.5915 -0.3176
  166SOPE  H12S18686   1.423   3.534   9.536  0.6022  0.5327 -1.6788
  166SOPE  C21318687   1.616   3.506   9.427 -0.3992 -0.0521 -0.2469
  166SOPE  H13R18688   1.576   3.412   9.384  2.5633 -0.4995 -2.2214
  166SOPE  H13S18689   1.723   3.492   9.454 -0.7874 -5.3935 -0.9370
  166SOPE  C21418690   1.620   3.627   9.324 -0.4358 -0.3878 -0.3727
  166SOPE  H14R18691   1.681   3.704   9.376 -0.5303 -0.3154 -0.3683
  166SOPE  H14S18692   1.518   3.672   9.328 -0.1981  0.0936  0.5607
  166SOPE  C21518693   1.659   3.603   9.181  0.8547  0.3230  0.3309
  166SOPE  H15R18694   1.581   3.543   9.131  2.2489 -0.9195 -0.4037
  166SOPE  H15S18695   1.758   3.551   9.183  1.4764  1.5101  2.0799
  166SOPE  C21618696   1.679   3.736   9.107 -0.1847  0.4554 -0.1031
  166SOPE  H16R18697   1.759   3.786   9.165 -0.0724  2.0668 -1.6092
  166SOPE  H16S18698   1.584   3.794   9.105 -0.2863  0.3111  0.4836
  166SOPE  C21718699   1.716   3.720   8.952  0.7396  0.2777 -0.4838
  166SOPE  H17R18700   1.823   3.691   8.958  1.0051  1.0427 -1.4155
  166SOPE  H17S18701   1.724   3.818   8.899 -0.0654  0.8639  0.4492
  166SOPE  C21818702   1.623   3.622   8.873 -0.3893  0.3529  0.2926
  166SOPE  H18R18703   1.648   3.627   8.765  0.8833  1.6938  0.6356
  166SOPE  H18S18704   1.518   3.651   8.893 -0.3992  1.0396 -0.7011
  166SOPE  H18T18705   1.634   3.520   8.914 -0.1815  0.1635 -0.2398
  166SOPE   C3318706   1.349   3.009   9.972 -0.5026  0.6963 -0.1377
  166SOPE   H3X18707   1.275   3.059  10.037 -1.2290 -1.7069  0.9690
  166SOPE   H3Y18708   1.330   2.899   9.980  1.0009  0.4539  0.2018
  166SOPE   C3418709   1.331   3.051   9.826  0.4172  0.1351 -1.1532
  166SOPE   H4X18710   1.414   2.997   9.774  0.7844 -0.7286  0.3153
  166SOPE   H4Y18711   1.345   3.160   9.810  0.0256  0.3846  0.1635
  166SOPE   C3518712   1.191   3.012   9.767 -0.0145  0.0694 -0.8421
  166SOPE   H5X18713   1.106   3.053   9.825 -0.8813  0.8866 -2.6588
  166SOPE   H5Y18714   1.173   2.903   9.782 -0.6632  0.4098  1.0608
  166SOPE   C3618715   1.184   3.040   9.616  0.1610  0.8879  0.4147
  166SOPE   H6X18716   1.090   3.000   9.571 -0.7899  1.2208  2.0559
  166SOPE   H6Y18717   1.281   3.005   9.575 -0.6261  0.0340 -0.7518
  166SOPE   C3718718   1.174   3.195   9.578 -0.6005  0.6657  0.1593
  166SOPE   H7X18719   1.260   3.251   9.621  1.0825 -2.4523  1.0288
  166SOPE   H7Y18720   1.090   3.244   9.631  1.2766  2.2144  1.7891
  166SOPE   C3818721   1.166   3.207   9.435  0.0392 -0.1747 -0.6618
  166SOPE   H8X18722   1.086   3.143   9.392  0.9067 -1.5933 -0.2234
  166SOPE   H8Y18723   1.255   3.178   9.375  1.8284  0.7882  1.4751
  166SOPE   C3918724   1.133   3.354   9.393  0.1009 -0.3075 -0.2425
  166SOPE   H9X18725   1.210   3.430   9.418  3.1254 -3.8320  1.7734
  166SOPE   H9Y18726   1.039   3.382   9.446  1.7145  1.4745  1.7548
  166SOPE  C31018727   1.115   3.371   9.238  0.4465 -0.0850  0.5075
  166SOPE  H10X18728   1.047   3.457   9.220 -0.1390 -0.4930  0.7549
  166SOPE  H10Y18729   1.057   3.279   9.215  1.8609 -0.4242 -1.8200
  166SOPE  C31118730   1.247   3.387   9.166  0.1335  0.5929 -0.1101
  166SOPE  H11X18731   1.299   3.294   9.199  0.9925  2.2684  3.5415
  166SOPE  H11Y18732   1.301   3.472   9.213 -2.1062  1.1967  1.4834
  166SOPE  C31218733   1.241   3.389   9.011  0.5726  0.1786  0.0892
  166SOPE  H12X18734   1.207   3.289   8.978  0.8033  0.4275 -0.9334
  166SOPE  H12Y18735   1.342   3.422   8.978  1.9768 -2.4797  1.5317
  166SOPE  C31318736   1.146   3.494   8.958  0.2765  0.2257  0.7206
  166SOPE  H13X18737   1.140   3.575   9.033  1.2399  2.1601 -1.2461
  166SOPE  H13Y18738   1.043   3.455   8.942 -1.2179  3.5798  1.7328
  166SOPE  C31418739   1.190   3.567   8.839  0.5336  0.3795  0.1985
  166SOPE  H14X18740   1.297   3.593   8.856  0.8480 -1.8228  1.8365
  166SOPE  H14Y18741   1.126   3.657   8.833  0.4107  0.1584 -2.7798
  166SOPE  C31518742   1.190   3.488   8.708  0.2294 -0.1394 -0.3466
  166SOPE  H15X18743   1.086   3.466   8.676  1.3472 -2.1789 -2.7532
  166SOPE  H15Y18744   1.222   3.383   8.724  0.3431 -0.2794 -1.4743
  166SOPE  C31618745   1.257   3.543   8.581  0.1244  0.2750  1.0512
  166SOPE  H16X18746   1.188   3.624   8.547  0.8922  0.8193  0.7841
  166SOPE  H16Y18747   1.256   3.463   8.504 -1.0028  1.3754 -0.1086
  166SOPE  C31718748   1.404   3.603   8.601 -0.7106 -0.3653  0.0845
  166SOPE  H17X18749   1.477   3.529   8.641 -0.5843 -0.2347  0.0940
  166SOPE  H17Y18750   1.397   3.684   8.677 -0.1292 -1.1019  0.9310
  166SOPE  C31818751   1.459   3.654   8.471 -0.9745  1.0505 -0.0384
  166SOPE  H18X18752   1.459   3.574   8.395  0.2287  0.1952  0.8416
  166SOPE  H18Y18753   1.567   3.672   8.492 -0.8089 -0.7300  0.6735
  166SOPE  H18Z18754   1.405   3.743   8.433 -2.0811 -0.1560 -1.3363
  167SOPE     N18755   3.954   0.697   6.312  0.3769  0.4429  0.1588
  167SOPE   HN118756   3.922   0.701   6.411 -0.1951 -1.6551  0.0875
  167SOPE   HN218757   3.885   0.732   6.242 -1.4820 -2.5749  0.3638
  167SOPE   HN318758   3.970   0.600   6.280 -0.9351  0.5907 -0.9986
  167SOPE   C1218759   4.089   0.756   6.308 -0.4378  0.1041 -0.1490
  167SOPE  H12A18760   4.090   0.826   6.394 -2.5897 -1.3496  1.0989
  167SOPE  H12B18761   4.096   0.810   6.211  0.8014  0.9417  0.3931
  167SOPE   C1118762   4.192   0.646   6.308 -0.0147  0.5019  0.1402
  167SOPE  H11A18763   4.203   0.625   6.417 -0.0386  2.7099  0.5922
  167SOPE  H11B18764   4.284   0.701   6.278 -0.0689  0.4414 -0.1396
  167SOPE     P18765   4.282   0.451   6.167  0.5561 -0.0471 -0.4801
  167SOPE   O1318766   4.329   0.524   6.046 -0.2931  0.0995  0.3370
  167SOPE   O1418767   4.236   0.314   6.141 -0.4595 -0.1617  0.0965
  167SOPE   O1218768   4.162   0.536   6.223  0.2297  0.0545  1.0557
  167SOPE   O1118769   4.407   0.458   6.261  0.4435 -0.7872  0.7064
  167SOPE    C118770   4.495   0.356   6.282 -0.1758  0.0828 -0.4763
  167SOPE    HA18771   4.595   0.404   6.265 -1.0005  1.5962 -1.1944
  167SOPE    HB18772   4.483   0.271   6.212 -1.5249  0.4063 -0.6435
  167SOPE    C218773   4.483   0.294   6.430 -0.2028 -0.0487 -0.1342
  167SOPE    HS18774   4.376   0.267   6.446 -0.3630  0.9954  0.6290
  167SOPE   O2118775   4.538   0.381   6.529 -0.0804  0.2656 -0.3561
  167SOPE   C2118776   4.452   0.459   6.588  0.4385 -0.3049 -0.3205
  167SOPE   O2218777   4.331   0.455   6.567  0.0855 -0.4036  0.0814
  167SOPE   C2218778   4.520   0.536   6.697  0.2912  0.4587 -0.3532
  167SOPE   H2R18779   4.546   0.635   6.653 -0.2144  0.5525 -0.4458
  167SOPE   H2S18780   4.617   0.489   6.723 -0.4335 -0.0449  1.5072
  167SOPE    C318781   4.543   0.156   6.439 -0.5733  0.3848  0.1292
  167SOPE    HX18782   4.640   0.159   6.385  0.5471 -0.2451  2.0597
  167SOPE    HY18783   4.468   0.101   6.379 -2.7045  1.9936  1.2575
  167SOPE   O3118784   4.543   0.102   6.573  0.4352 -0.2077 -0.5615
  167SOPE   C3118785   4.658   0.117   6.641  0.3180  0.6143  0.4528
  167SOPE   O3218786   4.757   0.172   6.604 -0.2588  0.4540  0.1894
  167SOPE   C3218787   4.643   0.064   6.790 -0.4834 -0.1472  0.9105
  167SOPE   H2X18788   4.736   0.005   6.798 -2.4275 -3.4450  0.2749
  167SOPE   H2Y18789   4.557  -0.006   6.793  0.2158 -0.9698  2.1194
  167SOPE   C2318790   4.430   0.562   6.826 -0.2289  1.1712  0.9213
  167SOPE   H3R18791   4.386   0.467   6.864 -2.7466  1.0041 -2.2246
  167SOPE   H3S18792   4.340   0.618   6.791 -1.0778 -0.0768  1.0880
  167SOPE   C2418793   4.507   0.641   6.935  0.1076 -0.2432 -0.4541
  167SOPE   H4R18794   4.609   0.606   6.959  1.0712  2.3120 -0.6454
  167SOPE   H4S18795   4.519   0.745   6.898 -3.8143  0.8341  1.0403
  167SOPE   C2518796   4.430   0.656   7.067 -0.4139 -0.0439  0.0760
  167SOPE   H5R18797   4.345   0.725   7.049  0.0786  0.2609 -1.1366
  167SOPE   H5S18798   4.383   0.557   7.086 -2.5327  0.9869  0.3652
  167SOPE   C2618799   4.512   0.711   7.182  0.0998 -0.8892 -0.2231
  167SOPE   H6R18800   4.601   0.648   7.203  0.8458  0.1866 -0.0936
  167SOPE   H6S18801   4.548   0.811   7.150  0.6426 -0.7676  0.7455
  167SOPE   C2718802   4.440   0.731   7.313  0.0813  0.2189 -1.0855
  167SOPE   H7R18803   4.480   0.822   7.363 -2.0239 -0.1898  1.4595
  167SOPE   H7S18804   4.334   0.755   7.295 -0.5939 -0.2373  1.9293
  167SOPE   C2818805   4.451   0.623   7.418  0.1380 -0.4502  0.4358
  167SOPE   H8R18806   4.403   0.535   7.370 -0.1787 -0.1401  0.1779
  167SOPE   H8S18807   4.555   0.604   7.449  0.7025  1.5823 -0.0905
  167SOPE   C2918808   4.367   0.668   7.540 -0.1839  0.7148  0.0143
  167SOPE   H9118809   4.267   0.704   7.515  0.3399  3.2190  1.3777
  167SOPE  C21018810   4.421   0.691   7.663 -0.3489  0.2554 -0.4213
  167SOPE  H10118811   4.347   0.719   7.740 -1.0293  0.3351 -1.1030
  167SOPE  C21118812   4.559   0.664   7.712  0.0282  0.0157  0.0683
  167SOPE  H11R18813   4.603   0.764   7.735  1.3405 -0.6620  0.5722
  167SOPE  H11S18814   4.633   0.620   7.642  1.5990 -0.2727  1.8702
  167SOPE  C21218815   4.560   0.588   7.848 -0.1263 -0.6627  0.2355
  167SOPE  H12R18816   4.522   0.490   7.812 -1.0728 -0.1368 -0.2139
  167SOPE  H12S18817   4.484   0.635   7.915 -0.2585  0.4953 -0.7006
  167SOPE  C21318818   4.682   0.599   7.927 -0.0122  0.0918 -0.3598
  167SOPE  H13R18819   4.704   0.701   7.965  1.4130 -0.5091  0.4710
  167SOPE  H13S18820   4.766   0.557   7.868  1.3351 -1.4007  2.4932
  167SOPE  C21418821   4.676   0.515   8.062  0.3594  0.4003 -0.1960
  167SOPE  H14R18822   4.782   0.512   8.096  1.4709  3.1894 -3.1044
  167SOPE  H14S18823   4.642   0.410   8.047  0.6491 -0.4265  4.1786
  167SOPE  C21518824   4.587   0.578   8.167 -0.1628  0.1399  0.2139
  167SOPE  H15R18825   4.556   0.502   8.242  0.1693 -1.9578 -1.7379
  167SOPE  H15S18826   4.490   0.621   8.132  0.2905  0.6115 -0.4702
  167SOPE  C21618827   4.655   0.695   8.251 -0.5794 -0.6156 -0.4032
  167SOPE  H16R18828   4.656   0.776   8.176  2.6483 -0.4918 -0.2711
  167SOPE  H16S18829   4.758   0.662   8.275  0.2353  1.7893 -0.5473
  167SOPE  C21718830   4.570   0.745   8.371  0.1659 -0.0406 -0.7509
  167SOPE  H17R18831   4.467   0.774   8.341 -0.6027 -1.4109  0.4863
  167SOPE  H17S18832   4.624   0.827   8.423 -0.0929 -2.3045  3.3010
  167SOPE  C21818833   4.565   0.643   8.485  0.5597 -0.3452  0.5275
  167SOPE  H18R18834   4.521   0.684   8.578 -0.2025  2.2890 -0.9305
  167SOPE  H18S18835   4.667   0.600   8.499  0.9067  0.4778  0.6156
  167SOPE  H18T18836   4.492   0.564   8.458  1.9965 -1.3962 -0.3545
  167SOPE   C3318837   4.624   0.174   6.900  0.3184 -0.3449  0.4804
  167SOPE   H3X18838   4.529   0.227   6.876  0.7921  0.7734  1.0135
  167SOPE   H3Y18839   4.707   0.248   6.896  0.2701 -0.3831 -1.3869
  167SOPE   C3418840   4.629   0.115   7.042  0.9968  0.5484 -0.1866
  167SOPE   H4X18841   4.717   0.052   7.067 -0.4571 -1.7489 -0.7109
  167SOPE   H4Y18842   4.550   0.038   7.038  0.8808  0.7037 -1.0623
  167SOPE   C3518843   4.599   0.210   7.157  0.6902 -0.9525  0.2282
  167SOPE   H5X18844   4.498   0.255   7.158  0.8269 -0.6315 -0.0333
  167SOPE   H5Y18845   4.664   0.299   7.147 -0.4948  0.0733  1.4736
  167SOPE   C3618846   4.627   0.142   7.292 -0.4706 -0.3274  0.3627
  167SOPE   H6X18847   4.724   0.091   7.311 -0.3402 -1.0015 -1.9906
  167SOPE   H6Y18848   4.559   0.054   7.294  0.0439 -0.7832 -1.2279
  167SOPE   C3718849   4.598   0.246   7.405  0.3041  0.0233  0.4894
  167SOPE   H7X18850   4.504   0.304   7.400  0.9790  0.9574 -1.9242
  167SOPE   H7Y18851   4.685   0.314   7.391  0.2534  0.2907  1.4602
  167SOPE   C3818852   4.607   0.172   7.545  0.3506  0.0982 -1.1965
  167SOPE   H8X18853   4.690   0.099   7.538  0.8070  0.4502  0.4312
  167SOPE   H8Y18854   4.507   0.127   7.565  0.0167  1.1250 -0.4503
  167SOPE   C3918855   4.648   0.275   7.656  0.8133  0.1319  0.4199
  167SOPE   H9X18856   4.590   0.367   7.633 -0.3888 -0.4001  1.2456
  167SOPE   H9Y18857   4.749   0.312   7.629  0.6675  0.1997 -0.0432
  167SOPE  C31018858   4.617   0.230   7.802  0.8938  0.8180 -0.2366
  167SOPE  H10X18859   4.508   0.239   7.822  1.0038 -0.7076  1.1479
  167SOPE  H10Y18860   4.670   0.294   7.876  2.5198 -1.5453  0.6920
  167SOPE  C31118861   4.670   0.087   7.820 -0.3439 -0.2018 -0.0629
  167SOPE  H11X18862   4.777   0.088   7.789 -1.2444  0.8227 -3.3833
  167SOPE  H11Y18863   4.619   0.017   7.751 -2.4651 -0.1729  1.4303
  167SOPE  C31218864   4.642   0.042   7.963  0.6719  0.1799 -0.6189
  167SOPE  H12X18865   4.534   0.057   7.983  0.3897 -2.2804 -0.0757
  167SOPE  H12Y18866   4.706   0.090   8.040  1.5854 -1.2703 -0.4534
  167SOPE  C31318867   4.675  -0.108   7.967  0.1008 -0.0508  0.3447
  167SOPE  H13X18868   4.779  -0.116   7.930 -0.0111  0.5544 -0.1029
  167SOPE  H13Y18869   4.605  -0.164   7.903  1.8792 -0.2841 -1.4389
  167SOPE  C31418870   4.668  -0.166   8.110  0.4689 -0.2315  0.1562
  167SOPE  H14X18871   4.578  -0.130   8.164  1.7541 -1.2480  3.0901
  167SOPE  H14Y18872   4.758  -0.136   8.168  1.0471 -0.6456 -0.5159
  167SOPE  C31518873   4.666  -0.321   8.114 -0.0088  0.4736 -0.5105
  167SOPE  H15X18874   4.700  -0.358   8.213 -0.8224  0.9080 -0.0550
  167SOPE  H15Y18875   4.732  -0.358   8.033 -0.7138  1.8181 -1.7387
  167SOPE  C31618876   4.522  -0.361   8.093 -0.0897  0.2622 -0.1313
  167SOPE  H16X18877   4.482  -0.303   8.007 -1.2736  2.5358  1.8719
  167SOPE  H16Y18878   4.455  -0.334   8.178 -0.8461  1.1634 -0.9999
  167SOPE  C31718879   4.492  -0.504   8.056  0.6060 -1.0205  0.6505
  167SOPE  H17X18880   4.526  -0.558   8.147  1.6846 -1.0582  0.2361
  167SOPE  H17Y18881   4.558  -0.518   7.967  0.6606 -0.9248  0.6759
  167SOPE  C31818882   4.350  -0.531   8.021 -0.3420  0.4246  0.6878
  167SOPE  H18X18883   4.325  -0.467   7.934 -0.0659 -0.9650 -0.4350
  167SOPE  H18Y18884   4.284  -0.510   8.108 -1.1324 -1.4820  0.5816
  167SOPE  H18Z18885   4.347  -0.634   7.978  1.0600  0.7245 -0.1518
  168SOPE     N18886   3.067   4.484   6.584  0.3417 -0.3828 -0.1503
  168SOPE   HN118887   2.987   4.543   6.555  0.2515  0.4602  1.7555
  168SOPE   HN218888   3.092   4.423   6.504 -1.6265  1.3179 -2.1200
  168SOPE   HN318889   3.036   4.431   6.667  2.4114 -3.0186 -0.9875
  168SOPE   C1218890   3.183   4.577   6.612  0.2001  0.1328 -0.5326
  168SOPE  H12A18891   3.251   4.506   6.663 -0.7872 -0.0573  0.5403
  168SOPE  H12B18892   3.142   4.648   6.687  0.9486  0.7661 -0.7097
  168SOPE   C1118893   3.243   4.642   6.482  0.0167  0.2065 -0.0633
  168SOPE  H11A18894   3.326   4.713   6.505  0.2597  0.3305 -1.2801
  168SOPE  H11B18895   3.154   4.695   6.442 -1.2717 -1.1096  0.9946
  168SOPE     P18896   3.375   4.429   6.416 -0.2580  0.0250  0.0719
  168SOPE   O1318897   3.412   4.378   6.280  0.1925 -0.4149  0.3323
  168SOPE   O1418898   3.308   4.331   6.500  0.0981 -0.4264  0.3702
  168SOPE   O1218899   3.277   4.541   6.388 -0.0166  1.0578  0.1462
  168SOPE   O1118900   3.489   4.496   6.497  0.0600 -0.1516 -0.1822
  168SOPE    C118901   3.585   4.407   6.554 -0.1452  0.2138 -0.7745
  168SOPE    HA18902   3.686   4.450   6.536  0.4399 -0.2468  1.2518
  168SOPE    HB18903   3.577   4.304   6.514 -3.6412 -1.0476  2.7964
  168SOPE    C218904   3.562   4.415   6.712 -0.0930 -0.7140  0.3146
  168SOPE    HS18905   3.648   4.356   6.750  1.7253  1.3127 -0.5158
  168SOPE   O2118906   3.435   4.364   6.755  0.2763  0.3863 -0.1262
  168SOPE   C2118907   3.437   4.232   6.756 -0.0798  0.5175  0.0980
  168SOPE   O2218908   3.536   4.163   6.732 -0.1459 -0.2325  0.2021
  168SOPE   C2218909   3.299   4.171   6.798  0.0154 -0.2060  0.0951
  168SOPE   H2R18910   3.305   4.063   6.771 -1.4416 -0.2795 -0.0095
  168SOPE   H2S18911   3.221   4.219   6.735  0.2912 -1.3441 -1.1410
  168SOPE    C318912   3.581   4.555   6.777 -0.6178 -0.4432  0.5307
  168SOPE    HX18913   3.498   4.618   6.740 -1.0009 -1.4853 -0.4156
  168SOPE    HY18914   3.680   4.585   6.737 -1.5304 -0.5066 -1.8749
  168SOPE   O3118915   3.588   4.539   6.921 -1.1507  0.5457 -0.0659
  168SOPE   C3118916   3.482   4.587   6.994  0.5634  0.6133 -0.2513
  168SOPE   O3218917   3.365   4.594   6.946 -0.7706 -0.1739  0.7521
  168SOPE   C3218918   3.524   4.600   7.140 -0.6375  0.3881  0.2161
  168SOPE   H2X18919   3.616   4.662   7.145 -0.5885  0.1499  2.9595
  168SOPE   H2Y18920   3.559   4.504   7.183 -1.2596  0.5573  1.1316
  168SOPE   C2318921   3.268   4.219   6.940 -0.8072  0.1534 -0.1225
  168SOPE   H3R18922   3.169   4.177   6.968 -0.8061 -0.0751 -0.4533
  168SOPE   H3S18923   3.254   4.329   6.953  1.3453  0.4492 -0.1821
  168SOPE   C2418924   3.372   4.148   7.033  0.5254  0.3254  0.4310
  168SOPE   H4R18925   3.374   4.038   7.019  0.3329  0.3121  0.5118
  168SOPE   H4S18926   3.472   4.188   7.005  0.5838  0.2273  0.5000
  168SOPE   C2518927   3.350   4.185   7.179  0.3976  0.0307  0.7952
  168SOPE   H5R18928   3.384   4.287   7.204  1.2900 -0.3795  1.2625
  168SOPE   H5S18929   3.241   4.192   7.198  0.2266 -0.9624  0.2329
  168SOPE   C2618930   3.408   4.081   7.277 -0.3494 -0.2542  0.1990
  168SOPE   H6R18931   3.395   3.980   7.233  0.0520  0.7914 -2.4158
  168SOPE   H6S18932   3.516   4.105   7.283 -0.3971  0.3737 -1.2518
  168SOPE   C2718933   3.346   4.086   7.419 -0.2604  0.0513 -0.4753
  168SOPE   H7R18934   3.256   4.023   7.399 -1.7421  2.7097 -2.4783
  168SOPE   H7S18935   3.403   4.019   7.487 -2.0714 -1.3479 -0.3018
  168SOPE   C2818936   3.302   4.219   7.479 -0.1037 -0.2137 -0.1044
  168SOPE   H8R18937   3.392   4.268   7.521 -1.5536  0.3457  2.4573
  168SOPE   H8S18938   3.263   4.290   7.403 -1.8646  1.3834  2.2356
  168SOPE   C2918939   3.198   4.217   7.585  0.4092 -0.7788  0.4050
  168SOPE   H9118940   3.096   4.207   7.547  1.0515  0.4660 -1.7042
  168SOPE  C21018941   3.232   4.219   7.718  0.2069 -0.1625 -0.1528
  168SOPE  H10118942   3.154   4.228   7.796 -0.1642 -2.9138 -0.1714
  168SOPE  C21118943   3.368   4.225   7.780 -0.2206  0.1206  0.3238
  168SOPE  H11R18944   3.389   4.322   7.830 -1.1901 -0.6610  2.2835
  168SOPE  H11S18945   3.447   4.210   7.703  2.2701  0.6253  2.6967
  168SOPE  C21218946   3.387   4.112   7.885  0.3789  0.1992  0.3729
  168SOPE  H12R18947   3.387   4.015   7.829 -2.2175  0.3268  0.1284
  168SOPE  H12S18948   3.316   4.120   7.969  1.1859  1.8759  0.9079
  168SOPE  C21318949   3.532   4.127   7.946  0.0626 -0.1046  0.3668
  168SOPE  H13R18950   3.553   4.230   7.981 -2.7639  1.0608 -1.1806
  168SOPE  H13S18951   3.602   4.114   7.861  0.8832  0.3041  0.9706
  168SOPE  C21418952   3.561   4.032   8.059 -0.8564 -0.1109  0.1023
  168SOPE  H14R18953   3.666   4.031   8.095 -0.2366  0.6976 -1.6665
  168SOPE  H14S18954   3.541   3.925   8.036 -0.9397 -0.8487  3.2879
  168SOPE  C21518955   3.478   4.068   8.185 -0.6297 -0.0575  0.6535
  168SOPE  H15R18956   3.375   4.106   8.166 -0.6547 -0.5340 -0.1729
  168SOPE  H15S18957   3.537   4.146   8.238 -2.6228  0.8835  1.5174
  168SOPE  C21618958   3.472   3.960   8.291  0.0974  0.4437 -0.4335
  168SOPE  H16R18959   3.573   3.916   8.303  0.5280  0.7886 -2.4820
  168SOPE  H16S18960   3.405   3.883   8.247  0.4099  0.2976 -0.6617
  168SOPE  C21718961   3.414   4.010   8.427 -0.6934  0.2197 -0.1384
  168SOPE  H17R18962   3.322   4.070   8.422 -0.1015  0.9822 -2.1251
  168SOPE  H17S18963   3.490   4.082   8.464  0.9375 -1.5384  0.0723
  168SOPE  C21818964   3.398   3.898   8.532  0.8112  0.7720 -0.3065
  168SOPE  H18R18965   3.315   3.831   8.501  1.2880  0.4841 -0.9797
  168SOPE  H18S18966   3.378   3.948   8.629  3.5247 -0.1713  0.7776
  168SOPE  H18T18967   3.490   3.836   8.539 -1.1583 -2.1666  0.2013
  168SOPE   C3318968   3.411   4.649   7.237 -0.0109  0.4703  0.3853
  168SOPE   H3X18969   3.356   4.557   7.269 -0.8586  0.6327 -0.5755
  168SOPE   H3Y18970   3.335   4.708   7.180 -1.9479 -2.2275  0.0609
  168SOPE   C3418971   3.458   4.729   7.355 -0.3363  0.0500 -0.0849
  168SOPE   H4X18972   3.367   4.774   7.401 -0.2761 -2.5220  2.7213
  168SOPE   H4Y18973   3.521   4.815   7.327  0.6917  0.3501  3.0097
  168SOPE   C3518974   3.522   4.639   7.458  0.0519 -0.2713 -0.0195
  168SOPE   H5X18975   3.628   4.619   7.431  0.4800  2.6579 -0.6806
  168SOPE   H5Y18976   3.466   4.543   7.450 -0.0804 -0.2065  0.1278
  168SOPE   C3618977   3.507   4.685   7.604 -0.1033  0.1751  0.2548
  168SOPE   H6X18978   3.406   4.672   7.648 -0.1470 -0.4963 -0.0333
  168SOPE   H6Y18979   3.541   4.790   7.614 -1.4457  0.6356  0.0324
  168SOPE   C3718980   3.600   4.599   7.693  0.1006 -0.7049 -0.3495
  168SOPE   H7X18981   3.704   4.616   7.659  0.3616 -0.5333  0.5175
  168SOPE   H7Y18982   3.566   4.495   7.673 -1.1976  0.0831 -2.4390
  168SOPE   C3818983   3.594   4.626   7.843  0.0277 -0.4209 -0.4176
  168SOPE   H8X18984   3.488   4.613   7.875  0.0345  2.1146  0.7622
  168SOPE   H8Y18985   3.615   4.733   7.863  1.4432 -0.7810  0.0249
  168SOPE   C3918986   3.681   4.543   7.933  0.3813  0.1771 -0.0626
  168SOPE   H9X18987   3.786   4.556   7.901  0.5449 -1.1986 -0.1205
  168SOPE   H9Y18988   3.655   4.437   7.913  2.1446 -0.2724 -0.0925
  168SOPE  C31018989   3.673   4.582   8.082 -0.3690  0.0624  0.4961
  168SOPE  H10X18990   3.569   4.618   8.101  0.0654  0.5501  1.9878
  168SOPE  H10Y18991   3.727   4.678   8.092 -1.2134  0.5347  0.5693
  168SOPE  C31118992   3.697   4.467   8.172  0.1953  0.0685  0.0124
  168SOPE  H11X18993   3.800   4.433   8.147 -0.3754 -0.6999 -1.3877
  168SOPE  H11Y18994   3.621   4.389   8.151 -0.1153 -0.2374  2.1480
  168SOPE  C31218995   3.702   4.504   8.321  0.3816  0.5817 -0.2231
  168SOPE  H12X18996   3.761   4.597   8.335 -0.0276  0.9791 -1.1357
  168SOPE  H12Y18997   3.750   4.415   8.367  0.5498 -0.5486 -2.5144
  168SOPE  C31318998   3.568   4.535   8.391  0.3157  0.4304 -0.3487
  168SOPE  H13X18999   3.513   4.611   8.332  1.7071  1.5879 -0.1686
  168SOPE  H13Y19000   3.595   4.581   8.488  2.6197  2.5091 -1.9362
  168SOPE  C31419001   3.488   4.410   8.434 -0.7017  0.1516  0.1977
  168SOPE  H14X19002   3.552   4.348   8.500 -0.4251 -1.0179 -1.1477
  168SOPE  H14Y19003   3.468   4.357   8.338 -0.2097  0.2086  0.0643
  168SOPE  C31519004   3.360   4.436   8.511 -0.5259 -0.7861  0.3775
  168SOPE  H15X19005   3.289   4.493   8.448 -0.2168  0.8753  1.4826
  168SOPE  H15Y19006   3.398   4.497   8.596 -1.4997  3.5738 -2.1511
  168SOPE  C31619007   3.301   4.310   8.574 -0.4202  0.5230  0.2329
  168SOPE  H16X19008   3.381   4.240   8.608  0.3801  0.6227 -1.4046
  168SOPE  H16Y19009   3.243   4.257   8.496 -1.0935  1.3056  0.2002
  168SOPE  C31719010   3.229   4.339   8.700  0.0846 -0.5686 -0.2180
  168SOPE  H17X19011   3.141   4.406   8.692  0.8478  0.5390  0.5782
  168SOPE  H17Y19012   3.298   4.405   8.756  1.1522  0.1453 -2.3298
  168SOPE  C31819013   3.188   4.204   8.765 -0.5373 -0.7273 -0.2761
  168SOPE  H18X19014   3.272   4.131   8.760  0.4415  0.4927 -3.0757
  168SOPE  H18Y19015   3.113   4.156   8.700  0.6557  0.3350 -2.5202
  168SOPE  H18Z19016   3.144   4.206   8.866  1.1852  1.0753  0.4760
  169SOPE     N19017   5.703   6.308   6.344 -0.8274 -0.2291 -0.5953
  169SOPE   HN119018   5.612   6.309   6.294 -1.4762  0.2677  0.5792
  169SOPE   HN219019   5.693   6.273   6.442  1.7269  2.8240  0.8319
  169SOPE   HN319020   5.737   6.406   6.345 -2.5117  0.4145 -2.7708
  169SOPE   C1219021   5.810   6.237   6.266  0.3931  0.3378  0.1906
  169SOPE  H12A19022   5.794   6.264   6.159 -0.1295 -0.6479  0.0123
  169SOPE  H12B19023   5.782   6.129   6.267 -1.1208  0.6791 -1.6311
  169SOPE   C1119024   5.952   6.271   6.314  0.6517  0.3429  0.2060
  169SOPE  H11A19025   6.026   6.212   6.255 -0.0791  0.2389 -0.6105
  169SOPE  H11B19026   5.959   6.230   6.417  0.4251  0.0161  0.0906
  169SOPE     P19027   6.051   6.493   6.202  0.1845  0.5732 -0.0828
  169SOPE   O1319028   5.949   6.560   6.121  0.6073  0.3106  0.4036
  169SOPE   O1419029   6.141   6.395   6.128  0.3449  0.7485 -0.6169
  169SOPE   O1219030   5.983   6.412   6.321  0.6145  0.3465  0.1460
  169SOPE   O1119031   6.133   6.607   6.277 -0.2584 -0.1370  0.2878
  169SOPE    C119032   6.223   6.582   6.381 -0.7403 -0.6244  0.8336
  169SOPE    HA19033   6.320   6.632   6.358 -0.2632 -2.0100 -0.2504
  169SOPE    HB19034   6.237   6.474   6.402  2.9743 -0.5823 -0.9229
  169SOPE    C219035   6.186   6.649   6.521 -0.0900  0.7221 -0.2379
  169SOPE    HS19036   6.271   6.634   6.591  0.9262  3.1334 -0.8973
  169SOPE   O2119037   6.063   6.588   6.575  0.2645 -0.0310 -0.3845
  169SOPE   C2119038   6.075   6.472   6.644  0.4661  0.0867  0.0626
  169SOPE   O2219039   6.180   6.415   6.665  0.0845  0.1707  0.2362
  169SOPE   C2219040   5.940   6.420   6.688  0.6538  0.1592 -0.3696
  169SOPE   H2R19041   5.951   6.313   6.661  0.6114  0.3507 -1.1487
  169SOPE   H2S19042   5.867   6.455   6.611 -0.6379  2.0959  1.6449
  169SOPE    C319043   6.168   6.807   6.505  0.3728  0.0611  0.0441
  169SOPE    HX19044   6.063   6.833   6.478 -0.7586 -0.1318  3.9856
  169SOPE    HY19045   6.222   6.830   6.411  1.2107  0.7538  0.6915
  169SOPE   O3119046   6.218   6.877   6.614  0.1194  0.1304 -0.1250
  169SOPE   C3119047   6.135   6.869   6.715  0.1968 -0.5115  0.0574
  169SOPE   O3219048   6.014   6.845   6.704 -0.3889  0.3325 -0.0671
  169SOPE   C3219049   6.223   6.889   6.841  0.0127 -0.4144 -0.7158
  169SOPE   H2X19050   6.245   6.997   6.858 -0.5270 -0.2537 -1.0029
  169SOPE   H2Y19051   6.309   6.819   6.835  1.7209  1.4343  1.3225
  169SOPE   C2319052   5.886   6.451   6.825 -0.6763 -0.5570 -0.6037
  169SOPE   H3R19053   5.785   6.408   6.840 -0.4086 -1.4234 -1.2502
  169SOPE   H3S19054   5.881   6.561   6.838 -0.6479 -0.3859 -2.0275
  169SOPE   C2419055   5.968   6.394   6.942  0.0510  0.3435 -0.0516
  169SOPE   H4R19056   5.972   6.285   6.925  0.9858  0.1244  1.4398
  169SOPE   H4S19057   6.069   6.441   6.942  0.7125 -1.0543  0.4875
  169SOPE   C2519058   5.914   6.433   7.082  0.3381 -0.7756 -0.3816
  169SOPE   H5R19059   5.909   6.543   7.097  0.8518 -1.0584  1.9300
  169SOPE   H5S19060   5.809   6.402   7.099  0.6841 -0.7225  1.8975
  169SOPE   C2619061   5.997   6.385   7.196  0.1688  0.1477 -0.4172
  169SOPE   H6R19062   6.011   6.276   7.178  0.5674  0.1791 -0.2990
  169SOPE   H6S19063   6.099   6.426   7.182  0.8956 -1.4463  0.1787
  169SOPE   C2719064   5.938   6.416   7.333  0.1418  0.2514  0.3057
  169SOPE   H7R19065   6.024   6.405   7.402  1.7870  0.9938 -1.5574
  169SOPE   H7S19066   5.907   6.522   7.344 -0.8522  0.0397 -0.3229
  169SOPE   C2819067   5.813   6.332   7.374  0.3695  0.0295  0.9896
  169SOPE   H8R19068   5.738   6.347   7.294  0.1753  1.3920  1.4089
  169SOPE   H8S19069   5.844   6.225   7.374  1.3953  0.3112  1.7594
  169SOPE   C2919070   5.775   6.380   7.513  0.0235 -0.0291  0.4768
  169SOPE   H9119071   5.740   6.485   7.514 -1.3872 -0.5013  1.3130
  169SOPE  C21019072   5.772   6.324   7.632 -0.1275 -0.4014  0.0712
  169SOPE  H10119073   5.746   6.386   7.719  0.7899 -2.7467  2.0815
  169SOPE  C21119074   5.819   6.184   7.675 -0.4755  0.2906  0.8334
  169SOPE  H11R19075   5.880   6.123   7.605 -0.1144  1.5474  0.0337
  169SOPE  H11S19076   5.731   6.119   7.696  0.6527 -1.8977 -1.0578
  169SOPE  C21219077   5.901   6.171   7.809  0.6033  0.0299 -0.3338
  169SOPE  H12R19078   5.992   6.233   7.792 -0.3684  1.1540 -1.5608
  169SOPE  H12S19079   5.930   6.063   7.812 -0.0971 -0.1597 -0.2512
  169SOPE  C21319080   5.829   6.201   7.938 -0.1944  0.1981  0.1951
  169SOPE  H13R19081   5.734   6.145   7.947  0.3006 -0.3067  2.5588
  169SOPE  H13S19082   5.793   6.306   7.928 -1.2198 -0.4183 -2.9854
  169SOPE  C21419083   5.915   6.167   8.065 -0.5671  0.3529 -0.2107
  169SOPE  H14R19084   5.993   6.245   8.074  0.8960 -1.1794  0.6938
  169SOPE  H14S19085   5.958   6.066   8.045  0.3036  0.1434  2.5145
  169SOPE  C21519086   5.839   6.142   8.192 -0.2697  0.4736 -0.4141
  169SOPE  H15R19087   5.916   6.099   8.259  0.0199  2.7272  0.7555
  169SOPE  H15S19088   5.766   6.061   8.172  0.1919  0.0900 -0.5426
  169SOPE  C21619089   5.785   6.272   8.253 -0.0647 -0.4262  0.9089
  169SOPE  H16R19090   5.731   6.327   8.173  0.1413 -1.2643  0.1824
  169SOPE  H16S19091   5.869   6.333   8.294  0.0888 -0.5062  0.7183
  169SOPE  C21719092   5.698   6.234   8.362 -0.4702  0.4674  0.2692
  169SOPE  H17R19093   5.748   6.161   8.429 -0.1012  0.1490 -0.3528
  169SOPE  H17S19094   5.619   6.177   8.309  0.0377 -0.0141  0.0144
  169SOPE  C21819095   5.649   6.350   8.450  0.6240  0.2353  0.9933
  169SOPE  H18R19096   5.601   6.315   8.544 -2.0467 -0.1306 -0.4326
  169SOPE  H18S19097   5.575   6.409   8.391  0.7556 -0.7973 -0.2102
  169SOPE  H18T19098   5.737   6.411   8.479  0.1264  1.4037  0.1001
  169SOPE   C3319099   6.149   6.854   6.974  0.1562 -0.2278  0.1532
  169SOPE   H3X19100   6.120   6.747   6.965 -0.3424 -0.0037 -0.9945
  169SOPE   H3Y19101   6.063   6.923   6.994 -0.4689 -1.1147  0.5592
  169SOPE   C3419102   6.248   6.873   7.092 -0.1494 -0.2246 -0.4103
  169SOPE   H4X19103   6.255   6.982   7.112  0.8534 -0.0978 -1.3924
  169SOPE   H4Y19104   6.347   6.835   7.058  1.7239  2.1263  2.2787
  169SOPE   C3519105   6.209   6.785   7.210 -0.3375  0.4484 -0.0851
  169SOPE   H5X19106   6.196   6.681   7.173 -0.1602  0.8946 -1.4199
  169SOPE   H5Y19107   6.112   6.821   7.250 -0.3235  0.5390 -0.1315
  169SOPE   C3619108   6.313   6.800   7.322  0.1583 -0.0201 -0.1407
  169SOPE   H6X19109   6.309   6.909   7.345 -1.7390  0.0142 -0.5569
  169SOPE   H6Y19110   6.417   6.776   7.291  0.7649  0.8709  1.1668
  169SOPE   C3719111   6.268   6.716   7.443  0.1335 -0.9638 -0.3508
  169SOPE   H7X19112   6.356   6.687   7.503  0.3025 -0.6696 -0.4567
  169SOPE   H7Y19113   6.206   6.628   7.415 -0.6876 -0.3401 -0.5306
  169SOPE   C3819114   6.183   6.805   7.540  0.4577  0.5006 -0.3826
  169SOPE   H8X19115   6.229   6.906   7.543  0.0112  0.7320 -0.9713
  169SOPE   H8Y19116   6.092   6.819   7.477  0.0478 -0.6497 -0.0509
  169SOPE   C3919117   6.157   6.749   7.679 -0.3194 -0.1581 -0.0187
  169SOPE   H9X19118   6.064   6.795   7.719 -0.6049  0.8008 -1.7383
  169SOPE   H9Y19119   6.246   6.779   7.739 -0.7429  0.1718  0.4438
  169SOPE  C31019120   6.138   6.593   7.692 -0.4382  0.6469 -0.0245
  169SOPE  H10X19121   6.237   6.542   7.703 -0.5633  0.3390 -0.3327
  169SOPE  H10Y19122   6.085   6.560   7.600  0.8846  2.0863 -1.3397
  169SOPE  C31119123   6.057   6.562   7.826  0.1281 -0.1028 -0.5111
  169SOPE  H11X19124   6.039   6.453   7.828 -0.3505 -0.0304 -0.7757
  169SOPE  H11Y19125   5.965   6.623   7.828  1.3920  1.8368  1.4490
  169SOPE  C31219126   6.136   6.597   7.951 -0.3000 -0.0148 -0.3219
  169SOPE  H12X19127   6.136   6.707   7.967 -0.0412  0.1482 -1.4255
  169SOPE  H12Y19128   6.245   6.577   7.939 -0.0700  0.9976  0.0281
  169SOPE  C31319129   6.080   6.541   8.086 -0.3443  0.2948  0.0171
  169SOPE  H13X19130   6.119   6.440   8.106  2.8471  1.4088 -0.3582
  169SOPE  H13Y19131   5.969   6.541   8.092 -0.3219  0.1774  0.4223
  169SOPE  C31419132   6.119   6.629   8.211 -0.6915 -0.3327 -0.8084
  169SOPE  H14X19133   6.081   6.733   8.202  0.5660  0.1450 -0.7181
  169SOPE  H14Y19134   6.230   6.620   8.210 -0.6445 -0.1409  0.8063
  169SOPE  C31519135   6.085   6.564   8.346  0.4325  0.1857 -0.6606
  169SOPE  H15X19136   5.984   6.519   8.351  0.0359  0.7371 -3.0938
  169SOPE  H15Y19137   6.091   6.645   8.422 -0.1925 -1.4325  1.1520
  169SOPE  C31619138   6.195   6.461   8.393 -0.4054 -0.0866  0.8751
  169SOPE  H16X19139   6.256   6.511   8.471 -0.0406 -1.8330  1.7148
  169SOPE  H16Y19140   6.272   6.442   8.315  0.2088 -0.5300  1.5950
  169SOPE  C31719141   6.142   6.321   8.447  0.2256  0.4529 -0.2832
  169SOPE  H17X19142   6.111   6.260   8.360 -0.6876  1.9203 -1.0122
  169SOPE  H17Y19143   6.053   6.339   8.511 -0.4816  0.8853 -1.3678
  169SOPE  C31819144   6.232   6.232   8.540  0.1476 -0.6366 -0.7686
  169SOPE  H18X19145   6.179   6.136   8.559  1.6567 -1.8715 -2.6707
  169SOPE  H18Y19146   6.248   6.287   8.635 -0.4561  2.3413 -2.3400
  169SOPE  H18Z19147   6.324   6.198   8.489  0.3959  0.0716 -0.7986
  170SOPE     N19148   0.332   5.090   6.156  0.3335  0.1097 -0.1293
  170SOPE   HN119149   0.326   5.108   6.054 -0.1273  0.0769 -0.1075
  170SOPE   HN219150   0.318   5.185   6.196  0.0678 -0.4005  1.0228
  170SOPE   HN319151   0.428   5.061   6.186  2.4654  2.7069 -4.0407
  170SOPE   C1219152   0.227   5.005   6.217  0.2942  0.8776 -0.6326
  170SOPE  H12A19153   0.251   4.898   6.197 -0.8936  0.1261  1.7757
  170SOPE  H12B19154   0.133   5.032   6.166 -1.1391 -0.7996  1.0359
  170SOPE   C1119155   0.223   5.034   6.371 -0.0566 -0.0790 -0.1303
  170SOPE  H11A19156   0.323   5.020   6.417  1.1996  1.3194 -2.3015
  170SOPE  H11B19157   0.152   4.963   6.418 -0.4683  0.5019  0.1330
  170SOPE     P19158   0.019   5.201   6.447  0.0375  0.4178 -0.1128
  170SOPE   O1319159  -0.083   5.168   6.347  0.1120  0.4677 -0.0622
  170SOPE   O1419160   0.023   5.345   6.486  0.8823 -0.1002  0.0269
  170SOPE   O1219161   0.167   5.164   6.388 -0.2298 -0.4560 -0.0121
  170SOPE   O1119162   0.002   5.106   6.571 -0.4851 -0.0062  0.3256
  170SOPE    C119163   0.085   5.122   6.690  0.3981 -0.2239 -0.7536
  170SOPE    HA19164   0.144   5.215   6.706 -1.3222  0.7990 -0.1530
  170SOPE    HB19165   0.147   5.032   6.711  0.5383  0.0864  0.2054
  170SOPE    C219166  -0.010   5.127   6.816 -0.0164  0.7954 -0.2050
  170SOPE    HS19167   0.043   5.155   6.910 -0.4623 -0.2285  0.3582
  170SOPE   O2119168  -0.062   4.993   6.829 -0.5191  0.4037  0.3811
  170SOPE   C2119169  -0.103   4.950   6.946  0.1781  0.3655  1.0191
  170SOPE   O2219170  -0.104   5.015   7.049  0.3773  0.4040  0.3276
  170SOPE   C2219171  -0.148   4.800   6.933 -0.4613  0.0565 -0.8537
  170SOPE   H2R19172  -0.079   4.737   6.872 -1.0146 -0.8455 -0.5540
  170SOPE   H2S19173  -0.246   4.803   6.880 -0.6345  1.0062 -0.4821
  170SOPE    C319174  -0.127   5.233   6.795 -0.1940  0.0983 -0.0952
  170SOPE    HX19175  -0.191   5.192   6.714  0.6825  1.3009 -1.4065
  170SOPE    HY19176  -0.084   5.328   6.758 -2.2519  0.9695 -0.3123
  170SOPE   O3119177  -0.202   5.265   6.916  0.2000 -0.0177 -0.3389
  170SOPE   C3119178  -0.139   5.337   7.010 -0.2388  0.5243  0.0695
  170SOPE   O3219179  -0.039   5.403   6.989  1.0569  0.9150 -0.4539
  170SOPE   C3219180  -0.214   5.323   7.140 -0.1039 -1.0330 -1.2125
  170SOPE   H2X19181  -0.289   5.243   7.123  0.3426 -1.5296 -0.8833
  170SOPE   H2Y19182  -0.273   5.414   7.162 -1.7783 -2.6009  1.1168
  170SOPE   C2319183  -0.170   4.722   7.067 -0.8764  0.4611  0.6419
  170SOPE   H3R19184  -0.223   4.627   7.043 -2.5792  1.5823 -0.2306
  170SOPE   H3S19185  -0.235   4.774   7.141  0.2762  1.3769  1.0177
  170SOPE   C2419186  -0.033   4.685   7.122  0.4881  0.0820 -0.0750
  170SOPE   H4R19187   0.034   4.642   7.044  3.8272  1.8002  1.7249
  170SOPE   H4S19188   0.004   4.777   7.171  2.7713  0.7871 -3.0167
  170SOPE   C2519189  -0.042   4.583   7.246  0.6006 -0.0042  0.1625
  170SOPE   H5R19190  -0.087   4.488   7.212  0.4309  0.1189  0.0405
  170SOPE   H5S19191   0.062   4.583   7.286  0.1753  4.6496  1.6372
  170SOPE   C2619192  -0.149   4.625   7.350 -0.3898 -0.6551  0.9304
  170SOPE   H6R19193  -0.128   4.728   7.386 -0.1052 -0.8371  1.2931
  170SOPE   H6S19194  -0.244   4.607   7.297 -0.7510 -1.3598  1.8047
  170SOPE   C2719195  -0.162   4.535   7.478 -0.3053 -0.3926  0.0295
  170SOPE   H7R19196  -0.216   4.593   7.556 -1.5632 -1.4578 -0.0233
  170SOPE   H7S19197  -0.215   4.449   7.430  2.2103 -0.2696 -3.1646
  170SOPE   C2819198  -0.026   4.472   7.522  0.0755 -0.6259  0.3035
  170SOPE   H8R19199   0.031   4.428   7.437  0.9751  0.3891  0.3695
  170SOPE   H8S19200   0.044   4.556   7.544  0.0161 -0.2214 -0.9999
  170SOPE   C2919201  -0.028   4.385   7.641  0.7435  0.0773  0.0805
  170SOPE   H9119202  -0.050   4.278   7.628 -1.1739  0.5780 -1.0435
  170SOPE  C21019203  -0.013   4.423   7.768  0.0191  0.1957 -0.1126
  170SOPE  H10119204  -0.035   4.343   7.841  1.5898 -0.1492 -0.0124
  170SOPE  C21119205   0.002   4.566   7.822  0.0612 -0.0243  0.6593
  170SOPE  H11R19206   0.007   4.634   7.734  2.3640 -1.9057 -0.7136
  170SOPE  H11S19207   0.101   4.575   7.872  0.2833  2.0720 -0.0948
  170SOPE  C21219208  -0.109   4.611   7.918  0.2638 -0.1647 -0.0107
  170SOPE  H12R19209  -0.209   4.586   7.877 -0.7007  1.9382  0.9448
  170SOPE  H12S19210  -0.109   4.722   7.916 -1.6746 -0.1769 -2.4983
  170SOPE  C21319211  -0.090   4.583   8.065 -0.0719 -0.4308 -0.3379
  170SOPE  H13R19212  -0.141   4.663   8.123  0.6496  0.4762 -0.9509
  170SOPE  H13S19213   0.020   4.594   8.077  0.0174  0.2757 -1.8167
  170SOPE  C21419214  -0.126   4.437   8.111  0.4538 -0.4552 -0.4966
  170SOPE  H14R19215  -0.064   4.360   8.060 -1.0093 -1.7430 -0.3649
  170SOPE  H14S19216  -0.230   4.424   8.077 -0.9514  0.0279  3.3486
  170SOPE  C21519217  -0.130   4.415   8.268 -0.0602  0.0671  0.0794
  170SOPE  H15R19218  -0.193   4.493   8.316  2.0455  1.2066  1.1015
  170SOPE  H15S19219  -0.030   4.448   8.305  0.1353 -0.7368  0.2737
  170SOPE  C21619220  -0.173   4.280   8.319 -0.3081  0.3155 -0.6361
  170SOPE  H16R19221  -0.130   4.193   8.265  1.0794  0.9660 -0.5911
  170SOPE  H16S19222  -0.283   4.283   8.304 -0.3126  1.2523 -0.4239
  170SOPE  C21719223  -0.144   4.262   8.469 -0.4982  0.4376  0.1466
  170SOPE  H17R19224  -0.036   4.250   8.492 -0.7234 -0.3192  0.8319
  170SOPE  H17S19225  -0.197   4.170   8.501  0.1917 -0.0652 -0.1317
  170SOPE  C21819226  -0.180   4.383   8.562  0.2085 -0.1970  0.4213
  170SOPE  H18R19227  -0.271   4.431   8.519  0.5163 -0.6356 -0.7430
  170SOPE  H18S19228  -0.108   4.467   8.560  1.0128 -0.8957 -1.7143
  170SOPE  H18T19229  -0.198   4.333   8.659  0.0597 -2.1099 -0.5622
  170SOPE   C3319230  -0.117   5.300   7.256  0.5241  0.1727 -0.5798
  170SOPE   H3X19231  -0.051   5.389   7.263 -0.2632  0.8638 -1.7149
  170SOPE   H3Y19232  -0.053   5.210   7.243  2.0670  0.9246  1.5423
  170SOPE   C3419233  -0.185   5.308   7.396  0.2894  0.6205 -0.3285
  170SOPE   H4X19234  -0.246   5.400   7.386 -0.3123  0.2070 -0.4828
  170SOPE   H4Y19235  -0.103   5.318   7.470 -0.1300  1.1012  0.0785
  170SOPE   C3519236  -0.269   5.181   7.418 -0.3239  0.3911  0.2587
  170SOPE   H5X19237  -0.205   5.091   7.404 -0.5124  0.1737  0.7836
  170SOPE   H5Y19238  -0.347   5.186   7.339 -0.2121 -5.2633 -0.4510
  170SOPE   C3619239  -0.328   5.169   7.557 -1.0825  0.4970  0.2714
  170SOPE   H6X19240  -0.391   5.258   7.577  1.7572  2.3930  1.1627
  170SOPE   H6Y19241  -0.242   5.176   7.627 -0.6898 -0.2788 -0.1253
  170SOPE   C3719242  -0.397   5.035   7.577  0.0909 -0.1585 -0.6364
  170SOPE   H7X19243  -0.324   4.955   7.554 -0.3030 -0.8515  0.4891
  170SOPE   H7Y19244  -0.471   5.021   7.495  2.5588  1.0463 -3.1315
  170SOPE   C3819245  -0.468   5.008   7.707  0.5139 -0.0500 -0.1899
  170SOPE   H8X19246  -0.536   4.921   7.698 -0.6849  0.7153  1.2555
  170SOPE   H8Y19247  -0.538   5.091   7.731  0.6525  0.3643 -1.1822
  170SOPE   C3919248  -0.371   4.998   7.824 -0.0156 -0.4126  0.3035
  170SOPE   H9X19249  -0.307   5.089   7.833  0.8896 -1.0786  0.6657
  170SOPE   H9Y19250  -0.308   4.909   7.802  1.9947  0.6645  1.5168
  170SOPE  C31019251  -0.424   4.972   7.964 -0.4672  0.4764  1.1000
  170SOPE  H10X19252  -0.473   4.873   7.965 -0.8251  0.6362  0.2415
  170SOPE  H10Y19253  -0.486   5.060   7.989  0.6097  1.5033  0.2396
  170SOPE  C31119254  -0.314   4.976   8.080  0.1281 -0.1124 -0.0105
  170SOPE  H11X19255  -0.265   5.076   8.070  1.0890 -0.8874 -4.3038
  170SOPE  H11Y19256  -0.232   4.910   8.044 -0.9253 -2.0909  1.2054
  170SOPE  C31219257  -0.365   4.955   8.217 -0.2469  0.0900 -0.2511
  170SOPE  H12X19258  -0.445   4.878   8.223  0.2148 -0.2963  1.0431
  170SOPE  H12Y19259  -0.409   5.047   8.260  2.7437  1.9130 -0.9430
  170SOPE  C31319260  -0.244   4.925   8.307 -0.2026  0.0198  0.7005
  170SOPE  H13X19261  -0.166   5.002   8.292 -0.4645  0.1997  0.2537
  170SOPE  H13Y19262  -0.204   4.827   8.272  1.8616  0.4151  1.8769
  170SOPE  C31419263  -0.273   4.914   8.459 -0.5915  0.2276 -0.0861
  170SOPE  H14X19264  -0.372   4.867   8.477 -0.5562 -0.3811 -1.4149
  170SOPE  H14Y19265  -0.279   5.019   8.494  0.6929  0.3810 -0.2881
  170SOPE  C31519266  -0.153   4.842   8.533 -0.5868  0.1166 -0.3767
  170SOPE  H15X19267  -0.064   4.907   8.541  1.6186 -2.9122  0.4970
  170SOPE  H15Y19268  -0.115   4.761   8.467  3.9431  1.2335  0.7202
  170SOPE  C31619269  -0.186   4.779   8.678  0.0800  0.5077  0.4426
  170SOPE  H16X19270  -0.102   4.714   8.710 -0.0918  0.4094  0.6918
  170SOPE  H16Y19271  -0.273   4.713   8.658  0.1587  0.0072  1.7377
  170SOPE  C31719272  -0.225   4.874   8.793 -0.3708  0.4129  0.1206
  170SOPE  H17X19273  -0.272   4.820   8.879  0.0700  1.1983  0.8573
  170SOPE  H17Y19274  -0.289   4.958   8.758 -0.0644  0.7196  0.3049
  170SOPE  C31819275  -0.093   4.928   8.846 -0.0997 -0.2584 -0.2179
  170SOPE  H18X19276  -0.028   4.843   8.877  2.6018  1.7527 -0.1478
  170SOPE  H18Y19277  -0.109   4.982   8.942 -0.6748 -0.6526 -0.0934
  170SOPE  H18Z19278  -0.039   4.992   8.773  3.0619 -1.4567  0.9446
  171SOPE     N19279   0.321   2.065   6.205 -0.1531 -0.2381  0.0751
  171SOPE   HN119280   0.314   1.990   6.133 -0.4222 -3.5043  3.3231
  171SOPE   HN219281   0.256   2.143   6.187 -0.7360 -0.4740  1.1168
  171SOPE   HN319282   0.414   2.111   6.198 -0.2164 -0.4904 -3.2410
  171SOPE   C1219283   0.304   1.997   6.337  0.5031  0.3839 -0.4215
  171SOPE  H12A19284   0.272   2.077   6.407  0.9460 -0.1620  0.4131
  171SOPE  H12B19285   0.397   1.946   6.369 -0.5544  1.1890  4.3761
  171SOPE   C1119286   0.197   1.884   6.331  0.0262 -0.0940 -0.3784
  171SOPE  H11A19287   0.111   1.954   6.321 -0.5050 -0.7565 -0.4492
  171SOPE  H11B19288   0.181   1.842   6.432  2.5810 -0.4296 -0.0927
  171SOPE     P19289   0.294   1.659   6.254 -0.2004  0.5937  0.5450
  171SOPE   O1319290   0.410   1.660   6.166  0.0500  0.0028 -0.2762
  171SOPE   O1419291   0.201   1.549   6.226  0.6192 -0.0553 -0.1530
  171SOPE   O1219292   0.217   1.796   6.228 -0.4961 -0.0151  0.0932
  171SOPE   O1119293   0.340   1.650   6.405  0.8004 -0.6196  0.5427
  171SOPE    C119294   0.306   1.536   6.490 -0.9347  0.5512 -0.3435
  171SOPE    HA19295   0.366   1.542   6.584 -1.3488  1.3435 -0.1185
  171SOPE    HB19296   0.337   1.445   6.435 -0.4416  1.0381 -0.8801
  171SOPE    C219297   0.158   1.539   6.532  0.0918  0.6016  0.6374
  171SOPE    HS19298   0.095   1.512   6.443  0.0222  0.0813  0.8387
  171SOPE   O2119299   0.129   1.673   6.585 -0.6231  0.3127 -0.6092
  171SOPE   C2119300  -0.004   1.686   6.601 -0.3830 -0.2865  0.3866
  171SOPE   O2219301  -0.087   1.616   6.547 -0.2282 -0.2283 -0.5364
  171SOPE   C2219302  -0.023   1.787   6.717 -0.2071  0.1176 -0.1958
  171SOPE   H2R19303  -0.000   1.891   6.684  0.1495  0.3895  0.9015
  171SOPE   H2S19304   0.045   1.761   6.800  2.2956  3.2024 -1.1577
  171SOPE    C319305   0.128   1.423   6.645  0.3477  0.1161 -0.2828
  171SOPE    HX19306   0.092   1.330   6.596  0.6313 -0.9589  1.4956
  171SOPE    HY19307   0.036   1.455   6.699  0.4638 -0.8412  0.4915
  171SOPE   O3119308   0.229   1.414   6.752 -0.1904  0.0726  0.3704
  171SOPE   C3119309   0.292   1.297   6.746 -0.0260  0.6392  0.2945
  171SOPE   O3219310   0.283   1.222   6.645  0.2194  0.1265  0.0544
  171SOPE   C3219311   0.367   1.278   6.870  0.1872  0.6548  0.4507
  171SOPE   H2X19312   0.300   1.303   6.955  2.2889  0.4628  2.1996
  171SOPE   H2Y19313   0.444   1.358   6.873  0.0278  0.8967 -1.2681
  171SOPE   C2319314  -0.168   1.778   6.784  0.3216 -0.8194 -0.0114
  171SOPE   H3R19315  -0.185   1.673   6.816 -1.3573 -1.1376 -1.8343
  171SOPE   H3S19316  -0.238   1.802   6.701 -0.0155 -0.7943  0.2740
  171SOPE   C2419317  -0.189   1.860   6.906 -0.0025 -0.1357  0.4704
  171SOPE   H4R19318  -0.151   1.963   6.889 -0.1332 -0.1822 -0.1533
  171SOPE   H4S19319  -0.297   1.859   6.932 -0.2398 -1.7423 -0.5276
  171SOPE   C2519320  -0.115   1.799   7.026 -0.6000 -0.0908  0.4320
  171SOPE   H5R19321  -0.150   1.694   7.039 -1.9136  0.4460  1.3663
  171SOPE   H5S19322  -0.006   1.793   7.009 -0.8818  0.2326 -1.5444
  171SOPE   C2619323  -0.144   1.865   7.159  0.0753 -0.7322 -0.5323
  171SOPE   H6R19324  -0.128   1.975   7.159 -0.4299 -0.6580 -0.1875
  171SOPE   H6S19325  -0.247   1.842   7.195  1.4257 -1.1325  3.2739
  171SOPE   C2719326  -0.043   1.818   7.264  0.4223 -0.3075  0.0014
  171SOPE   H7R19327  -0.058   1.708   7.278  1.2916 -0.0743  3.0413
  171SOPE   H7S19328   0.062   1.835   7.232 -0.8333 -0.5639 -4.6184
  171SOPE   C2819329  -0.069   1.895   7.389  0.0541  1.1932 -0.0126
  171SOPE   H8R19330  -0.039   2.002   7.382  2.0549  0.5939 -0.8642
  171SOPE   H8S19331  -0.179   1.878   7.401  0.7800 -3.5014  0.8884
  171SOPE   C2919332  -0.008   1.824   7.510 -0.0142 -0.1206 -0.1100
  171SOPE   H9119333   0.097   1.801   7.489  0.6247 -0.9734  3.5879
  171SOPE  C21019334  -0.043   1.806   7.640 -0.7489  1.1626  0.8024
  171SOPE  H10119335   0.016   1.745   7.710 -0.9027  1.4505  1.1838
  171SOPE  C21119336  -0.166   1.858   7.711 -0.5306  0.2011 -0.3649
  171SOPE  H11R19337  -0.257   1.795   7.698 -0.0496 -0.8523  1.2002
  171SOPE  H11S19338  -0.181   1.962   7.675 -0.4880  0.9309  1.6651
  171SOPE  C21219339  -0.146   1.869   7.864 -0.1019 -0.0782 -0.0392
  171SOPE  H12R19340  -0.237   1.921   7.903 -0.0514  1.2098 -1.5624
  171SOPE  H12S19341  -0.052   1.923   7.886  1.1170 -2.7693  1.5324
  171SOPE  C21319342  -0.115   1.739   7.943  0.6358 -0.6397  0.0224
  171SOPE  H13R19343  -0.035   1.680   7.894 -0.4481 -0.8543 -1.5386
  171SOPE  H13S19344  -0.201   1.670   7.927  0.8350 -1.0195  0.5533
  171SOPE  C21419345  -0.089   1.764   8.092 -0.4097 -0.0233 -0.0925
  171SOPE  H14R19346  -0.131   1.677   8.146  1.0020 -1.1629 -0.8057
  171SOPE  H14S19347  -0.158   1.845   8.125 -0.5246 -0.3123  0.3652
  171SOPE  C21519348   0.056   1.787   8.127  0.1174  0.5228 -0.4176
  171SOPE  H15R19349   0.108   1.872   8.078  2.0425 -0.7887 -0.6959
  171SOPE  H15S19350   0.112   1.694   8.103  1.3542  0.1991  3.4224
  171SOPE  C21619351   0.072   1.812   8.278  0.9795  0.0070  0.5224
  171SOPE  H16R19352   0.023   1.734   8.339  0.3463 -0.3461 -0.4267
  171SOPE  H16S19353   0.019   1.908   8.299 -0.2563 -0.2862 -1.1273
  171SOPE  C21719354   0.212   1.835   8.333 -0.2618  0.0114  0.6664
  171SOPE  H17R19355   0.201   1.887   8.431 -2.7494  2.5984 -0.9231
  171SOPE  H17S19356   0.271   1.902   8.267 -1.8920 -0.2069 -1.0502
  171SOPE  C21819357   0.301   1.709   8.353  0.8321  0.1776 -0.1615
  171SOPE  H18R19358   0.331   1.660   8.258  2.7277  1.9974 -0.5314
  171SOPE  H18S19359   0.242   1.637   8.414  0.8938  0.3428  0.0925
  171SOPE  H18T19360   0.388   1.738   8.415  0.8154 -0.9264  0.3871
  171SOPE   C3319361   0.434   1.136   6.889  0.9157 -0.0540 -0.4295
  171SOPE   H3X19362   0.541   1.144   6.919  0.8858 -1.8243  0.1626
  171SOPE   H3Y19363   0.452   1.092   6.789 -1.6242 -0.0757 -0.8982
  171SOPE   C3419364   0.362   1.042   6.990 -0.7017 -0.2454 -0.9103
  171SOPE   H4X19365   0.407   0.944   6.963  0.2969 -0.0691  0.0608
  171SOPE   H4Y19366   0.253   1.040   6.965 -0.7186  0.5136 -0.8924
  171SOPE   C3519367   0.389   1.087   7.137 -0.2474  0.0834 -0.1975
  171SOPE   H5X19368   0.362   1.194   7.140 -0.0265  0.1435 -0.3360
  171SOPE   H5Y19369   0.495   1.077   7.172 -0.7656 -2.2842  0.7975
  171SOPE   C3619370   0.302   0.992   7.226  0.0307  0.6781 -0.5169
  171SOPE   H6X19371   0.351   0.892   7.222  1.8225  1.5789 -1.8006
  171SOPE   H6Y19372   0.206   0.993   7.170 -0.9431  1.3871  1.1465
  171SOPE   C3719373   0.283   1.041   7.372 -0.4008  0.1990  0.1343
  171SOPE   H7X19374   0.193   1.106   7.375 -1.0696 -0.7672  1.7598
  171SOPE   H7Y19375   0.374   1.091   7.411  1.2270 -2.3019 -0.3193
  171SOPE   C3819376   0.250   0.933   7.479 -0.2015  0.4189  0.5181
  171SOPE   H8X19377   0.332   0.859   7.492  1.7312  2.4659  0.4190
  171SOPE   H8Y19378   0.157   0.878   7.455  0.0140  0.1129  0.3760
  171SOPE   C3919379   0.232   0.993   7.619  0.3749 -0.1589 -0.1781
  171SOPE   H9X19380   0.184   1.092   7.607  1.4089  0.5226  1.1595
  171SOPE   H9Y19381   0.336   1.029   7.634  0.5440  0.8430 -3.4518
  171SOPE  C31019382   0.199   0.905   7.739 -0.1480 -0.1211  0.4568
  171SOPE  H10X19383   0.281   0.830   7.749 -0.6743 -0.9846 -1.4002
  171SOPE  H10Y19384   0.107   0.851   7.709  1.0492 -1.6807 -0.5046
  171SOPE  C31119385   0.172   0.990   7.864 -0.4125  0.8960 -0.1306
  171SOPE  H11X19386   0.077   1.047   7.855 -0.4985  0.6922 -0.5111
  171SOPE  H11Y19387   0.247   1.068   7.891  0.2759  1.1833 -2.7197
  171SOPE  C31219388   0.157   0.900   7.984 -0.3639  0.2305  0.0246
  171SOPE  H12X19389   0.246   0.833   7.992 -1.0316 -0.9630 -2.3712
  171SOPE  H12Y19390   0.072   0.831   7.965 -1.0535  0.7602  1.1551
  171SOPE  C31319391   0.123   0.971   8.120  0.5599 -0.2232 -0.3012
  171SOPE  H13X19392   0.046   1.050   8.104  0.4543 -0.1884  0.3573
  171SOPE  H13Y19393   0.215   1.026   8.150  1.4935 -3.7236  3.8755
  171SOPE  C31419394   0.095   0.876   8.235 -0.3747 -0.9305  0.2885
  171SOPE  H14X19395   0.087   0.931   8.331 -1.2641 -0.3271 -0.1310
  171SOPE  H14Y19396   0.179   0.803   8.239  2.1804  1.9546  0.5267
  171SOPE  C31519397  -0.037   0.806   8.201  0.3631  0.2944  0.1915
  171SOPE  H15X19398  -0.016   0.742   8.113 -0.6904 -0.3825  0.4210
  171SOPE  H15Y19399  -0.120   0.874   8.171  0.8485  0.4101 -0.9203
  171SOPE  C31619400  -0.080   0.721   8.319  0.3726  0.3038 -0.2709
  171SOPE  H16X19401  -0.087   0.781   8.412  0.1676  2.4223 -1.6127
  171SOPE  H16Y19402  -0.003   0.649   8.351 -2.0307 -0.8606  3.1352
  171SOPE  C31719403  -0.206   0.628   8.304 -0.4822 -0.6045 -0.4782
  171SOPE  H17X19404  -0.172   0.550   8.232  2.3367 -0.6563  0.8734
  171SOPE  H17Y19405  -0.298   0.673   8.260  1.3219  2.4063 -1.2914
  171SOPE  C31819406  -0.232   0.550   8.436 -0.6972  0.0661  0.5275
  171SOPE  H18X19407  -0.277   0.450   8.420 -2.1291  0.5399  1.4782
  171SOPE  H18Y19408  -0.288   0.608   8.513 -1.4640  0.5748 -0.3956
  171SOPE  H18Z19409  -0.131   0.532   8.478 -0.7368 -3.7444 -0.8801
  172SOPE     N19410   0.455   2.621   6.433  0.0131  0.3601  0.6967
  172SOPE   HN119411   0.351   2.624   6.429  0.0913  1.0796 -1.4529
  172SOPE   HN219412   0.499   2.702   6.386 -0.1029 -0.6721 -1.2333
  172SOPE   HN319413   0.485   2.530   6.394 -0.0772  1.1947 -1.3858
  172SOPE   C1219414   0.511   2.627   6.575  0.9346 -0.2707 -0.8084
  172SOPE  H12A19415   0.466   2.555   6.646  0.3770 -1.5750 -2.4486
  172SOPE  H12B19416   0.478   2.724   6.619 -1.7929 -1.3308 -0.4289
  172SOPE   C1119417   0.659   2.629   6.578  0.1190 -0.4974 -0.1578
  172SOPE  H11A19418   0.682   2.524   6.550 -2.3392 -0.9381 -0.6638
  172SOPE  H11B19419   0.698   2.634   6.682  0.6623 -1.5630 -0.2964
  172SOPE     P19420   0.858   2.764   6.483  0.2275  0.4118 -0.0737
  172SOPE   O1319421   0.881   2.870   6.381  0.0715 -0.1490  0.4335
  172SOPE   O1419422   0.920   2.630   6.456  0.2948  0.3164  0.3478
  172SOPE   O1219423   0.704   2.742   6.499 -0.1315 -0.5436  0.3749
  172SOPE   O1119424   0.919   2.815   6.628  0.1197 -0.1415  0.1049
  172SOPE    C119425   0.884   2.954   6.670 -0.1623  0.2682 -0.6791
  172SOPE    HA19426   0.779   2.987   6.656 -0.3672  0.5782  1.4036
  172SOPE    HB19427   0.947   3.027   6.615  1.0438 -1.2336 -1.3087
  172SOPE    C219428   0.930   2.968   6.820  0.3975 -0.0542  0.6083
  172SOPE    HS19429   1.038   2.993   6.832 -0.4493  4.0323  0.3711
  172SOPE   O2119430   0.930   2.845   6.886 -0.6338 -0.0391 -0.4008
  172SOPE   C2119431   0.812   2.798   6.914 -0.5648  0.1327  0.7504
  172SOPE   O2219432   0.703   2.837   6.876  0.1999  0.0809  0.0591
  172SOPE   C2219433   0.841   2.693   7.021  1.2631 -0.4152  0.2709
  172SOPE   H2R19434   0.940   2.651   6.995  1.5578  0.2402  0.3343
  172SOPE   H2S19435   0.755   2.623   7.016  2.1427 -1.4351 -0.8835
  172SOPE    C319436   0.853   3.085   6.894 -0.5410  0.3167  0.3413
  172SOPE    HX19437   0.748   3.085   6.857 -0.2041  2.2786 -0.7191
  172SOPE    HY19438   0.916   3.174   6.873  1.3161 -1.4594 -1.9298
  172SOPE   O3119439   0.843   3.070   7.041 -0.4514  0.4233 -0.0824
  172SOPE   C3119440   0.916   3.161   7.113  0.0078  0.2280  0.8471
  172SOPE   O3219441   0.990   3.246   7.077 -0.1330  0.3052 -0.1940
  172SOPE   C3219442   0.874   3.145   7.259 -0.1140  0.6686 -0.3856
  172SOPE   H2X19443   0.815   3.052   7.276  1.0321  0.1414  0.7181
  172SOPE   H2Y19444   0.813   3.232   7.290 -0.2911  0.5642 -0.4354
  172SOPE   C2319445   0.845   2.753   7.169 -0.0151 -0.1796  0.8452
  172SOPE   H3R19446   0.750   2.808   7.185 -1.3491 -2.2570  0.2786
  172SOPE   H3S19447   0.926   2.829   7.175  0.6575 -0.7532 -0.8167
  172SOPE   C2419448   0.869   2.662   7.291 -0.4126 -0.3107 -0.1289
  172SOPE   H4R19449   0.784   2.591   7.304 -0.6337  0.3585  2.4722
  172SOPE   H4S19450   0.964   2.608   7.267 -0.8075 -2.0131  1.9120
  172SOPE   C2519451   0.861   2.753   7.411  0.4846  0.2222  0.4150
  172SOPE   H5R19452   0.934   2.837   7.418  0.2994  0.2339  2.5365
  172SOPE   H5S19453   0.759   2.797   7.404  0.8133  0.5988 -2.9428
  172SOPE   C2619454   0.895   2.680   7.540  0.7859  0.6479 -0.0618
  172SOPE   H6R19455   0.819   2.606   7.573  1.6997  1.3233  3.8432
  172SOPE   H6S19456   0.990   2.625   7.522  0.3889  0.5772 -2.0118
  172SOPE   C2719457   0.917   2.771   7.656 -0.0411  0.1079 -0.1351
  172SOPE   H7R19458   1.005   2.838   7.642 -0.8450  0.4147 -4.1851
  172SOPE   H7S19459   0.834   2.844   7.666 -0.9861 -1.1126  1.3485
  172SOPE   C2819460   0.927   2.694   7.790 -0.0318  0.9582  0.5990
  172SOPE   H8R19461   0.834   2.633   7.793  0.1770  0.3359 -3.2868
  172SOPE   H8S19462   1.012   2.623   7.787 -0.3528  0.6379 -3.1110
  172SOPE   C2919463   0.933   2.785   7.908  0.0161 -0.2655 -0.3360
  172SOPE   H9119464   1.025   2.845   7.914 -0.8768  0.9989  1.0371
  172SOPE  C21019465   0.854   2.792   8.019  0.2080  0.2097 -0.4629
  172SOPE  H10119466   0.880   2.852   8.107 -0.1789  0.8797 -0.8065
  172SOPE  C21119467   0.733   2.698   8.049  0.4813  0.0225 -0.0210
  172SOPE  H11R19468   0.703   2.641   7.959  1.3688  0.7393 -0.7751
  172SOPE  H11S19469   0.651   2.766   8.080 -0.7891  0.1168 -3.4686
  172SOPE  C21219470   0.762   2.609   8.178  0.4714 -0.5575 -0.0766
  172SOPE  H12R19471   0.851   2.544   8.163 -0.1410 -1.6049  0.7514
  172SOPE  H12S19472   0.675   2.540   8.186  0.7775 -0.7454  1.8592
  172SOPE  C21319473   0.746   2.678   8.317  0.2623 -0.2716  0.2694
  172SOPE  H13R19474   0.638   2.695   8.338  0.0122  0.9533 -1.7775
  172SOPE  H13S19475   0.800   2.775   8.314  2.0348 -1.1062  3.3943
  172SOPE  C21419476   0.820   2.607   8.441  0.1917  0.1936  0.2008
  172SOPE  H14R19477   0.811   2.679   8.525 -1.0031 -0.2902  0.4965
  172SOPE  H14S19478   0.928   2.587   8.427  0.1481  0.7112 -0.9350
  172SOPE  C21519479   0.739   2.484   8.481  0.4790  0.4866 -0.4792
  172SOPE  H15R19480   0.795   2.420   8.552  1.7102  2.5366  0.4026
  172SOPE  H15S19481   0.720   2.432   8.384  1.1704 -3.0920  1.2148
  172SOPE  C21619482   0.598   2.508   8.530 -0.5150  0.1284 -0.2550
  172SOPE  H16R19483   0.520   2.518   8.451 -1.5468  0.1200  0.7470
  172SOPE  H16S19484   0.599   2.602   8.589 -0.5685  0.0725 -0.1643
  172SOPE  C21719485   0.545   2.392   8.616  0.0950 -0.3258  0.2229
  172SOPE  H17R19486   0.623   2.355   8.685 -0.6685 -3.7299 -0.6269
  172SOPE  H17S19487   0.512   2.306   8.554 -3.9564  0.7178  0.7207
  172SOPE  C21819488   0.412   2.430   8.684  0.0210 -0.1145 -0.2629
  172SOPE  H18R19489   0.340   2.423   8.600 -0.3566 -0.5440  0.0931
  172SOPE  H18S19490   0.403   2.525   8.741 -2.1448 -0.3398 -0.1665
  172SOPE  H18T19491   0.387   2.357   8.765 -0.5090  0.1634 -0.1702
  172SOPE   C3319492   0.989   3.145   7.351  0.0434  0.2679 -0.3833
  172SOPE   H3X19493   1.062   3.228   7.343  1.5144 -0.6430  2.7678
  172SOPE   H3Y19494   1.051   3.054   7.336  1.9066  1.5865 -0.8449
  172SOPE   C3419495   0.958   3.144   7.504 -0.0321  0.4630 -0.3427
  172SOPE   H4X19496   0.891   3.064   7.541  2.0682 -0.6660  1.0680
  172SOPE   H4Y19497   0.904   3.239   7.523 -0.7965 -0.2936  1.3333
  172SOPE   C3519498   1.086   3.143   7.590  0.7449 -0.4542 -0.0187
  172SOPE   H5X19499   1.141   3.239   7.579  1.1509 -0.6668  0.1589
  172SOPE   H5Y19500   1.154   3.064   7.552  0.0796 -0.2569 -1.6636
  172SOPE   C3619501   1.038   3.134   7.739  0.5815  0.0616  0.2140
  172SOPE   H6X19502   0.960   3.057   7.754 -0.7942  1.2118 -0.8598
  172SOPE   H6Y19503   0.999   3.236   7.760  1.0978  0.4218 -0.5488
  172SOPE   C3719504   1.157   3.088   7.823  0.4580 -0.3022 -0.1273
  172SOPE   H7X19505   1.248   3.143   7.793  0.3517 -0.2269 -0.3132
  172SOPE   H7Y19506   1.174   2.982   7.792  0.1760 -0.6552  0.9069
  172SOPE   C3819507   1.136   3.090   7.974  0.1509 -0.4752 -0.1206
  172SOPE   H8X19508   1.030   3.061   7.994  0.2024 -1.1701 -0.8462
  172SOPE   H8Y19509   1.132   3.200   7.994 -1.8337 -0.2119 -1.7311
  172SOPE   C3919510   1.238   3.008   8.059 -0.2958 -0.3546  0.1634
  172SOPE   H9X19511   1.340   3.041   8.031 -0.6189  1.0723  0.5844
  172SOPE   H9Y19512   1.218   2.901   8.039  0.9182 -0.1037 -2.6347
  172SOPE  C31019513   1.235   3.031   8.210  0.3471  0.0547  0.1276
  172SOPE  H10X19514   1.251   3.140   8.224  0.3377  0.0510  0.1664
  172SOPE  H10Y19515   1.318   2.972   8.255 -1.3981 -1.7258  1.0981
  172SOPE  C31119516   1.106   2.981   8.278  0.0469  0.9726  0.3260
  172SOPE  H11X19517   1.087   2.873   8.260 -1.2294  1.4454 -1.2984
  172SOPE  H11Y19518   1.028   3.025   8.212  0.4376 -1.1148 -1.5741
  172SOPE  C31219519   1.092   3.027   8.425  0.1878  0.2004 -0.4850
  172SOPE  H12X19520   0.989   3.048   8.460  0.0429  0.8796 -1.3215
  172SOPE  H12Y19521   1.158   3.116   8.438  0.8836 -0.3799 -0.0100
  172SOPE  C31319522   1.165   2.924   8.512  0.4367 -0.3762  0.0078
  172SOPE  H13X19523   1.275   2.927   8.494  0.4630 -1.1565  0.0198
  172SOPE  H13Y19524   1.127   2.820   8.505 -2.8098  0.8186 -0.7105
  172SOPE  C31419525   1.132   2.955   8.655  0.1462 -0.5298  0.4032
  172SOPE  H14X19526   1.026   2.925   8.671 -0.2296 -0.3544 -1.6168
  172SOPE  H14Y19527   1.151   3.063   8.673  0.5339 -0.5901  0.3689
  172SOPE  C31519528   1.219   2.882   8.759  0.6525  0.5134  0.7380
  172SOPE  H15X19529   1.328   2.882   8.736  0.6121 -1.8356  0.4196
  172SOPE  H15Y19530   1.184   2.778   8.778  0.9562  0.6883  2.3647
  172SOPE  C31619531   1.202   2.951   8.895 -0.6264  0.1509 -0.3312
  172SOPE  H16X19532   1.095   2.965   8.919 -0.1917 -0.0661  1.8234
  172SOPE  H16Y19533   1.236   3.055   8.877 -1.0038  0.2786 -0.3111
  172SOPE  C31719534   1.272   2.875   9.011  0.3676 -0.1688  0.0034
  172SOPE  H17X19535   1.375   2.853   8.974 -1.0504 -0.6701 -3.8350
  172SOPE  H17Y19536   1.225   2.775   9.020 -0.4178  0.2874  1.1488
  172SOPE  C31819537   1.270   2.954   9.141  0.1481 -0.0067 -0.0724
  172SOPE  H18X19538   1.332   3.047   9.140 -3.4516  2.5009 -2.3239
  172SOPE  H18Y19539   1.319   2.885   9.213 -1.8655 -0.7957  0.5607
  172SOPE  H18Z19540   1.163   2.967   9.165 -0.3906 -0.0405 -2.2939
  173SAPI   C1219541   2.541   0.559  11.106  0.8722 -0.4803 -0.4692
  173SAPI    H219542   2.628   0.496  11.076  0.9299 -0.4846 -0.2893
  173SAPI    O219543   2.424   0.474  11.094  0.2075  0.6154  0.4833
  173SAPI   HO219544   2.457   0.393  11.054 -1.9355 -0.2713  0.4608
  173SAPI   C1319545   2.551   0.616  11.243  0.1147  0.6174 -0.3575
  173SAPI    H319546   2.640   0.683  11.246  0.7823 -0.3126  2.8030
  173SAPI    O319547   2.575   0.512  11.345 -0.2456  0.0544 -0.2901
  173SAPI   HO319548   2.654   0.538  11.393  0.4896 -1.8722 -0.4032
  173SAPI   C1419549   2.423   0.689  11.285 -0.1768  0.3468 -0.4776
  173SAPI    H419550   2.337   0.622  11.263 -0.1808  0.5335 -1.0415
  173SAPI    O419551   2.421   0.721  11.426  0.8040 -0.0032  0.1496
  173SAPI   HO419552   2.490   0.784  11.445  0.3576  1.3285 -2.4653
  173SAPI   C1519553   2.406   0.804  11.185  0.3142 -0.2375 -0.4400
  173SAPI    H519554   2.493   0.869  11.206  0.0685 -0.6572  2.1042
  173SAPI    O519555   2.283   0.870  11.215 -0.7003 -0.3880 -0.3648
  173SAPI   HO519556   2.303   0.959  11.245  0.3736 -1.2307  1.4942
  173SAPI   C1619557   2.407   0.756  11.042  1.1055  0.2839 -0.9304
  173SAPI    H619558   2.312   0.699  11.035  1.8395 -0.6612 -4.1468
  173SAPI    O619559   2.399   0.868  10.953  0.3478  0.2568  0.1066
  173SAPI   HO619560   2.350   0.830  10.880 -3.2548  1.3679  1.8455
  173SAPI   C1119561   2.522   0.676  11.010 -0.8219  0.2425 -0.2008
  173SAPI    H119562   2.613   0.739  11.020 -1.1865  0.4991  1.6141
  173SAPI     P19563   2.625   0.645  10.759  0.3621 -0.2499  0.0084
  173SAPI   O1319564   2.626   0.522  10.677  0.2064 -0.3875 -0.1496
  173SAPI   O1419565   2.753   0.685  10.818 -0.3463 -0.1800  0.4023
  173SAPI   O1219566   2.514   0.620  10.882  0.5791 -0.3753  0.1424
  173SAPI   O1119567   2.562   0.768  10.686 -0.0293  0.5401  0.1334
  173SAPI    C119568   2.425   0.760  10.626 -0.2698 -0.5267 -0.7703
  173SAPI    HA19569   2.367   0.697  10.696 -1.0545  0.1430 -0.8057
  173SAPI    HB19570   2.364   0.853  10.636  1.1840  0.4279 -0.5236
  173SAPI    C219571   2.418   0.702  10.485 -0.5319  0.2200  0.5730
  173SAPI    HS19572   2.448   0.596  10.496 -0.8853 -0.0177 -0.6866
  173SAPI   O2119573   2.498   0.779  10.397 -0.4389  0.2350  0.1970
  173SAPI   C2119574   2.549   0.712  10.289  0.3659 -0.1529 -0.4268
  173SAPI   O2219575   2.523   0.595  10.267  0.0343 -0.2752  0.2014
  173SAPI   C2219576   2.646   0.803  10.209 -0.5936 -0.1573  0.2160
  173SAPI   H2R19577   2.588   0.889  10.170  0.7452  0.5134 -0.3593
  173SAPI   H2S19578   2.725   0.844  10.275 -0.7731 -0.9904  0.9605
  173SAPI    C319579   2.278   0.719  10.433 -1.2904  0.0561 -0.3881
  173SAPI    HX19580   2.270   0.827  10.406 -0.4367  0.2655  0.1777
  173SAPI    HY19581   2.217   0.687  10.520 -0.7709  0.0362 -0.0349
  173SAPI   O3119582   2.236   0.652  10.312 -0.1068  0.3127  0.0515
  173SAPI   C3119583   2.213   0.519  10.328  0.6709 -0.2681 -0.3251
  173SAPI   O3219584   2.232   0.451  10.430  0.6349 -0.1147 -0.2388
  173SAPI   C3219585   2.171   0.461  10.193 -0.3160 -0.0378  0.2864
  173SAPI   H2X19586   2.131   0.542  10.128 -1.9946 -0.7714  0.3844
  173SAPI   H2Y19587   2.079   0.404  10.217 -0.2605 -0.7972 -1.2334
  173SAPI   C2319588   2.722   0.734  10.087 -0.0192  0.1887 -0.1875
  173SAPI   H3R19589   2.647   0.706  10.010 -1.6725  0.9779  1.1103
  173SAPI   H3S19590   2.773   0.644  10.129 -0.4147 -0.1122 -0.3451
  173SAPI   C2419591   2.822   0.823  10.021 -0.2654  0.2581 -0.0933
  173SAPI   H4R19592   2.766   0.917  10.001  0.4452  0.9161  0.9729
  173SAPI   H4S19593   2.860   0.782   9.925 -0.0064  4.1471 -1.7494
  173SAPI   C2519594   2.939   0.852  10.118 -0.3839  0.1450  0.1765
  173SAPI   H5R19595   2.919   0.846  10.226 -0.9059  0.9655  0.1375
  173SAPI   C2619596   3.063   0.889  10.079  0.3964 -0.1237  0.4008
  173SAPI   H6R19597   3.125   0.925  10.162  0.6898  1.2729 -0.4134
  173SAPI   C2719598   3.102   0.913   9.936  0.1394  0.2675 -0.8554
  173SAPI   H7R19599   3.016   0.929   9.868  0.1167  0.0864 -0.8690
  173SAPI   H7S19600   3.148   0.819   9.899 -1.4022  0.1375 -2.4971
  173SAPI   C2819601   3.183   1.036   9.922 -0.0882  0.4451 -0.2780
  173SAPI   H8R19602   3.140   1.119   9.980 -1.0945 -0.6735  0.6066
  173SAPI   C2919603   3.281   1.073   9.839 -0.1322  0.2748 -0.4696
  173SAPI   H9R19604   3.313   1.176   9.860 -0.4690  0.1960  0.4377
  173SAPI  C21019605   3.349   1.003   9.727 -0.0266  0.3258 -0.6084
  173SAPI  H10R19606   3.307   1.039   9.631 -0.0379  1.8149 -0.0691
  173SAPI  H10S19607   3.327   0.894   9.722  0.0319  0.2571  0.3726
  173SAPI  C21119608   3.495   1.026   9.733  0.3224 -0.4573 -0.1515
  173SAPI  H11R19609   3.547   1.048   9.826 -0.1115 -0.9945  0.2246
  173SAPI  C21219610   3.575   1.039   9.622 -0.4353  0.2806  0.1806
  173SAPI  H12R19611   3.683   1.054   9.640 -0.2402  0.3738 -1.0105
  173SAPI  C21319612   3.544   1.030   9.477 -0.0964 -0.1262  0.2345
  173SAPI  H13R19613   3.442   1.003   9.442  0.0777 -0.9859  0.3856
  173SAPI  H13S19614   3.612   0.948   9.443  1.9108  2.1971 -1.5683
  173SAPI  C21419615   3.583   1.153   9.404 -0.8924 -0.6916  0.6073
  173SAPI  H14R19616   3.601   1.245   9.462 -1.0786  0.9184 -1.7747
  173SAPI  C21519617   3.603   1.162   9.269  0.7515  0.5157  0.5341
  173SAPI  H15R19618   3.631   1.260   9.227 -0.7063  0.0504 -1.6467
  173SAPI  C21619619   3.574   1.056   9.167 -0.4114 -0.2116  0.0363
  173SAPI  H16R19620   3.528   0.975   9.228 -0.9590  0.7666  0.9324
  173SAPI  H16S19621   3.656   1.017   9.103 -1.0896  0.9981 -1.5961
  173SAPI  C21719622   3.469   1.092   9.062  0.5343 -0.8212 -1.2528
  173SAPI  H17R19623   3.498   1.186   9.010  0.5319 -1.0473 -1.6668
  173SAPI  H17S19624   3.371   1.108   9.112  0.9984 -0.7881 -0.3413
  173SAPI  C21819625   3.445   0.992   8.951 -0.9300 -0.4214  0.6721
  173SAPI  H18R19626   3.350   0.934   8.959  0.4878 -2.9590 -0.0427
  173SAPI  H18S19627   3.525   0.915   8.948 -2.0511 -1.5826 -2.4404
  173SAPI  C21919628   3.439   1.050   8.805 -0.2783 -0.1648 -0.3850
  173SAPI  H19R19629   3.500   1.142   8.797  0.9814 -0.9260  0.2930
  173SAPI  H19S19630   3.339   1.090   8.780  0.2106  1.3767  0.1141
  173SAPI  C22019631   3.491   0.959   8.698 -0.1341  0.4170  0.3266
  173SAPI  H20R19632   3.520   1.020   8.610  0.8682  1.3557  1.2871
  173SAPI  H20S19633   3.417   0.882   8.669  1.7838 -1.0998 -0.6809
  173SAPI  H20T19634   3.582   0.906   8.734 -1.1143 -1.1049  0.6054
  173SAPI   C3319635   2.273   0.364  10.126 -0.5047  0.0628 -0.2104
  173SAPI   H3X19636   2.263   0.266  10.176  0.4574  1.3770  2.6919
  173SAPI   H3Y19637   2.376   0.402  10.144 -1.7787  2.9059  1.3736
  173SAPI   C3419638   2.265   0.361   9.973 -0.4134 -0.9932  0.7627
  173SAPI   H4X19639   2.163   0.331   9.942 -0.2259  1.6878 -2.6670
  173SAPI   H4Y19640   2.336   0.287   9.928 -1.5110  0.3215 -3.3648
  173SAPI   C3519641   2.289   0.498   9.908 -0.1321  0.0478  0.0422
  173SAPI   H5X19642   2.398   0.513   9.927 -0.0317 -2.4150  1.6395
  173SAPI   H5Y19643   2.232   0.580   9.955 -0.2065 -1.6892  3.1200
  173SAPI   C3619644   2.258   0.504   9.757  0.0301  0.3532  0.3243
  173SAPI   H6X19645   2.236   0.608   9.726  2.5663  0.9102  0.2557
  173SAPI   H6Y19646   2.162   0.455   9.729  0.5379 -0.4602  0.0013
  173SAPI   C3719647   2.375   0.451   9.678  0.1639 -0.2381  0.4480
  173SAPI   H7X19648   2.415   0.366   9.737  1.4366  0.0311 -0.0079
  173SAPI   H7Y19649   2.465   0.516   9.673  0.9918 -1.3138  1.0837
  173SAPI   C3819650   2.328   0.407   9.537 -0.4407  0.6769  0.7542
  173SAPI   H8X19651   2.286   0.501   9.497 -0.9562  0.7543  1.4723
  173SAPI   H8Y19652   2.239   0.340   9.540  0.6022 -0.8364 -0.8716
  173SAPI   C3919653   2.433   0.352   9.437 -0.3814  0.1526  0.1351
  173SAPI   H9X19654   2.468   0.254   9.476 -0.0824 -0.5278 -1.7774
  173SAPI   H9Y19655   2.523   0.417   9.440 -1.6664  1.8851  1.6428
  173SAPI  C31019656   2.372   0.326   9.300  0.0038  0.3054  0.0463
  173SAPI  H10X19657   2.304   0.408   9.269  1.6939  1.1220 -1.6201
  173SAPI  H10Y19658   2.306   0.239   9.317  2.3024 -1.0272  2.4832
  173SAPI  C31119659   2.481   0.296   9.194 -0.1248 -1.0457  0.5882
  173SAPI  H11X19660   2.551   0.215   9.226  2.5658  1.0216  0.1367
  173SAPI  H11Y19661   2.535   0.390   9.170  0.2283 -1.8432 -1.9527
  173SAPI  C31219662   2.424   0.233   9.061  0.4733  0.3553 -0.1681
  173SAPI  H12X19663   2.351   0.301   9.013  1.3786  0.3578 -1.5670
  173SAPI  H12Y19664   2.363   0.143   9.084  0.4328  0.2679 -0.6135
  173SAPI  C31319665   2.539   0.186   8.961 -0.1952 -0.8364  0.0513
  173SAPI  H13X19666   2.583   0.088   8.990  2.0037 -0.2276 -1.1266
  173SAPI  H13Y19667   2.621   0.261   8.970 -0.2354 -0.8800  0.8944
  173SAPI  C31419668   2.487   0.165   8.816 -0.1856 -0.3811  0.4479
  173SAPI  H14X19669   2.380   0.138   8.818 -0.5410  0.8851 -1.0893
  173SAPI  H14Y19670   2.535   0.073   8.776  0.6169 -0.2721  1.1227
  173SAPI  C31519671   2.529   0.272   8.716  0.5112  0.0843  0.1055
  173SAPI  H15X19672   2.634   0.300   8.739  0.3641  0.9978 -0.3341
  173SAPI  H15Y19673   2.483   0.371   8.736  0.4590 -0.3200  2.1272
  173SAPI  C31619674   2.495   0.228   8.568 -0.1354  0.7056  0.1358
  173SAPI  H16X19675   2.492   0.117   8.563  1.0632  0.7255 -1.5540
  173SAPI  H16Y19676   2.567   0.248   8.485  1.7663  1.2604  1.8894
  173SAPI  C31719677   2.350   0.277   8.525 -0.5942  0.0301  0.6675
  173SAPI  H17X19678   2.341   0.385   8.549 -0.4259  0.5585 -1.5220
  173SAPI  H17Y19679   2.269   0.215   8.567 -0.4924 -1.0248 -0.6499
  173SAPI  C31819680   2.333   0.252   8.379 -0.0629  0.8245  0.5883
  173SAPI  H18X19681   2.352   0.145   8.355  2.0422  1.0289  1.2184
  173SAPI  H18Y19682   2.410   0.302   8.316  1.2135 -1.7963 -0.0193
  173SAPI  H18Z19683   2.234   0.286   8.342 -0.0236  2.3999  1.8522
  174SAPI   C1219684   5.369   2.229  11.136  0.5187 -0.1194  0.1699
  174SAPI    H219685   5.362   2.137  11.198  0.4143 -1.0441 -1.1915
  174SAPI    O219686   5.263   2.323  11.166  0.4378 -0.5248  0.0452
  174SAPI   HO219687   5.188   2.279  11.207 -0.1543  0.6878  0.3116
  174SAPI   C1319688   5.500   2.301  11.160 -0.1302  0.7386 -0.7321
  174SAPI    H319689   5.579   2.226  11.138 -1.7775 -1.0793 -0.5849
  174SAPI    O319690   5.523   2.339  11.298 -0.5072 -0.1934 -0.9440
  174SAPI   HO319691   5.449   2.393  11.326  1.3606  1.8886  0.1718
  174SAPI   C1419692   5.533   2.411  11.058 -0.5180  0.0349 -0.3737
  174SAPI    H419693   5.456   2.490  11.068  1.0732  1.6729 -0.8396
  174SAPI    O419694   5.659   2.466  11.091 -0.4126 -0.4472 -0.4059
  174SAPI   HO419695   5.733   2.404  11.091 -0.1970 -0.1898  0.3917
  174SAPI   C1519696   5.524   2.359  10.917  0.0744  0.5351 -0.0171
  174SAPI    H519697   5.597   2.276  10.908  1.4525  1.9040 -2.3668
  174SAPI    O519698   5.558   2.448  10.808 -0.1016  0.3771  0.3257
  174SAPI   HO519699   5.553   2.389  10.732 -2.0762  1.6669 -0.5920
  174SAPI   C1619700   5.387   2.286  10.895 -1.2252  0.1713  0.1830
  174SAPI    H619701   5.317   2.373  10.896  0.4397  1.6356 -2.6282
  174SAPI    O619702   5.383   2.219  10.766 -0.6448 -0.0164  0.6265
  174SAPI   HO619703   5.291   2.190  10.762 -0.1906 -1.9544  3.2342
  174SAPI   C1119704   5.364   2.178  10.994  0.3126  0.1207  0.6048
  174SAPI    H119705   5.450   2.111  10.974  1.6870  2.1865 -0.5607
  174SAPI     P19706   5.223   1.963  10.996  0.2637 -0.3371  0.4370
  174SAPI   O1319707   5.082   1.925  10.991 -0.3333  0.2348  0.2563
  174SAPI   O1419708   5.293   1.922  11.120 -0.0874 -0.0926  0.2310
  174SAPI   O1219709   5.230   2.121  10.968  0.4767  0.1494  0.3222
  174SAPI   O1119710   5.303   1.904  10.864 -0.4503 -0.0350 -0.3818
  174SAPI    C119711   5.243   1.806  10.783 -0.0933 -0.2439 -0.4362
  174SAPI    HA19712   5.221   1.720  10.850 -0.1333 -0.6265 -0.9397
  174SAPI    HB19713   5.148   1.845  10.742 -1.0817  0.7206  2.6007
  174SAPI    C219714   5.342   1.760  10.672 -0.0354  0.3045  0.4858
  174SAPI    HS19715   5.293   1.677  10.616  1.5895  0.6415 -1.4755
  174SAPI   O2119716   5.460   1.700  10.736 -0.0244  0.4712  0.0123
  174SAPI   C2119717   5.530   1.616  10.669  0.1914 -0.0368 -0.1550
  174SAPI   O2219718   5.499   1.557  10.563  0.0807 -0.1303  0.0445
  174SAPI   C2219719   5.661   1.591  10.740  0.0366  0.1100  0.2327
  174SAPI   H2R19720   5.654   1.593  10.851  1.1027  0.4243  0.3024
  174SAPI   H2S19721   5.701   1.492  10.710 -0.3774 -0.7687  2.4741
  174SAPI    C319722   5.389   1.884  10.582 -0.7806  0.1388 -0.5511
  174SAPI    HX19723   5.437   1.953  10.655  0.4258 -1.1474 -0.1102
  174SAPI    HY19724   5.300   1.933  10.536 -1.8600  1.0640  2.4438
  174SAPI   O3119725   5.483   1.860  10.477  0.4738 -0.1185 -0.0300
  174SAPI   C3119726   5.438   1.786  10.378  0.2989  0.3786 -0.6053
  174SAPI   O3219727   5.324   1.748  10.359  0.6408 -0.4650  0.3569
  174SAPI   C3219728   5.559   1.781  10.287 -0.3132  0.0856 -0.2817
  174SAPI   H2X19729   5.612   1.685  10.307 -1.8153 -0.7006  0.0141
  174SAPI   H2Y19730   5.624   1.869  10.304 -0.8305  0.4063  0.0323
  174SAPI   C2319731   5.758   1.704  10.709  0.3896  0.2932 -0.6055
  174SAPI   H3R19732   5.841   1.703  10.783 -0.4559 -2.4457  0.3921
  174SAPI   H3S19733   5.710   1.803  10.725  0.7304  0.2607  0.7195
  174SAPI   C2419734   5.820   1.698  10.565 -0.7431  0.4053  0.3968
  174SAPI   H4R19735   5.850   1.800  10.532 -1.6157 -0.1511 -2.2417
  174SAPI   H4S19736   5.740   1.659  10.500  0.5852 -0.7303 -0.5943
  174SAPI   C2519737   5.939   1.600  10.552  0.3756 -0.3096  0.4030
  174SAPI   H5R19738   6.020   1.607  10.626  1.5500  1.7641 -0.9948
  174SAPI   C2619739   5.954   1.514  10.452  0.1058  0.1606 -0.3643
  174SAPI   H6R19740   6.039   1.444  10.456  1.8550  2.3759  4.3885
  174SAPI   C2719741   5.855   1.494  10.335 -0.3559 -0.2536 -0.3357
  174SAPI   H7R19742   5.858   1.584  10.270  1.3433 -0.9080 -1.2037
  174SAPI   H7S19743   5.749   1.473  10.360 -0.4615  0.2580 -0.3462
  174SAPI   C2819744   5.903   1.371  10.258  0.5216 -0.0818 -0.1646
  174SAPI   H8R19745   5.858   1.281  10.303 -1.0178  1.7016  1.9604
  174SAPI   C2919746   5.980   1.356  10.147 -0.0120  0.2839 -0.2359
  174SAPI   H9R19747   6.010   1.254  10.119 -0.3024  0.7211 -2.1842
  174SAPI  C21019748   6.042   1.473  10.080 -0.8770  0.5392  0.4051
  174SAPI  H10R19749   6.028   1.568  10.136  0.5286  0.5182  0.8083
  174SAPI  H10S19750   6.002   1.500   9.980 -1.6313 -1.5178  0.1218
  174SAPI  C21119751   6.193   1.451  10.075  0.4751 -0.9758  0.4582
  174SAPI  H11R19752   6.242   1.422  10.169  1.3979 -0.1420  0.2420
  174SAPI  C21219753   6.279   1.459   9.966  0.0273 -0.1411 -0.7417
  174SAPI  H12R19754   6.387   1.443   9.976  0.1101  1.4456  1.2576
  174SAPI  C21319755   6.242   1.477   9.822  0.9265  0.4078 -0.2748
  174SAPI  H13R19756   6.132   1.469   9.807  0.8118 -2.2158  1.6155
  174SAPI  H13S19757   6.282   1.394   9.761  2.9980  0.6617  0.6949
  174SAPI  C21419758   6.297   1.607   9.774 -0.1352 -0.0301 -0.0377
  174SAPI  H14R19759   6.403   1.628   9.795  0.3815 -0.6231 -1.9006
  174SAPI  C21519760   6.234   1.706   9.707 -0.5807  0.0146 -0.2092
  174SAPI  H15R19761   6.295   1.794   9.684 -1.9683  0.7474 -1.1984
  174SAPI  C21619762   6.089   1.702   9.672  0.5385 -1.1129  0.2485
  174SAPI  H16R19763   6.041   1.802   9.682 -0.4509 -1.5295 -0.2601
  174SAPI  H16S19764   6.028   1.634   9.735  0.9731 -1.8506 -0.1314
  174SAPI  C21719765   6.060   1.659   9.521 -0.7640 -0.6379  0.2595
  174SAPI  H17R19766   5.949   1.663   9.515 -0.6149  0.7601 -2.3486
  174SAPI  H17S19767   6.098   1.557   9.498  2.0903  0.3615  0.2993
  174SAPI  C21819768   6.132   1.761   9.425  0.5175  0.5595  0.2591
  174SAPI  H18R19769   6.242   1.753   9.434  0.7656  0.3998 -2.6336
  174SAPI  H18S19770   6.094   1.862   9.451 -0.5739  0.0943  0.5223
  174SAPI  C21919771   6.110   1.725   9.276 -0.3665 -0.0072  0.3608
  174SAPI  H19R19772   6.001   1.745   9.266 -0.2310  0.5791  0.0499
  174SAPI  H19S19773   6.120   1.616   9.253  0.6090  0.2391 -0.4260
  174SAPI  C22019774   6.193   1.809   9.183  0.0856 -0.3808  0.4860
  174SAPI  H20R19775   6.181   1.916   9.209 -1.8114 -0.1529 -1.1656
  174SAPI  H20S19776   6.167   1.805   9.075  1.1909  2.6059  0.0737
  174SAPI  H20T19777   6.301   1.788   9.197 -0.4623 -3.5196  0.4290
  174SAPI   C3319778   5.515   1.762  10.142 -0.7226 -0.0734 -0.3033
  174SAPI   H3X19779   5.446   1.674  10.133 -0.7893  0.2109 -3.1531
  174SAPI   H3Y19780   5.607   1.746  10.082 -1.3504 -0.6698 -1.1232
  174SAPI   C3419781   5.438   1.882  10.075  0.5105 -0.0168  0.1535
  174SAPI   H4X19782   5.505   1.970  10.076 -0.8924  1.0911  2.5662
  174SAPI   H4Y19783   5.352   1.917  10.136  1.9448  0.5908  1.8673
  174SAPI   C3519784   5.373   1.854   9.937  0.0174  0.4946  0.0330
  174SAPI   H5X19785   5.297   1.932   9.915 -0.6928 -0.2991 -0.3815
  174SAPI   H5Y19786   5.317   1.758   9.945 -0.1313  0.3291 -2.5881
  174SAPI   C3619787   5.473   1.832   9.818  0.1252  0.6909 -0.0600
  174SAPI   H6X19788   5.539   1.745   9.838  2.1571  2.2618  0.1734
  174SAPI   H6Y19789   5.542   1.917   9.803 -0.7299  1.1456 -1.5419
  174SAPI   C3719790   5.419   1.805   9.674  1.0389  0.4313  0.3169
  174SAPI   H7X19791   5.344   1.723   9.681 -0.1700  1.5711  1.0706
  174SAPI   H7Y19792   5.497   1.770   9.603  1.5338 -0.1774  1.1435
  174SAPI   C3819793   5.349   1.924   9.617  0.4607 -0.1694 -0.3451
  174SAPI   H8X19794   5.414   2.013   9.604 -0.1012  0.5632  1.5900
  174SAPI   H8Y19795   5.259   1.947   9.679  2.3455  1.9308  1.7072
  174SAPI   C3919796   5.301   1.883   9.473  0.0331 -0.7670  0.1260
  174SAPI   H9X19797   5.236   1.793   9.472  0.2712 -0.9451  0.3877
  174SAPI   H9Y19798   5.381   1.840   9.409 -0.3329 -2.9039  1.0472
  174SAPI  C31019799   5.237   1.991   9.392  0.0531 -0.6822  0.0218
  174SAPI  H10X19800   5.315   2.069   9.378  0.0608 -0.6465  0.2596
  174SAPI  H10Y19801   5.162   2.049   9.450 -1.3891 -1.8899 -0.6090
  174SAPI  C31119802   5.169   1.934   9.264 -0.2955 -0.1460  0.5566
  174SAPI  H11X19803   5.111   2.009   9.208  0.6105 -0.8560 -1.3824
  174SAPI  H11Y19804   5.099   1.859   9.307  0.5434  0.2079  2.5828
  174SAPI  C31219805   5.273   1.871   9.172  0.3704  0.2182  1.0392
  174SAPI  H12X19806   5.276   1.761   9.188 -1.0235 -0.3251 -2.0608
  174SAPI  H12Y19807   5.370   1.925   9.181  1.9817 -2.5812  1.2812
  174SAPI  C31319808   5.233   1.870   9.021 -0.3100  0.1976  0.8217
  174SAPI  H13X19809   5.171   1.961   9.009 -1.1471  0.0841  3.8575
  174SAPI  H13Y19810   5.170   1.778   9.016  0.5808 -0.6870  4.4878
  174SAPI  C31419811   5.342   1.842   8.914  0.4624 -0.4739 -0.1295
  174SAPI  H14X19812   5.409   1.756   8.936  0.9983 -0.0035  0.1154
  174SAPI  H14Y19813   5.408   1.931   8.901 -0.4857  0.0969 -1.2042
  174SAPI  C31519814   5.280   1.820   8.780  0.2905 -0.4275 -0.4200
  174SAPI  H15X19815   5.196   1.889   8.755 -0.7310 -2.0145 -1.4640
  174SAPI  H15Y19816   5.240   1.717   8.777  0.1590 -0.4228  0.8682
  174SAPI  C31619817   5.384   1.828   8.671 -0.2625  0.0947  0.7550
  174SAPI  H16X19818   5.424   1.931   8.680  0.8728 -0.1930 -0.9352
  174SAPI  H16Y19819   5.340   1.825   8.569  0.6051  1.5308  0.3214
  174SAPI  C31719820   5.478   1.711   8.664 -0.2036  0.4189 -0.1364
  174SAPI  H17X19821   5.420   1.617   8.661  2.2127 -1.0791 -2.3165
  174SAPI  H17Y19822   5.540   1.706   8.757  2.6759  0.0734 -1.9996
  174SAPI  C31819823   5.582   1.708   8.550  0.5083 -0.5935  0.4806
  174SAPI  H18X19824   5.534   1.691   8.451  1.5585  0.1802 -0.1793
  174SAPI  H18Y19825   5.642   1.618   8.575  0.0879 -2.2575 -3.8994
  174SAPI  H18Z19826   5.638   1.804   8.543  1.4437 -1.1932 -0.5490
  175SAPI   C1219827   2.217   0.173   6.286  0.0755 -0.4303 -0.5821
  175SAPI    H219828   2.174   0.202   6.188 -1.4223  0.1457  0.2293
  175SAPI    O219829   2.174   0.036   6.299 -0.3141  0.2724 -0.9583
  175SAPI   HO219830   2.079   0.042   6.312 -0.3666 -1.2475 -0.5280
  175SAPI   C1319831   2.369   0.197   6.291 -0.6845 -0.7490 -0.0231
  175SAPI    H319832   2.389   0.306   6.282  1.3537 -0.9458  1.7701
  175SAPI    O319833   2.431   0.113   6.192  0.0295  0.1164  0.6056
  175SAPI   HO319834   2.385   0.029   6.199  3.8759 -2.0438  1.4004
  175SAPI   C1419835   2.409   0.159   6.435 -0.0289  0.1391  0.3411
  175SAPI    H419836   2.387   0.052   6.456  1.7045 -0.2227  0.3976
  175SAPI    O419837   2.543   0.180   6.462 -0.9654 -0.1306  0.3495
  175SAPI   HO419838   2.561   0.207   6.552  2.5057 -2.1128  0.3383
  175SAPI   C1519839   2.330   0.233   6.529  0.3057  0.2194 -0.5269
  175SAPI    H519840   2.337   0.342   6.505 -5.2284  0.6818 -0.7814
  175SAPI    O519841   2.374   0.224   6.667  0.1725  0.0132  0.3845
  175SAPI   HO519842   2.366   0.135   6.701  1.4812  0.2328  1.2885
  175SAPI   C1619843   2.182   0.207   6.526  0.7302 -0.6819 -0.1667
  175SAPI    H619844   2.168   0.100   6.551 -1.1540 -0.8891 -1.9224
  175SAPI    O619845   2.104   0.278   6.628  0.4046  0.0534 -0.4425
  175SAPI   HO619846   2.098   0.367   6.591  0.0339  0.1033 -0.2668
  175SAPI   C1119847   2.130   0.249   6.389 -0.0086 -0.4643 -0.3873
  175SAPI    H119848   2.159   0.355   6.381 -0.5932 -0.3446 -0.9835
  175SAPI     P19849   1.888   0.339   6.314 -0.2246 -0.1706  0.1698
  175SAPI   O1319850   1.762   0.283   6.260 -0.1864  0.3438  0.0689
  175SAPI   O1419851   1.967   0.422   6.218  0.6016  0.3025  0.0800
  175SAPI   O1219852   1.984   0.219   6.369 -0.4488 -0.2311  0.1675
  175SAPI   O1119853   1.855   0.424   6.437 -0.5136  0.1912 -0.7556
  175SAPI    C119854   1.788   0.369   6.556 -0.5459  0.5932 -0.0659
  175SAPI    HA19855   1.776   0.259   6.552 -0.6942  0.5706  0.8298
  175SAPI    HB19856   1.842   0.399   6.648 -0.2079 -1.3393  0.3717
  175SAPI    C219857   1.646   0.424   6.562 -0.0328  0.0313  0.0009
  175SAPI    HS19858   1.610   0.426   6.457 -0.4887  2.0973  0.1717
  175SAPI   O2119859   1.665   0.556   6.612 -0.3292 -0.3123 -0.2668
  175SAPI   C2119860   1.591   0.648   6.551  0.8201 -0.5568 -0.1759
  175SAPI   O2219861   1.531   0.626   6.448  0.0615  0.2480 -0.0199
  175SAPI   C2219862   1.578   0.779   6.624  0.9850  0.0628 -0.8228
  175SAPI   H2R19863   1.611   0.859   6.554  1.5291 -1.4608 -2.3558
  175SAPI   H2S19864   1.468   0.799   6.630  1.2288  1.6170 -1.3759
  175SAPI    C319865   1.553   0.345   6.651 -0.1715 -0.0746  0.1100
  175SAPI    HX19866   1.555   0.246   6.601 -0.1306 -1.5460  2.8864
  175SAPI    HY19867   1.447   0.375   6.646 -0.4166 -0.4943  2.1780
  175SAPI   O3119868   1.611   0.321   6.781 -0.1854 -0.2495 -0.3264
  175SAPI   C3119869   1.577   0.401   6.873  0.6028  0.9133 -0.0283
  175SAPI   O3219870   1.490   0.484   6.872  0.4114 -0.5379  0.3825
  175SAPI   C3219871   1.674   0.368   6.990  0.0578  0.3449  0.3462
  175SAPI   H2X19872   1.773   0.407   6.958  0.8721 -2.6472 -0.9724
  175SAPI   H2Y19873   1.683   0.258   7.001 -1.3072  0.1335 -0.6156
  175SAPI   C2319874   1.635   0.785   6.768 -0.7153  0.4260 -0.4994
  175SAPI   H3R19875   1.744   0.782   6.748 -0.4827 -2.5585  0.8564
  175SAPI   H3S19876   1.618   0.699   6.837 -1.6995  1.0555  0.0499
  175SAPI   C2419877   1.600   0.915   6.836 -0.3155 -0.1589  0.9394
  175SAPI   H4R19878   1.608   0.995   6.759 -3.5281 -0.2240  0.4980
  175SAPI   H4S19879   1.660   0.946   6.924  2.4517 -1.7480 -0.2958
  175SAPI   C2519880   1.452   0.927   6.864 -0.3091  0.1827 -0.2617
  175SAPI   H5R19881   1.383   0.964   6.787 -2.1617 -1.3709  0.6261
  175SAPI   C2619882   1.399   0.876   6.979  0.6764  0.3245  0.6433
  175SAPI   H6R19883   1.291   0.885   6.996  0.3414 -2.2538  0.0897
  175SAPI   C2719884   1.474   0.805   7.088  0.8574  0.8632  0.3423
  175SAPI   H7R19885   1.575   0.778   7.050 -0.3931  0.4046 -2.7645
  175SAPI   H7S19886   1.423   0.707   7.100 -1.0013  1.4904 -2.0692
  175SAPI   C2819887   1.492   0.866   7.223 -0.1966 -0.5290  0.4986
  175SAPI   H8R19888   1.546   0.961   7.212 -1.9417  0.4918  0.5852
  175SAPI   C2919889   1.460   0.819   7.346 -0.6575 -0.1047  0.1276
  175SAPI   H9R19890   1.482   0.886   7.430  1.9370 -1.3003  0.4395
  175SAPI  C21019891   1.393   0.685   7.367  0.2152 -0.3655 -0.0511
  175SAPI  H10R19892   1.442   0.613   7.299  1.0565  0.7850 -0.6790
  175SAPI  H10S19893   1.291   0.696   7.323 -0.0528 -2.5303 -0.0070
  175SAPI  C21119894   1.389   0.644   7.512  0.1885 -0.2000 -0.0899
  175SAPI  H11R19895   1.407   0.719   7.591 -2.1017  0.3702 -0.0645
  175SAPI  C21219896   1.368   0.518   7.556  0.6689  0.4270  0.1635
  175SAPI  H12R19897   1.353   0.508   7.664  0.3158 -0.5984  0.0250
  175SAPI  C21319898   1.355   0.402   7.464  0.8871  0.7216  0.0290
  175SAPI  H13R19899   1.448   0.342   7.474 -0.4011 -1.6269 -1.6837
  175SAPI  H13S19900   1.360   0.420   7.355 -1.6345  2.1618  0.1156
  175SAPI  C21419901   1.238   0.306   7.498  0.1149 -0.1784  0.5884
  175SAPI  H14R19902   1.166   0.289   7.417  0.3747  2.3741 -0.2509
  175SAPI  C21519903   1.229   0.226   7.605 -0.8152 -0.6661 -0.5351
  175SAPI  H15R19904   1.145   0.157   7.618  0.6979 -2.8874 -2.1775
  175SAPI  C21619905   1.324   0.228   7.723  0.0513  0.0644 -0.1730
  175SAPI  H16R19906   1.387   0.319   7.733  0.9364 -0.7213  1.7471
  175SAPI  H16S19907   1.400   0.147   7.721 -2.4472 -2.3611 -0.6759
  175SAPI  C21719908   1.241   0.228   7.851 -0.2668  0.6226  0.1757
  175SAPI  H17R19909   1.174   0.140   7.864  1.1191 -0.3939  0.5804
  175SAPI  H17S19910   1.165   0.309   7.848 -2.7054 -1.4991  2.6477
  175SAPI  C21819911   1.333   0.244   7.972  0.6066  0.1184 -0.2317
  175SAPI  H18R19912   1.408   0.325   7.966 -0.3342  1.0340  0.2194
  175SAPI  H18S19913   1.385   0.147   7.984  1.6565  0.8433  1.0862
  175SAPI  C21919914   1.248   0.272   8.099 -0.6596  0.2149  0.0082
  175SAPI  H19R19915   1.182   0.186   8.124 -1.3226  0.5160 -0.7009
  175SAPI  H19S19916   1.170   0.350   8.085 -0.5533  0.5498  1.2360
  175SAPI  C22019917   1.341   0.292   8.220  0.3257  0.8347  0.1275
  175SAPI  H20R19918   1.279   0.292   8.313 -0.3040 -0.4405 -0.2813
  175SAPI  H20S19919   1.398   0.385   8.202 -3.2925  2.9435 -1.0414
  175SAPI  H20T19920   1.407   0.203   8.227 -2.0570 -0.9462  0.6557
  175SAPI   C3319921   1.641   0.419   7.123  0.1753  0.0188  0.5384
  175SAPI   H3X19922   1.555   0.368   7.171 -1.6188  3.0283  0.6145
  175SAPI   H3Y19923   1.618   0.528   7.124  1.3682  0.2854  0.3568
  175SAPI   C3419924   1.763   0.411   7.223 -0.2088  0.4013 -0.1719
  175SAPI   H4X19925   1.848   0.470   7.183  0.9959  1.7369  4.0376
  175SAPI   H4Y19926   1.797   0.305   7.222 -1.9718 -0.2222  1.4823
  175SAPI   C3519927   1.721   0.464   7.359 -0.7543  0.1896  0.5380
  175SAPI   H5X19928   1.644   0.395   7.400  1.5236 -3.3613 -0.8288
  175SAPI   H5Y19929   1.681   0.566   7.347 -0.4207  0.1843 -0.6987
  175SAPI   C3619930   1.839   0.454   7.457  0.9726  0.3605  0.1900
  175SAPI   H6X19931   1.811   0.505   7.552 -0.0311 -0.7299  0.4874
  175SAPI   H6Y19932   1.926   0.503   7.409  0.4257 -0.0334 -1.2200
  175SAPI   C3719933   1.882   0.307   7.480  0.0360 -0.4016 -0.0868
  175SAPI   H7X19934   1.971   0.291   7.415 -0.4047 -2.0534 -0.2974
  175SAPI   H7Y19935   1.797   0.240   7.456 -1.0524  0.6592  0.6890
  175SAPI   C3819936   1.924   0.288   7.629 -0.1143 -0.1408  0.9138
  175SAPI   H8X19937   1.860   0.362   7.683  0.3420 -0.1093  1.4199
  175SAPI   H8Y19938   2.026   0.320   7.657  0.0155  1.3563 -1.1432
  175SAPI   C3919939   1.885   0.155   7.676  0.3153 -0.0093  0.0175
  175SAPI   H9X19940   1.943   0.088   7.609  1.4480  1.4674 -0.4874
  175SAPI   H9Y19941   1.779   0.132   7.653  0.3602  0.0548 -0.2560
  175SAPI  C31019942   1.920   0.120   7.820 -0.5080 -0.4648 -0.6617
  175SAPI  H10X19943   2.016   0.167   7.849 -0.7591 -1.0278  1.1286
  175SAPI  H10Y19944   1.934   0.010   7.824 -0.3297 -0.3801  1.4690
  175SAPI  C31119945   1.807   0.150   7.922  0.3276  0.0432  0.7544
  175SAPI  H11X19946   1.724   0.080   7.897 -1.6819  1.7492  2.4466
  175SAPI  H11Y19947   1.771   0.251   7.893  1.1966 -0.1153 -0.9463
  175SAPI  C31219948   1.856   0.147   8.067  0.1960  0.0222  0.6232
  175SAPI  H12X19949   1.768   0.174   8.130  1.3304  0.3783  2.0978
  175SAPI  H12Y19950   1.929   0.230   8.078  0.0897  0.2725 -0.5178
  175SAPI  C31319951   1.922   0.016   8.115  0.1712  0.1051  0.6643
  175SAPI  H13X19952   2.006  -0.006   8.046 -1.1467 -2.6870 -0.1368
  175SAPI  H13Y19953   1.855  -0.073   8.115  0.4318 -0.0885  0.6330
  175SAPI  C31419954   1.971   0.032   8.253  0.2148  0.6556 -0.6542
  175SAPI  H14X19955   1.895   0.078   8.320  0.3110 -0.9931  0.6117
  175SAPI  H14Y19956   2.048   0.111   8.245  1.2750 -0.1321  1.3172
  175SAPI  C31519957   2.038  -0.094   8.313 -0.7221 -0.0124  0.1029
  175SAPI  H15X19958   2.103  -0.130   8.231  0.5948 -1.0715  1.5972
  175SAPI  H15Y19959   1.959  -0.170   8.333 -1.5271  0.8928  0.4280
  175SAPI  C31619960   2.132  -0.077   8.433  0.6336 -0.9565 -0.8886
  175SAPI  H16X19961   2.182   0.021   8.419  3.6158 -2.6729 -2.8952
  175SAPI  H16Y19962   2.216  -0.149   8.423  1.1924 -0.2969 -0.9469
  175SAPI  C31719963   2.061  -0.082   8.572  0.0873  1.1091 -0.4923
  175SAPI  H17X19964   2.016  -0.183   8.571  0.8069  0.7856 -0.3005
  175SAPI  H17Y19965   1.972  -0.016   8.565 -0.1674  0.9062  0.9042
  175SAPI  C31819966   2.157  -0.069   8.697  0.5811 -0.7871  0.5991
  175SAPI  H18X19967   2.246  -0.132   8.673 -0.5051 -1.7428 -0.9910
  175SAPI  H18Y19968   2.098  -0.103   8.784 -0.9183  2.2155  0.8236
  175SAPI  H18Z19969   2.198   0.034   8.711  0.4265 -0.8771  1.7168
  176SAPI   C1219970   1.740   5.827   6.353  0.7493  0.1174 -0.0573
  176SAPI    H219971   1.739   5.773   6.450 -3.4323 -1.2741 -0.7656
  176SAPI    O219972   1.764   5.964   6.372 -0.2215 -0.2711 -0.2242
  176SAPI   HO219973   1.689   5.990   6.426  0.5142 -0.0076  0.6886
  176SAPI   C1319974   1.840   5.767   6.262  0.2048 -0.2133 -0.0351
  176SAPI    H319975   1.815   5.660   6.248  1.3548 -0.5861  0.7287
  176SAPI    O319976   1.971   5.774   6.319 -0.6698 -0.6412  0.0774
  176SAPI   HO319977   2.032   5.768   6.245  1.1635 -1.9388  1.6516
  176SAPI   C1419978   1.831   5.827   6.124  0.0225 -0.4653 -0.0202
  176SAPI    H419979   1.848   5.937   6.130 -3.0299  0.0411 -0.0617
  176SAPI    O419980   1.934   5.766   6.039 -0.0820 -0.2871  0.1481
  176SAPI   HO419981   2.004   5.827   6.014  1.1667 -2.0749 -0.8895
  176SAPI   C1519982   1.695   5.807   6.067  0.8976  0.2265 -0.9558
  176SAPI    H519983   1.674   5.699   6.054 -0.2479  0.2017  0.9636
  176SAPI    O519984   1.683   5.852   5.932  0.2721 -0.3415  0.2851
  176SAPI   HO519985   1.666   5.947   5.938 -0.3554 -0.5604  2.5949
  176SAPI   C1619986   1.587   5.867   6.155 -0.0158  0.4870  0.2817
  176SAPI    H619987   1.596   5.978   6.160 -1.4141  0.7051 -1.5871
  176SAPI    O619988   1.457   5.843   6.100 -0.1422 -0.7256  0.0046
  176SAPI   HO619989   1.419   5.767   6.144 -1.5993 -0.3477 -0.5771
  176SAPI   C1119990   1.601   5.798   6.297 -0.8058  0.1150  0.1146
  176SAPI    H119991   1.589   5.689   6.279  1.9048 -0.1291 -0.3239
  176SAPI     P19992   1.374   5.773   6.431 -0.5172 -0.1747 -0.0944
  176SAPI   O1319993   1.321   5.710   6.310  0.0426 -0.2670 -0.0847
  176SAPI   O1419994   1.283   5.875   6.492 -0.5064  0.2775 -0.0362
  176SAPI   O1219995   1.516   5.843   6.403  0.0546  0.1424 -0.1682
  176SAPI   O1119996   1.402   5.660   6.545  0.0280  0.1670  0.1916
  176SAPI    C119997   1.506   5.684   6.631 -0.5549 -0.1493  0.1059
  176SAPI    HA19998   1.600   5.656   6.579 -1.4336 -3.3834  0.0820
  176SAPI    HB19999   1.510   5.789   6.664  0.5791  0.4119 -1.7609
  176SAPI    C220000   1.493   5.604   6.759 -0.4522 -0.0567  0.0115
  176SAPI    HS20001   1.582   5.625   6.822  0.9356 -0.5865 -1.7436
  176SAPI   O2120002   1.472   5.469   6.733 -0.3334 -0.4452  0.4796
  176SAPI   C2120003   1.587   5.395   6.734  1.4365  0.4850  0.0120
  176SAPI   O2220004   1.703   5.435   6.737  0.7506 -0.0144 -0.3166
  176SAPI   C2220005   1.548   5.245   6.720 -0.6075  0.9960 -1.0337
  176SAPI   H2R20006   1.441   5.229   6.746  0.1562  1.6854  2.9143
  176SAPI   H2S20007   1.576   5.213   6.618  1.3265  0.2508 -0.2942
  176SAPI    C320008   1.370   5.661   6.840  0.0914  0.3700  0.3176
  176SAPI    HX20009   1.283   5.614   6.789 -1.1309  2.4214  0.4778
  176SAPI    HY20010   1.355   5.771   6.836 -1.2266  0.1705 -0.4903
  176SAPI   O3120011   1.379   5.622   6.977  0.0276  0.0387 -0.0289
  176SAPI   C3120012   1.297   5.539   7.023 -0.1585  0.0330  0.3252
  176SAPI   O3220013   1.205   5.478   6.961 -0.5278 -0.2744  0.0336
  176SAPI   C3220014   1.328   5.514   7.176  0.0466 -0.0330 -0.2782
  176SAPI   H2X20015   1.419   5.452   7.194 -0.8990 -1.7729 -1.2859
  176SAPI   H2Y20016   1.237   5.462   7.212 -0.6006  1.4531  0.2379
  176SAPI   C2320017   1.628   5.160   6.817  0.0672 -0.0027 -0.0974
  176SAPI   H3R20018   1.737   5.170   6.799 -0.0401 -0.9196 -1.3235
  176SAPI   H3S20019   1.596   5.055   6.797 -2.4240  0.8644 -0.8644
  176SAPI   C2420020   1.597   5.176   6.971  0.5006 -0.0134  0.2876
  176SAPI   H4R20021   1.603   5.071   7.008  4.0836 -0.0905 -0.2652
  176SAPI   H4S20022   1.491   5.204   6.982  0.2743 -0.8608  0.2994
  176SAPI   C2520023   1.679   5.275   7.045  0.5351  0.3137 -1.1661
  176SAPI   H5R20024   1.724   5.353   6.983  2.5905 -0.0509 -0.1565
  176SAPI   C2620025   1.716   5.278   7.172  0.9966  0.2964  0.1385
  176SAPI   H6R20026   1.764   5.364   7.219 -0.2528  0.1218  1.7701
  176SAPI   C2720027   1.675   5.179   7.279 -0.5062 -0.1629 -0.2272
  176SAPI   H7R20028   1.629   5.090   7.231  1.2438 -0.8796 -0.6309
  176SAPI   H7S20029   1.597   5.216   7.348  0.2443  2.8874 -0.9409
  176SAPI   C2820030   1.797   5.138   7.370 -0.2970 -0.2800  0.8441
  176SAPI   H8R20031   1.888   5.114   7.314 -1.4292  0.4001 -1.3683
  176SAPI   C2920032   1.808   5.149   7.504  0.3911 -0.5953  0.4858
  176SAPI   H9R20033   1.907   5.130   7.548  0.7420 -0.4256 -0.2214
  176SAPI  C21020034   1.711   5.210   7.598  0.5520  0.5850  0.2605
  176SAPI  H10R20035   1.610   5.194   7.556  0.5938 -1.8804  0.9943
  176SAPI  H10S20036   1.735   5.316   7.622  1.2126  0.8344 -1.4855
  176SAPI  C21120037   1.703   5.136   7.734 -0.1531  0.8264  0.2274
  176SAPI  H11R20038   1.680   5.029   7.737  2.2422  0.3187  2.3409
  176SAPI  C21220039   1.734   5.184   7.855  0.5456 -0.2987 -0.0460
  176SAPI  H12R20040   1.737   5.112   7.938 -1.1615  2.0693  2.1407
  176SAPI  C21320041   1.770   5.323   7.900  0.0472  0.0728  0.8071
  176SAPI  H13R20042   1.802   5.377   7.809 -0.8888  0.8827  0.9531
  176SAPI  H13S20043   1.861   5.316   7.964  0.6578 -0.4748 -0.1056
  176SAPI  C21420044   1.666   5.395   7.978 -0.0174 -0.2236 -0.3065
  176SAPI  H14R20045   1.595   5.450   7.915 -3.2056  0.0789  3.3227
  176SAPI  C21520046   1.642   5.384   8.114  0.7585  0.5507  0.4982
  176SAPI  H15R20047   1.566   5.446   8.162  0.5356 -1.3728  2.7065
  176SAPI  C21620048   1.737   5.310   8.202  1.0530  0.0454 -0.6483
  176SAPI  H16R20049   1.785   5.232   8.140 -0.8615 -3.3643  1.9590
  176SAPI  H16S20050   1.674   5.258   8.278  1.9810 -0.2801 -0.0998
  176SAPI  C21720051   1.840   5.400   8.264  0.1501  0.3875  0.1742
  176SAPI  H17R20052   1.793   5.486   8.317  0.8327 -0.8409  2.8927
  176SAPI  H17S20053   1.917   5.442   8.196 -0.8358 -1.1196 -1.9232
  176SAPI  C21820054   1.931   5.332   8.371 -0.2395 -0.5801  0.6818
  176SAPI  H18R20055   1.963   5.231   8.338 -1.7842  0.8970 -6.1295
  176SAPI  H18S20056   1.854   5.308   8.448 -0.3859 -0.9137  0.4296
  176SAPI  C21920057   2.047   5.421   8.428 -0.0734  0.7445  0.4508
  176SAPI  H19R20058   2.009   5.514   8.475 -0.7190  0.2275  0.9528
  176SAPI  H19S20059   2.107   5.433   8.334 -0.3477  1.2511  0.3404
  176SAPI  C22020060   2.136   5.348   8.524 -1.3297 -0.6773 -0.8097
  176SAPI  H20R20061   2.066   5.297   8.593 -0.5507  2.3131  2.3251
  176SAPI  H20S20062   2.207   5.411   8.582 -1.9786  0.6071 -1.3974
  176SAPI  H20T20063   2.189   5.276   8.459 -1.1938 -3.2934  2.0802
  176SAPI   C3320064   1.345   5.648   7.252 -0.7780 -0.3955 -0.3721
  176SAPI   H3X20065   1.269   5.717   7.209  1.4017  2.3014 -0.0530
  176SAPI   H3Y20066   1.446   5.694   7.247 -0.4008 -0.7828  2.6851
  176SAPI   C3420067   1.323   5.631   7.400 -0.2167  0.6250  0.3328
  176SAPI   H4X20068   1.230   5.572   7.411 -0.1093 -0.0591 -2.0633
  176SAPI   H4Y20069   1.294   5.724   7.455 -1.2121 -0.1171  1.0902
  176SAPI   C3520070   1.446   5.560   7.455 -1.1597  0.4602 -1.0691
  176SAPI   H5X20071   1.545   5.608   7.439 -0.9158  0.0667 -0.7443
  176SAPI   H5Y20072   1.452   5.460   7.407 -0.6271 -0.6781  1.2993
  176SAPI   C3620073   1.448   5.540   7.608  0.3566  0.0742 -0.1006
  176SAPI   H6X20074   1.548   5.498   7.632 -0.1005 -1.0255 -0.1048
  176SAPI   H6Y20075   1.376   5.458   7.629  0.7713 -0.4668 -0.7832
  176SAPI   C3720076   1.411   5.675   7.678  0.0368  0.8144 -0.4740
  176SAPI   H7X20077   1.301   5.690   7.680 -0.0442  0.2204 -0.3642
  176SAPI   H7Y20078   1.453   5.762   7.624  0.3144  0.7097 -0.4290
  176SAPI   C3820079   1.456   5.685   7.827  0.5585  0.9276  0.3912
  176SAPI   H8X20080   1.448   5.789   7.864  0.1440  1.1428 -0.3033
  176SAPI   H8Y20081   1.563   5.654   7.832  0.2332 -0.6120 -1.4031
  176SAPI   C3920082   1.375   5.598   7.923 -0.0995  0.2906  0.6259
  176SAPI   H9X20083   1.421   5.601   8.024  2.1764 -0.0462 -0.3760
  176SAPI   H9Y20084   1.382   5.489   7.905 -2.1192 -0.0644  1.8476
  176SAPI  C31020085   1.220   5.633   7.927 -0.3214  0.5493 -0.1808
  176SAPI  H10X20086   1.175   5.626   7.826 -1.8163 -2.1896  0.6087
  176SAPI  H10Y20087   1.213   5.739   7.959 -2.1746  0.2105  0.6396
  176SAPI  C31120088   1.147   5.556   8.028  0.8405  0.4075  0.3257
  176SAPI  H11X20089   1.208   5.547   8.120  2.2582 -0.9221 -0.7298
  176SAPI  H11Y20090   1.123   5.454   7.991 -0.2868  0.2870  1.3583
  176SAPI  C31220091   1.007   5.621   8.050 -0.7164  0.5343  0.7868
  176SAPI  H12X20092   0.932   5.543   8.076 -0.0775 -0.8507 -1.3908
  176SAPI  H12Y20093   0.957   5.651   7.956 -2.0884  2.2049  2.0032
  176SAPI  C31320094   1.001   5.734   8.149  0.2264 -0.2220  0.1268
  176SAPI  H13X20095   0.897   5.757   8.183  0.8151  0.6463  1.3941
  176SAPI  H13Y20096   1.039   5.831   8.110  0.6131 -0.4431 -0.0480
  176SAPI  C31420097   1.084   5.706   8.273 -0.4773 -0.0959 -0.4686
  176SAPI  H14X20098   1.191   5.725   8.249 -0.1373  0.6722  1.5974
  176SAPI  H14Y20099   1.064   5.597   8.280  0.7482 -0.2458  0.9699
  176SAPI  C31520100   1.032   5.775   8.396 -0.1832 -1.2168 -0.1999
  176SAPI  H15X20101   1.059   5.715   8.486  1.3987  0.2875  0.3392
  176SAPI  H15Y20102   0.921   5.765   8.395 -0.7268  3.1386  3.1129
  176SAPI  C31620103   1.081   5.927   8.400  0.3803 -0.0292  0.6625
  176SAPI  H16X20104   1.038   5.978   8.311 -1.0878 -1.0848  0.7614
  176SAPI  H16Y20105   1.192   5.940   8.399  0.3275  0.6018 -1.6180
  176SAPI  C31720106   1.032   6.006   8.529 -0.0846  0.0778 -0.6338
  176SAPI  H17X20107   0.929   5.977   8.559  0.5095  0.0616  1.4368
  176SAPI  H17Y20108   1.031   6.114   8.503  3.4292  0.2074 -0.5238
  176SAPI  C31820109   1.118   5.972   8.646  0.1118  0.6345 -0.5245
  176SAPI  H18X20110   1.096   6.032   8.737  1.1250  0.1520  0.0530
  176SAPI  H18Y20111   1.225   5.984   8.617 -0.3090 -0.3470 -2.5655
  176SAPI  H18Z20112   1.108   5.865   8.674  2.6877  0.2021 -1.0706
  177SLPC     N20113   1.142   3.043  11.129 -0.2485 -0.2012  0.6609
  177SLPC   C1320114   1.206   2.910  11.087  0.9527  0.4998 -0.1551
  177SLPC  H13A20115   1.138   2.839  11.133  2.3651 -1.0390 -0.3998
  177SLPC  H13B20116   1.212   2.899  10.979  1.7810  0.7182 -0.1327
  177SLPC  H13C20117   1.303   2.894  11.131  0.8793  1.8900  0.5407
  177SLPC   C1420118   1.200   3.160  11.072 -0.7301  0.5857 -0.3512
  177SLPC  H14A20119   1.173   3.167  10.967 -0.9467  2.3016 -0.2005
  177SLPC  H14B20120   1.177   3.251  11.127 -1.0477  1.0285 -1.1993
  177SLPC  H14C20121   1.308   3.159  11.070 -0.6350 -0.6959  2.6295
  177SLPC   C1520122   1.153   3.057  11.275  0.3866 -0.5653  0.0875
  177SLPC  H15A20123   1.117   3.152  11.313 -0.5946 -0.2556 -1.5855
  177SLPC  H15B20124   1.116   2.975  11.335 -2.8517 -0.0397 -1.0919
  177SLPC  H15C20125   1.258   3.067  11.299  0.1491 -1.4659  1.5814
  177SLPC   C1220126   0.994   3.049  11.084 -0.0095  0.0596 -0.2376
  177SLPC  H12A20127   0.991   3.015  10.982  0.2777  0.3290 -0.3350
  177SLPC  H12B20128   0.953   3.148  11.082  0.5441  0.3002  0.1557
  177SLPC   C1120129   0.890   2.948  11.148 -0.5800 -0.5631  0.3094
  177SLPC  H11A20130   0.789   2.967  11.105  1.4807  1.3610 -3.9937
  177SLPC  H11B20131   0.890   2.970  11.257  2.2267  2.1834 -0.1756
  177SLPC     P20132   0.899   2.735  10.996  0.1296  0.1833  0.1335
  177SLPC   O1320133   0.988   2.620  10.983  0.2940 -0.4449 -0.4554
  177SLPC   O1420134   0.750   2.709  10.994  0.4681  0.6689  0.7813
  177SLPC   O1220135   0.925   2.814  11.126  0.5368  0.6179 -0.2357
  177SLPC   O1120136   0.921   2.836  10.875  0.2145 -0.1473 -0.4493
  177SLPC    C120137   0.806   2.909  10.822 -0.1772 -0.8742 -0.1912
  177SLPC    HA20138   0.733   2.934  10.902  0.2274  2.5299 -0.8121
  177SLPC    HB20139   0.829   3.016  10.803 -0.2566 -1.2656 -2.6210
  177SLPC    C220140   0.756   2.848  10.694 -0.3790  0.5249 -0.4016
  177SLPC    HS20141   0.723   2.743  10.706  1.4584  0.0185  0.3350
  177SLPC   O2120142   0.852   2.860  10.585 -0.3744  0.0903 -1.1650
  177SLPC   C2120143   0.896   2.751  10.534  0.5705  0.1589  0.3601
  177SLPC   O2220144   0.852   2.639  10.552 -0.4779  0.0865 -0.0643
  177SLPC   C2220145   1.027   2.778  10.451  0.0761  0.6647 -0.1294
  177SLPC   H2R20146   1.110   2.809  10.517  0.8528  0.4615 -0.9990
  177SLPC   H2S20147   1.067   2.683  10.410  0.7980  0.5037  0.9498
  177SLPC    C320148   0.623   2.923  10.664  0.2475 -0.7463  0.3715
  177SLPC    HX20149   0.644   3.032  10.664 -2.2356 -0.2113 -0.8502
  177SLPC    HY20150   0.550   2.918  10.748 -1.7390  0.9534 -1.1823
  177SLPC   O3120151   0.557   2.889  10.542  0.2756 -0.3735 -0.4703
  177SLPC   C3120152   0.468   2.796  10.547  0.0611  0.1006  0.4682
  177SLPC   O3220153   0.428   2.737  10.642  0.3500 -0.5828  0.0126
  177SLPC   C3220154   0.435   2.766  10.401 -0.3459 -0.4675 -0.3314
  177SLPC   H2X20155   0.519   2.785  10.332 -1.5831  0.5750 -1.5787
  177SLPC   H2Y20156   0.345   2.828  10.380 -0.5549 -1.4149 -2.2979
  177SLPC   C2320157   1.009   2.864  10.329  0.2006 -0.4343  1.1241
  177SLPC   H3R20158   1.103   2.890  10.276 -1.8469  0.7974 -2.0702
  177SLPC   H3S20159   0.963   2.961  10.357 -1.9234 -0.1781 -2.8714
  177SLPC   C2420160   0.901   2.806  10.243  0.2911  0.0662  0.3565
  177SLPC   H4R20161   0.819   2.754  10.297 -0.6425 -0.9235 -1.9501
  177SLPC   H4S20162   0.959   2.719  10.206 -0.5255  0.4040 -1.7751
  177SLPC   C2520163   0.856   2.897  10.126  0.0025 -0.1086 -0.7880
  177SLPC   H5R20164   0.950   2.906  10.068  1.0996  1.6764  1.2030
  177SLPC   H5S20165   0.834   3.002  10.154  0.6315  0.3813 -2.0682
  177SLPC   C2620166   0.742   2.833  10.039  0.1436 -0.3896 -0.0544
  177SLPC   H6R20167   0.651   2.825  10.102 -0.6671 -1.3447 -1.3290
  177SLPC   H6S20168   0.765   2.730  10.006 -1.8126 -0.6947 -0.5351
  177SLPC   C2720169   0.698   2.911   9.916 -0.6502 -0.3705  0.1810
  177SLPC   H7R20170   0.658   3.006   9.955  1.0896  0.6111 -0.3727
  177SLPC   H7S20171   0.619   2.860   9.857 -0.0037 -1.7714  0.4822
  177SLPC   C2820172   0.810   2.957   9.820  0.0736  0.3345 -0.0909
  177SLPC   H8R20173   0.867   2.866   9.790 -0.2791 -0.0764  0.4553
  177SLPC   H8S20174   0.879   3.030   9.867 -0.0574 -0.9701  2.2046
  177SLPC   C2920175   0.753   3.036   9.707 -0.4097 -0.9031  0.3479
  177SLPC   H9R20176   0.722   3.139   9.728  0.5014 -0.4583 -0.4216
  177SLPC  C21020177   0.727   2.984   9.586  0.9528 -0.1274  1.0595
  177SLPC  H10R20178   0.696   3.050   9.504  1.0736  0.9569  1.8729
  177SLPC  C21120179   0.755   2.840   9.555 -0.2519 -0.1873  0.2954
  177SLPC  H11R20180   0.740   2.779   9.646 -2.0375 -0.8401 -0.4102
  177SLPC  H11S20181   0.677   2.804   9.484  1.0058 -0.0892 -1.1579
  177SLPC  C21220182   0.889   2.810   9.493  0.4973 -0.1891  0.4996
  177SLPC  H12R20183   0.970   2.798   9.566  0.4008  1.5387  0.9161
  177SLPC  C21320184   0.916   2.813   9.359 -1.0021 -0.1478  0.4158
  177SLPC  H13R20185   1.021   2.808   9.327 -0.7404 -0.2520  1.2783
  177SLPC  C21420186   0.817   2.842   9.247 -0.3286 -1.0244  0.2016
  177SLPC  H14R20187   0.859   2.927   9.189  1.5089 -1.5318  0.7446
  177SLPC  H14S20188   0.715   2.868   9.280  0.1474  0.4054  0.5601
  177SLPC  C21520189   0.808   2.725   9.145  0.1209  0.2784 -0.3434
  177SLPC  H15R20190   0.750   2.764   9.058  0.3614 -2.2441 -1.6828
  177SLPC  H15S20191   0.747   2.646   9.194 -0.6503  1.5707  0.8100
  177SLPC  C21620192   0.940   2.673   9.095 -0.5319  0.3755 -0.5373
  177SLPC  H16R20193   0.990   2.609   9.171  0.8974  1.7682 -0.2712
  177SLPC  H16S20194   1.009   2.755   9.065 -0.5976  0.2379 -1.0711
  177SLPC  C21720195   0.920   2.573   8.975  0.1864 -0.5570 -0.1801
  177SLPC  H17R20196   0.842   2.500   9.006 -0.7570 -0.1525 -1.5587
  177SLPC  H17S20197   1.019   2.523   8.966  1.0185  0.9728  0.4638
  177SLPC  C21820198   0.885   2.645   8.848 -0.2673 -0.3206  0.1458
  177SLPC  H18R20199   0.888   2.585   8.755  0.1250 -0.8667  0.5059
  177SLPC  H18S20200   0.953   2.732   8.834  0.6873 -1.2554 -1.2164
  177SLPC  H18T20201   0.784   2.689   8.857 -1.0961 -2.0077 -0.6794
  177SLPC   C3320202   0.395   2.622  10.396 -0.2983  0.4215  0.1643
  177SLPC   H3X20203   0.289   2.624  10.427 -1.0532  0.3296 -2.2768
  177SLPC   H3Y20204   0.450   2.554  10.464 -3.7146 -2.9447 -0.2369
  177SLPC   C3420205   0.421   2.558  10.259  0.3838 -0.5146  0.5614
  177SLPC   H4X20206   0.391   2.452  10.265 -0.3820 -0.3429 -0.1449
  177SLPC   H4Y20207   0.527   2.562  10.224 -0.0734  1.6635 -0.6802
  177SLPC   C3520208   0.319   2.613  10.167 -0.3065 -0.0906  0.7763
  177SLPC   H5X20209   0.350   2.719  10.156  0.8755 -0.3525  1.5109
  177SLPC   H5Y20210   0.221   2.606  10.218 -0.2625  0.5930  0.9597
  177SLPC   C3620211   0.328   2.551  10.031  1.1221  0.5704 -0.0944
  177SLPC   H6X20212   0.252   2.597   9.963 -0.0647 -1.0098  0.1271
  177SLPC   H6Y20213   0.308   2.442  10.030  2.2389  0.3255  1.6904
  177SLPC   C3720214   0.457   2.571   9.951  0.2960 -0.1972 -0.0607
  177SLPC   H7X20215   0.542   2.526  10.007  0.6979  0.6500  0.0136
  177SLPC   H7Y20216   0.481   2.679   9.942  1.4655  0.1591  5.2971
  177SLPC   C3820217   0.426   2.519   9.804 -0.1895 -0.2312  0.0613
  177SLPC   H8X20218   0.357   2.598   9.769  1.6171  1.9037  1.1694
  177SLPC   H8Y20219   0.375   2.421   9.808 -1.5120  0.2932 -2.6486
  177SLPC   C3920220   0.537   2.511   9.694 -0.1123 -0.2689  0.3104
  177SLPC   H9X20221   0.576   2.408   9.705 -2.1366 -1.2804 -1.5692
  177SLPC   H9Y20222   0.605   2.598   9.690  1.8361 -1.7104  1.3580
  177SLPC  C31020223   0.490   2.502   9.542  0.1793  0.5067  0.4506
  177SLPC  H10X20224   0.438   2.597   9.518  0.1668 -0.1238 -2.0913
  177SLPC  H10Y20225   0.418   2.421   9.521 -2.3798  2.3803  1.7238
  177SLPC  C31120226   0.613   2.480   9.442 -0.3617  0.1177 -0.2457
  177SLPC  H11X20227   0.684   2.559   9.475 -2.2525  2.4761 -1.7275
  177SLPC  H11Y20228   0.568   2.494   9.342 -0.9265 -0.2957 -0.0516
  177SLPC  C31220229   0.664   2.335   9.445 -0.2537  0.2743  0.5651
  177SLPC  H12X20230   0.585   2.266   9.410  2.3824 -0.7281 -3.8206
  177SLPC  H12Y20231   0.692   2.306   9.548 -1.1527 -0.6862  0.5474
  177SLPC  C31320232   0.790   2.325   9.363  0.0595 -0.3349 -0.2462
  177SLPC  H13X20233   0.877   2.374   9.413  0.7418 -1.8867  0.1266
  177SLPC  H13Y20234   0.787   2.371   9.262  4.2393  0.4183 -0.1261
  177SLPC  C31420235   0.833   2.175   9.336 -0.9069  0.1201 -0.8435
  177SLPC  H14X20236   0.933   2.182   9.288 -0.9847  2.5845 -0.7007
  177SLPC  H14Y20237   0.759   2.127   9.269 -4.0101  1.6575  1.3112
  177SLPC  C31520238   0.845   2.087   9.462  0.2354  1.1529 -0.2584
  177SLPC  H15X20239   0.867   1.984   9.425 -0.3564  1.1758 -0.6831
  177SLPC  H15Y20240   0.748   2.072   9.513 -0.5642  2.2323 -1.4159
  177SLPC  C31620241   0.968   2.127   9.546 -0.8334  0.4102  0.2944
  177SLPC  H16X20242   0.968   2.235   9.569 -2.0142  0.7504 -1.2514
  177SLPC  H16Y20243   1.062   2.108   9.489 -0.1067  0.6499  1.3842
  177SLPC  C31720244   0.981   2.063   9.682  0.4334 -0.7347  0.0599
  177SLPC  H17X20245   1.077   2.102   9.722  1.1275 -1.7496 -0.5934
  177SLPC  H17Y20246   1.005   1.955   9.670 -0.2443 -0.6684 -2.2794
  177SLPC  C31820247   0.868   2.078   9.779 -0.2892  0.1535 -0.1781
  177SLPC  H18X20248   0.860   2.181   9.820  1.1665  0.6200 -1.0318
  177SLPC  H18Y20249   0.881   2.016   9.870  0.0345  0.8307  0.2442
  177SLPC  H18Z20250   0.776   2.052   9.723  0.2302 -1.6079 -0.2428
  178SLPC     N20251   2.344   5.017  11.393  0.5196 -0.4339 -0.1359
  178SLPC   C1320252   2.191   5.028  11.369 -0.4970  0.2706  0.1147
  178SLPC  H13A20253   2.128   5.011  11.455 -1.1797 -2.7230 -0.9310
  178SLPC  H13B20254   2.173   5.124  11.323  1.4330  0.9851  0.7752
  178SLPC  H13C20255   2.168   4.955  11.293  0.2097  1.2179 -1.0347
  178SLPC   C1420256   2.376   4.877  11.433 -0.3173 -0.2594 -0.4244
  178SLPC  H14A20257   2.399   4.818  11.346  1.8599  0.0341 -0.0778
  178SLPC  H14B20258   2.467   4.871  11.491 -0.3328  2.5566 -0.0571
  178SLPC  H14C20259   2.301   4.822  11.489 -0.6489  0.1804 -0.4334
  178SLPC   C1520260   2.378   5.107  11.507  0.4569 -0.6410 -0.4649
  178SLPC  H15A20261   2.474   5.083  11.549  0.2237 -2.2149 -0.8153
  178SLPC  H15B20262   2.382   5.212  11.479 -1.1610 -0.3929  0.1739
  178SLPC  H15C20263   2.304   5.095  11.585  0.6460 -0.5518 -0.2709
  178SLPC   C1220264   2.421   5.056  11.272 -0.4771 -0.2104 -0.0649
  178SLPC  H12A20265   2.526   5.057  11.297 -0.4087 -1.2890 -0.2625
  178SLPC  H12B20266   2.400   5.160  11.250 -2.6214 -0.5898  0.0542
  178SLPC   C1120267   2.402   4.969  11.141  0.0281 -0.1487  0.4644
  178SLPC  H11A20268   2.435   5.041  11.063  1.7199 -1.4762 -0.0635
  178SLPC  H11B20269   2.296   4.945  11.116  0.0325  1.6596 -1.3949
  178SLPC     P20270   2.636   4.872  11.092 -0.4386  0.5357  0.0159
  178SLPC   O1320271   2.689   5.000  11.140  0.0533 -0.3600 -0.0117
  178SLPC   O1420272   2.716   4.753  11.120 -0.8320  0.3053  0.2096
  178SLPC   O1220273   2.486   4.851  11.140  0.1496 -0.3615  0.1050
  178SLPC   O1120274   2.611   4.894  10.938  0.2907  0.2247 -0.0140
  178SLPC    C120275   2.602   4.770  10.855  0.7344 -0.4459  0.0896
  178SLPC    HA20276   2.705   4.741  10.824  1.1676  1.0848  0.0071
  178SLPC    HB20277   2.552   4.689  10.912 -3.0246  0.7275 -1.3876
  178SLPC    C220278   2.535   4.798  10.712 -0.3663  0.4701  0.1298
  178SLPC    HS20279   2.542   4.700  10.660  2.7545  0.2704  0.7804
  178SLPC   O2120280   2.616   4.901  10.648  0.5727 -0.0706 -0.8501
  178SLPC   C2120281   2.716   4.856  10.571  0.6686 -0.2997 -0.1320
  178SLPC   O2220282   2.750   4.743  10.561  0.2941 -0.0015  0.2009
  178SLPC   C2220283   2.787   4.979  10.512  0.6016 -0.4444 -0.0840
  178SLPC   H2R20284   2.720   5.067  10.507  1.6498  0.3433 -0.4373
  178SLPC   H2S20285   2.871   4.997  10.583 -1.2111 -1.3445  2.3630
  178SLPC    C320286   2.384   4.836  10.728  0.3102 -0.4856  0.8755
  178SLPC    HX20287   2.392   4.919  10.801  1.0511  1.6881 -1.6347
  178SLPC    HY20288   2.333   4.749  10.776 -1.1291  0.3621  0.9030
  178SLPC   O3120289   2.344   4.874  10.597 -0.5421  0.4057 -0.4488
  178SLPC   C3120290   2.307   4.997  10.570 -0.4515  0.3756  0.2803
  178SLPC   O3220291   2.299   5.080  10.657  0.1263 -0.4614 -0.7997
  178SLPC   C3220292   2.308   5.015  10.421  0.1663  0.1289  0.1321
  178SLPC   H2X20293   2.294   4.916  10.374  0.8547 -0.1447  0.4951
  178SLPC   H2Y20294   2.412   5.052  10.408  0.6221 -1.0077  0.5391
  178SLPC   C2320295   2.852   4.940  10.375 -0.0931 -0.2594 -0.5024
  178SLPC   H3R20296   2.922   4.857  10.397  1.2850  0.2056 -2.8780
  178SLPC   H3S20297   2.919   5.019  10.335  2.3145 -1.0888  1.7735
  178SLPC   C2420298   2.757   4.896  10.263 -0.0019  0.1542 -0.3541
  178SLPC   H4R20299   2.682   4.831  10.313  2.9221  0.4572  4.8645
  178SLPC   H4S20300   2.814   4.838  10.188  0.6656 -1.4036  1.3005
  178SLPC   C2520301   2.691   5.018  10.175 -0.3529 -0.5607  0.0407
  178SLPC   H5R20302   2.774   5.073  10.127 -1.9624  0.3344 -1.7534
  178SLPC   H5S20303   2.628   5.087  10.235 -0.2890  2.2737 -3.0250
  178SLPC   C2620304   2.599   4.962  10.063 -0.7936  0.1413 -0.4929
  178SLPC   H6R20305   2.506   4.920  10.106 -0.7789  1.2218  0.6117
  178SLPC   H6S20306   2.655   4.877  10.018 -0.2266 -0.1006  0.6557
  178SLPC   C2720307   2.561   5.060   9.950  0.5067 -0.1439  0.9327
  178SLPC   H7R20308   2.509   5.151   9.987  1.1557  1.1176 -1.1636
  178SLPC   H7S20309   2.488   4.997   9.895 -1.1646 -0.8625  3.8582
  178SLPC   C2820310   2.679   5.099   9.856  0.9407  0.2016  0.5984
  178SLPC   H8R20311   2.771   5.137   9.904  1.1821 -0.7019  0.8491
  178SLPC   H8S20312   2.635   5.184   9.800 -1.0366 -2.2477 -1.7419
  178SLPC   C2920313   2.729   4.997   9.757 -0.2461 -0.1825 -0.4759
  178SLPC   H9R20314   2.788   4.919   9.808 -0.7023  2.7795  4.9686
  178SLPC  C21020315   2.720   5.000   9.618 -0.3734 -0.1578 -0.1264
  178SLPC  H10R20316   2.758   4.915   9.560 -0.0240  0.5199 -0.9054
  178SLPC  C21120317   2.639   5.104   9.548 -0.2972 -0.0241 -0.1022
  178SLPC  H11R20318   2.640   5.203   9.597 -0.7216 -1.1373  2.2468
  178SLPC  H11S20319   2.531   5.080   9.564 -0.5149  0.6932 -0.5020
  178SLPC  C21220320   2.672   5.123   9.403  0.4350 -0.0499  0.3499
  178SLPC  H12R20321   2.750   5.199   9.384  0.1807 -0.1602 -1.2328
  178SLPC  C21320322   2.612   5.074   9.301  0.7802  0.4651 -0.2258
  178SLPC  H13R20323   2.653   5.101   9.202  0.3681 -2.0107 -1.1218
  178SLPC  C21420324   2.492   4.988   9.294  0.8472  0.2534  0.5299
  178SLPC  H14R20325   2.405   5.041   9.249  0.9931  0.1672  0.1479
  178SLPC  H14S20326   2.443   4.968   9.392  0.2536 -0.7144  0.0410
  178SLPC  C21520327   2.519   4.864   9.208  0.2922 -0.3247  0.6217
  178SLPC  H15R20328   2.615   4.817   9.235  1.8130 -0.9094 -5.2116
  178SLPC  H15S20329   2.523   4.885   9.099 -1.8469  2.0510  0.9507
  178SLPC  C21620330   2.401   4.768   9.225 -0.2233  0.0183  0.5020
  178SLPC  H16R20331   2.310   4.831   9.230 -0.5047 -0.3939  0.6234
  178SLPC  H16S20332   2.416   4.706   9.317  1.4584  1.4893  1.2618
  178SLPC  C21720333   2.384   4.677   9.099  0.6540 -0.1607 -0.4339
  178SLPC  H17R20334   2.487   4.646   9.072  1.2700  1.3040  0.1862
  178SLPC  H17S20335   2.350   4.736   9.011  1.7699  0.2542 -0.6006
  178SLPC  C21820336   2.290   4.558   9.110  0.6396  0.1813 -0.4582
  178SLPC  H18R20337   2.329   4.489   9.188 -2.1327  0.1034  0.9512
  178SLPC  H18S20338   2.273   4.491   9.023  0.9860 -0.2376 -0.2112
  178SLPC  H18T20339   2.193   4.593   9.153  0.1417  0.4715 -1.7811
  178SLPC   C3320340   2.212   5.122  10.354 -0.0276 -0.8963 -0.4579
  178SLPC   H3X20341   2.244   5.213  10.409  0.7746 -0.9595 -0.8052
  178SLPC   H3Y20342   2.112   5.092  10.392 -0.0023  1.4037  1.5530
  178SLPC   C3420343   2.236   5.133  10.205 -0.0544  0.4314 -0.2968
  178SLPC   H4X20344   2.339   5.155  10.171 -1.0524  0.2588 -3.6408
  178SLPC   H4Y20345   2.171   5.214  10.165 -1.4480 -1.4060 -1.8692
  178SLPC   C3520346   2.190   4.996  10.146  0.2465 -0.7049 -0.0294
  178SLPC   H5X20347   2.098   4.963  10.200  0.8309 -0.6941  0.9727
  178SLPC   H5Y20348   2.265   4.917  10.164 -2.2778 -3.1876  0.0409
  178SLPC   C3620349   2.162   5.017   9.993  0.0886 -0.0532 -0.3016
  178SLPC   H6X20350   2.157   4.914   9.953 -2.4687 -0.7340  1.6905
  178SLPC   H6Y20351   2.242   5.079   9.947 -1.4366  0.9486 -1.7192
  178SLPC   C3720352   2.028   5.089   9.971  0.2794  0.4222  0.4892
  178SLPC   H7X20353   2.030   5.195  10.001  1.2630  0.0820  1.6673
  178SLPC   H7Y20354   1.953   5.042  10.039  1.0081  0.6923  1.4857
  178SLPC   C3820355   1.971   5.060   9.833 -0.6287 -0.3400 -0.1159
  178SLPC   H8X20356   1.864   5.089   9.825 -0.5581  0.2047  0.8968
  178SLPC   H8Y20357   1.979   4.951   9.811  0.6163 -0.2773  0.0261
  178SLPC   C3920358   2.063   5.127   9.724  0.8087 -0.5143 -0.0877
  178SLPC   H9X20359   2.169   5.095   9.723  0.9951  0.0522  0.8433
  178SLPC   H9Y20360   2.084   5.232   9.755  1.5402 -0.0724 -2.0398
  178SLPC  C31020361   1.994   5.125   9.589  0.6832  0.2811  0.5428
  178SLPC  H10X20362   1.895   5.172   9.577  1.2977  1.5496  0.3384
  178SLPC  H10Y20363   1.974   5.018   9.569 -1.4016  0.4370  1.7397
  178SLPC  C31120364   2.094   5.183   9.487 -0.0882  0.1050  0.4883
  178SLPC  H11X20365   2.187   5.123   9.482  0.9251  1.6946 -0.1487
  178SLPC  H11Y20366   2.128   5.283   9.520  1.7824 -0.0447 -0.9589
  178SLPC  C31220367   2.027   5.193   9.350 -0.4280  0.3519  1.1629
  178SLPC  H12X20368   1.950   5.274   9.347 -0.5867  0.1626 -1.8716
  178SLPC  H12Y20369   1.973   5.101   9.319 -2.8560  1.5702  1.6414
  178SLPC  C31320370   2.135   5.224   9.248  0.7591  0.0282 -0.4572
  178SLPC  H13X20371   2.225   5.164   9.276 -0.0960 -0.1310  2.0119
  178SLPC  H13Y20372   2.154   5.333   9.262  1.0317 -0.1233  0.3830
  178SLPC  C31420373   2.091   5.190   9.105 -0.2528  0.0452 -0.1541
  178SLPC  H14X20374   1.993   5.239   9.084 -1.0288 -0.9104  1.1929
  178SLPC  H14Y20375   2.069   5.082   9.098  0.4064 -0.0065 -1.7083
  178SLPC  C31520376   2.194   5.224   8.996 -0.2934  0.5033  0.3191
  178SLPC  H15X20377   2.200   5.332   8.969 -0.2349  0.6860  1.0466
  178SLPC  H15Y20378   2.295   5.196   9.033 -0.6159 -0.2889  0.6021
  178SLPC  C31620379   2.164   5.154   8.865 -0.4062 -0.8165 -0.6202
  178SLPC  H16X20380   2.243   5.190   8.796 -0.6212  3.6793  1.3054
  178SLPC  H16Y20381   2.060   5.175   8.834 -0.6932 -1.2369  0.0405
  178SLPC  C31720382   2.187   4.997   8.869  0.3453 -0.1517  0.0877
  178SLPC  H17X20383   2.093   4.952   8.909  1.2058 -1.5696  0.5559
  178SLPC  H17Y20384   2.255   4.977   8.955  0.8206  2.8484  0.4564
  178SLPC  C31820385   2.211   4.932   8.734 -0.2500 -0.5701  0.2990
  178SLPC  H18X20386   2.120   4.937   8.670 -0.8757  0.4439  1.2571
  178SLPC  H18Y20387   2.235   4.824   8.745  0.4296 -0.5305 -0.7065
  178SLPC  H18Z20388   2.299   4.970   8.678 -0.6503 -0.7541 -0.4512
  179SLPC     N20389   5.014   0.692  10.259  1.0661  0.0147 -0.4575
  179SLPC   C1320390   5.000   0.558  10.190  0.7364  0.5438  0.5597
  179SLPC  H13A20391   5.082   0.552  10.120  1.3398 -4.1227  1.4832
  179SLPC  H13B20392   5.018   0.483  10.266 -0.0677  0.0396  0.2573
  179SLPC  H13C20393   4.905   0.551  10.139  0.5228 -1.7019  1.2081
  179SLPC   C1420394   5.030   0.807  10.168  0.8945  0.6849 -0.2243
  179SLPC  H14A20395   4.940   0.829  10.113  0.3778  0.4975  0.5406
  179SLPC  H14B20396   5.060   0.890  10.231 -2.7837 -0.2979  2.9629
  179SLPC  H14C20397   5.116   0.784  10.107  1.0155  0.2093  0.1296
  179SLPC   C1520398   5.133   0.686  10.338  0.0916  0.5949 -0.8917
  179SLPC  H15A20399   5.152   0.775  10.396  1.2542  0.9616 -1.8178
  179SLPC  H15B20400   5.131   0.605  10.410 -0.9754  1.0851 -0.3578
  179SLPC  H15C20401   5.216   0.662  10.273  0.7120 -0.6213  0.3170
  179SLPC   C1220402   4.891   0.695  10.351 -0.6509 -0.0287  0.9034
  179SLPC  H12A20403   4.896   0.620  10.429  0.2361  2.4467  3.2988
  179SLPC  H12B20404   4.807   0.667  10.289 -0.9327 -1.4825  1.9084
  179SLPC   C1120405   4.867   0.834  10.406  0.1196  0.1023 -0.3614
  179SLPC  H11A20406   4.854   0.916  10.332 -0.8910 -0.3768 -0.7132
  179SLPC  H11B20407   4.950   0.866  10.472 -0.5542  1.3074 -0.0899
  179SLPC     P20408   4.601   0.803  10.430  0.2257 -0.5964 -0.0263
  179SLPC   O1320409   4.571   0.658  10.438 -1.2299 -0.3104  0.5912
  179SLPC   O1420410   4.513   0.897  10.498 -0.4313 -0.2451  0.0167
  179SLPC   O1220411   4.747   0.832  10.487 -0.0571  0.1470 -0.1726
  179SLPC   O1120412   4.626   0.851  10.279  0.0132  0.1780  0.0555
  179SLPC    C120413   4.565   0.974  10.234 -0.5956  0.3231 -0.7321
  179SLPC    HA20414   4.612   1.063  10.281 -0.5269 -0.3130  0.4311
  179SLPC    HB20415   4.583   0.994  10.126 -1.6150 -1.2107 -1.1943
  179SLPC    C220416   4.407   0.959  10.223 -0.3854 -0.6735 -0.1302
  179SLPC    HS20417   4.364   0.961  10.325  0.7652  2.2411  0.3334
  179SLPC   O2120418   4.383   0.831  10.164 -0.0458  0.0963 -0.0842
  179SLPC   C2120419   4.256   0.794  10.177 -0.0120 -0.7388 -0.1975
  179SLPC   O2220420   4.175   0.834  10.253  0.1444  0.1592 -0.2335
  179SLPC   C2220421   4.227   0.691  10.072 -0.4367 -0.9149 -0.0679
  179SLPC   H2R20422   4.204   0.746   9.978 -1.9472 -1.8116 -0.2477
  179SLPC   H2S20423   4.322   0.635  10.069  0.3432  0.4295 -0.4821
  179SLPC    C320424   4.339   1.066  10.132  0.1630  0.3465 -0.1762
  179SLPC    HX20425   4.380   1.160  10.175 -1.8967  0.4978  1.5396
  179SLPC    HY20426   4.229   1.060  10.144  0.1744 -0.4889 -0.4637
  179SLPC   O3120427   4.369   1.061   9.993 -0.7351 -0.2067 -0.0016
  179SLPC   C3120428   4.334   1.155   9.916 -0.1304 -0.1788 -1.0825
  179SLPC   O3220429   4.271   1.253   9.952  0.6925 -1.0328 -0.5613
  179SLPC   C3220430   4.388   1.125   9.780  0.2271 -0.9725  0.1069
  179SLPC   H2X20431   4.360   1.023   9.748  0.0794 -1.3812  1.5015
  179SLPC   H2Y20432   4.499   1.133   9.787  0.1652  0.6247 -0.4185
  179SLPC   C2320433   4.102   0.607  10.106  0.0224 -0.6448 -0.3350
  179SLPC   H3R20434   4.008   0.666  10.100 -0.7868 -2.0514 -2.1220
  179SLPC   H3S20435   4.119   0.563  10.206  1.0768  1.3983  0.4083
  179SLPC   C2420436   4.083   0.488  10.011  0.9270 -0.2788  0.2187
  179SLPC   H4R20437   4.005   0.420  10.053  0.3655  0.2322  0.0121
  179SLPC   H4S20438   4.178   0.431  10.006  0.6693 -0.7279  0.3481
  179SLPC   C2520439   4.043   0.524   9.865  0.2267 -0.2903 -0.9418
  179SLPC   H5R20440   4.134   0.575   9.827  1.0744  0.6107  2.1097
  179SLPC   H5S20441   3.953   0.588   9.861 -1.1485 -2.1994 -1.5639
  179SLPC   C2620442   4.021   0.395   9.779 -0.1069  0.2409  0.1495
  179SLPC   H6R20443   3.915   0.370   9.804 -0.6120  2.1152 -0.0423
  179SLPC   H6S20444   4.075   0.308   9.822 -1.6907 -1.3212 -0.9356
  179SLPC   C2720445   4.049   0.412   9.627 -0.5497 -0.1690 -0.7953
  179SLPC   H7R20446   4.015   0.320   9.575 -2.5703  1.1784 -1.9198
  179SLPC   H7S20447   4.159   0.428   9.621 -0.4321 -1.2759 -1.7455
  179SLPC   C2820448   3.994   0.543   9.564  0.6200  0.1323 -0.0125
  179SLPC   H8R20449   4.047   0.550   9.467 -1.1909 -1.4929 -1.1694
  179SLPC   H8S20450   4.038   0.621   9.629 -0.5207 -0.9441  2.1113
  179SLPC   C2920451   3.839   0.547   9.559 -1.1395  0.3731 -0.4829
  179SLPC   H9R20452   3.799   0.536   9.661  0.8486  1.4440  0.4336
  179SLPC  C21020453   3.773   0.566   9.444 -0.5809 -0.2485 -0.8557
  179SLPC  H10R20454   3.663   0.565   9.442 -0.5607 -0.3304 -2.5902
  179SLPC  C21120455   3.841   0.589   9.315 -0.1785  0.0514 -0.1795
  179SLPC  H11R20456   3.901   0.499   9.289 -0.4177 -0.1553 -0.0186
  179SLPC  H11S20457   3.920   0.667   9.326  0.0296 -0.0278 -1.0718
  179SLPC  C21220458   3.736   0.621   9.206  0.2564 -0.4739 -0.3917
  179SLPC  H12R20459   3.648   0.555   9.217  1.7764 -2.3744  0.7069
  179SLPC  C21320460   3.756   0.713   9.111  0.3635 -0.3248 -0.3829
  179SLPC  H13R20461   3.673   0.739   9.044  0.8824  0.9005 -0.5470
  179SLPC  C21420462   3.875   0.793   9.082 -0.1208  0.6869 -0.3155
  179SLPC  H14R20463   3.961   0.746   9.133 -2.5488 -1.3969  1.9836
  179SLPC  H14S20464   3.850   0.894   9.123  2.5570  0.4557  2.0091
  179SLPC  C21520465   3.920   0.809   8.940 -0.0463  0.7801  0.1176
  179SLPC  H15R20466   3.957   0.709   8.909  3.6046  2.5617 -1.4759
  179SLPC  H15S20467   4.011   0.872   8.939  1.2056 -1.0127 -1.0406
  179SLPC  C21620468   3.822   0.887   8.855  0.0683  0.1252  0.6593
  179SLPC  H16R20469   3.786   0.974   8.914  1.8721  0.5790  1.1144
  179SLPC  H16S20470   3.733   0.826   8.828  0.0367  0.8512 -0.9341
  179SLPC  C21720471   3.894   0.939   8.728  0.3698 -0.2079 -0.1600
  179SLPC  H17R20472   3.988   0.995   8.747 -0.2664 -0.2652  3.5271
  179SLPC  H17S20473   3.831   1.017   8.680  0.5218  0.7232  1.1242
  179SLPC  C21820474   3.925   0.836   8.621  0.0729  0.3431 -0.1480
  179SLPC  H18R20475   4.013   0.778   8.655 -0.4721  0.8798  2.3143
  179SLPC  H18S20476   3.935   0.876   8.518  1.1188 -1.0139 -0.5835
  179SLPC  H18T20477   3.836   0.770   8.612 -0.3298  0.9730 -0.7736
  179SLPC   C3320478   4.338   1.226   9.678 -0.6049 -0.3908  0.4030
  179SLPC   H3X20479   4.370   1.324   9.718 -1.5733 -0.2537  0.8345
  179SLPC   H3Y20480   4.228   1.217   9.674 -0.8470  1.1159  2.7304
  179SLPC   C3420481   4.408   1.193   9.548  0.7640 -0.5968  0.2551
  179SLPC   H4X20482   4.374   1.093   9.516  1.9713 -0.2216 -2.3586
  179SLPC   H4Y20483   4.516   1.185   9.573  0.6460  0.5555  1.2429
  179SLPC   C3520484   4.381   1.291   9.438 -0.4260 -0.3330 -0.2066
  179SLPC   H5X20485   4.432   1.386   9.465 -1.0238 -0.7119  2.3418
  179SLPC   H5Y20486   4.271   1.307   9.439 -0.2759  0.7958 -1.0188
  179SLPC   C3620487   4.418   1.234   9.298 -0.0387 -0.6569  0.0242
  179SLPC   H6X20488   4.366   1.141   9.268  0.3808 -0.8030 -0.2655
  179SLPC   H6Y20489   4.527   1.213   9.287  0.7132  1.8697  1.9723
  179SLPC   C3720490   4.386   1.341   9.183 -0.0469  0.1478 -0.3893
  179SLPC   H7X20491   4.439   1.433   9.216 -0.8757  0.1246  1.0246
  179SLPC   H7Y20492   4.277   1.347   9.163 -0.2271 -2.4072 -0.3670
  179SLPC   C3820493   4.452   1.301   9.051 -0.2723 -0.8155 -0.1158
  179SLPC   H8X20494   4.399   1.219   8.999 -1.4021  0.2301 -0.6586
  179SLPC   H8Y20495   4.557   1.280   9.082 -0.4083 -0.1590  0.7988
  179SLPC   C3920496   4.457   1.422   8.951 -0.5526 -0.1510  0.2084
  179SLPC   H9X20497   4.498   1.385   8.854 -0.2584  0.5122  0.0757
  179SLPC   H9Y20498   4.516   1.506   8.994 -1.9023  1.0068 -0.1682
  179SLPC  C31020499   4.316   1.479   8.914  0.1767 -0.2064  0.8148
  179SLPC  H10X20500   4.340   1.576   8.865  2.0998  0.1565  2.3915
  179SLPC  H10Y20501   4.263   1.498   9.010 -1.7883 -0.5618 -0.1720
  179SLPC  C31120502   4.228   1.379   8.832  0.6167 -0.2794 -0.8542
  179SLPC  H11X20503   4.219   1.283   8.888  0.0185  0.3078  0.0533
  179SLPC  H11Y20504   4.268   1.362   8.729 -1.2671 -1.2799 -1.4484
  179SLPC  C31220505   4.077   1.416   8.825  0.5447  0.0156 -0.0929
  179SLPC  H12X20506   4.062   1.510   8.768  1.6662 -0.1490 -0.6719
  179SLPC  H12Y20507   4.043   1.441   8.928 -1.6398  0.5604 -0.9189
  179SLPC  C31320508   3.994   1.295   8.775  0.7075 -0.4035 -0.5782
  179SLPC  H13X20509   4.000   1.218   8.855 -0.9548  0.6602  0.6043
  179SLPC  H13Y20510   4.034   1.256   8.679  0.4665 -0.5984 -0.5997
  179SLPC  C31420511   3.845   1.325   8.742  0.4730  0.1927  0.8046
  179SLPC  H14X20512   3.806   1.340   8.845 -0.2060 -0.9229  0.7235
  179SLPC  H14Y20513   3.785   1.238   8.706  1.1644 -0.2266  0.6652
  179SLPC  C31520514   3.820   1.433   8.640 -0.1092 -0.3649  0.4128
  179SLPC  H15X20515   3.861   1.409   8.540  0.6424  1.4760  0.2586
  179SLPC  H15Y20516   3.883   1.519   8.674 -0.5048  0.0910 -0.0037
  179SLPC  C31620517   3.675   1.470   8.629  0.1422 -0.3930 -0.4416
  179SLPC  H16X20518   3.655   1.571   8.588  0.7600 -0.1130 -0.0532
  179SLPC  H16Y20519   3.633   1.474   8.731  1.7811  0.1091  0.2303
  179SLPC  C31720520   3.596   1.364   8.542  0.5628  0.7528 -0.0048
  179SLPC  H17X20521   3.639   1.265   8.567 -1.3642  0.1776  1.1056
  179SLPC  H17Y20522   3.617   1.389   8.436  0.7828  0.2357 -0.0836
  179SLPC  C31820523   3.448   1.365   8.565 -0.2632  0.1340 -0.8179
  179SLPC  H18X20524   3.404   1.286   8.501 -2.4316 -0.6664  1.5818
  179SLPC  H18Y20525   3.412   1.457   8.515 -1.3973 -0.9617 -2.0563
  179SLPC  H18Z20526   3.419   1.351   8.672  1.4904  1.1032 -0.1957
  180SLPC     N20527   4.576   5.607  10.769  0.0740  0.6614 -0.7510
  180SLPC   C1320528   4.473   5.497  10.751  0.5585 -0.1230  0.0211
  180SLPC  H13A20529   4.513   5.418  10.689 -1.9509  0.1405 -2.0090
  180SLPC  H13B20530   4.433   5.457  10.843  1.8109 -0.6799  0.3330
  180SLPC  H13C20531   4.396   5.540  10.690  1.5275 -0.1984 -1.2835
  180SLPC   C1420532   4.519   5.723  10.839 -0.4657  0.3978 -0.0316
  180SLPC  H14A20533   4.517   5.704  10.945 -0.9421  1.7989  0.2276
  180SLPC  H14B20534   4.574   5.813  10.818 -0.5336  0.5841  0.5696
  180SLPC  H14C20535   4.419   5.745  10.802 -0.0763  0.5149 -1.0242
  180SLPC   C1520536   4.613   5.653  10.628  0.0287  0.1294 -0.4530
  180SLPC  H15A20537   4.670   5.574  10.582 -0.0212  0.8914 -1.8651
  180SLPC  H15B20538   4.524   5.676  10.570  0.0428  1.5076  0.0566
  180SLPC  H15C20539   4.682   5.735  10.614 -0.2064  0.3522 -0.3053
  180SLPC   C1220540   4.698   5.557  10.846  0.5663 -0.1341  0.4610
  180SLPC  H12A20541   4.667   5.537  10.947  0.4361 -3.0836 -0.1211
  180SLPC  H12B20542   4.769   5.639  10.853 -0.2715  0.6301  0.1695
  180SLPC   C1120543   4.774   5.433  10.789 -0.2630  0.7003  0.5158
  180SLPC  H11A20544   4.713   5.340  10.781 -1.4798  1.6464 -1.6621
  180SLPC  H11B20545   4.848   5.401  10.865  0.2629 -2.1165 -1.0768
  180SLPC     P20546   4.982   5.522  10.678 -0.1263 -0.1620  0.2266
  180SLPC   O1320547   4.975   5.659  10.741  0.4394  0.1017 -0.2260
  180SLPC   O1420548   5.068   5.418  10.737 -0.9981  0.2180 -0.0401
  180SLPC   O1220549   4.838   5.457  10.662 -0.3931  0.0445  0.4543
  180SLPC   O1120550   5.028   5.542  10.539  0.0450 -0.3095  0.0496
  180SLPC    C120551   5.163   5.572  10.502 -0.2635  0.0377  0.2826
  180SLPC    HA20552   5.167   5.672  10.454 -1.1494 -0.2079 -0.3090
  180SLPC    HB20553   5.232   5.578  10.590  2.4356 -1.3556 -1.6743
  180SLPC    C220554   5.212   5.472  10.401  0.9529 -0.6819 -0.6817
  180SLPC    HS20555   5.311   5.505  10.362  0.1454  2.2778 -0.3545
  180SLPC   O2120556   5.128   5.479  10.283 -0.0816  0.0608  0.6181
  180SLPC   C2120557   5.163   5.409  10.178 -0.1648  0.1028 -0.7155
  180SLPC   O2220558   5.277   5.366  10.150 -0.0637  0.4430  0.0973
  180SLPC   C2220559   5.041   5.408  10.081  0.1053  0.5907  0.5559
  180SLPC   H2R20560   4.961   5.342  10.119 -1.4610  0.7456 -2.3149
  180SLPC   H2S20561   5.000   5.511  10.074  1.5194  1.0918 -0.6748
  180SLPC    C320562   5.232   5.328  10.460 -1.3111 -0.4184 -0.7010
  180SLPC    HX20563   5.131   5.283  10.465 -1.3936 -0.3480 -1.5913
  180SLPC    HY20564   5.268   5.336  10.565 -0.1777  0.3168 -1.1406
  180SLPC   O3120565   5.317   5.233  10.378  0.6752  0.0268 -0.2354
  180SLPC   C3120566   5.445   5.260  10.390  0.4074  0.3227 -0.2785
  180SLPC   O3220567   5.486   5.358  10.452 -0.3952  0.0504  0.4674
  180SLPC   C3220568   5.528   5.161  10.312 -0.9275 -0.1086  0.0620
  180SLPC   H2X20569   5.455   5.113  10.244 -2.8175 -0.0879  2.0382
  180SLPC   H2Y20570   5.564   5.081  10.380 -0.3726 -1.9777 -2.3530
  180SLPC   C2320571   5.081   5.367   9.936  0.0096  0.5627 -0.2255
  180SLPC   H3R20572   4.986   5.369   9.877  0.4430  1.5371 -0.9106
  180SLPC   H3S20573   5.126   5.267   9.924  3.2882  1.5569  3.1830
  180SLPC   C2420574   5.185   5.461   9.865 -0.3052  0.1063  0.3195
  180SLPC   H4R20575   5.284   5.447   9.912 -0.8747  0.1046  1.5328
  180SLPC   H4S20576   5.164   5.566   9.894 -1.0061 -0.1009  0.5739
  180SLPC   C2520577   5.185   5.430   9.716  0.2709  0.3705 -0.1937
  180SLPC   H5R20578   5.155   5.325   9.696 -2.2840  0.7095  1.6463
  180SLPC   H5S20579   5.289   5.445   9.678 -0.3638  1.0803 -1.7031
  180SLPC   C2620580   5.095   5.536   9.639  0.0119  0.1485 -0.1445
  180SLPC   H6R20581   5.142   5.635   9.620  0.3415  0.2252  1.0499
  180SLPC   H6S20582   4.995   5.547   9.685 -0.4017 -1.5960 -0.5928
  180SLPC   C2720583   5.063   5.484   9.496  0.4135 -0.1859  0.2217
  180SLPC   H7R20584   5.156   5.437   9.457 -0.3196  0.1975 -2.0566
  180SLPC   H7S20585   5.032   5.568   9.430  0.4625  0.5912  1.1794
  180SLPC   C2820586   4.955   5.365   9.486 -0.3096 -0.7295  0.6522
  180SLPC   H8R20587   4.854   5.410   9.482 -0.4771 -1.1338  0.3627
  180SLPC   H8S20588   4.960   5.316   9.585  1.5039 -3.1702 -0.6144
  180SLPC   C2920589   5.003   5.258   9.390 -0.0764 -0.1237 -0.4102
  180SLPC   H9R20590   5.105   5.221   9.406 -0.3507 -0.4379  0.6763
  180SLPC  C21020591   4.946   5.207   9.278  0.0138  0.8222  0.8805
  180SLPC  H10R20592   4.998   5.130   9.220  0.3109  1.7720 -0.1217
  180SLPC  C21120593   4.809   5.238   9.213  0.6369  0.4399 -0.4828
  180SLPC  H11R20594   4.738   5.258   9.296  1.3728 -1.8471  0.7526
  180SLPC  H11S20595   4.761   5.146   9.173  0.1432  1.2711 -1.8154
  180SLPC  C21220596   4.799   5.351   9.113 -0.1762 -0.4735  0.2098
  180SLPC  H12R20597   4.858   5.441   9.136  1.5743 -1.0701 -1.7787
  180SLPC  C21320598   4.741   5.351   8.995  0.8160  0.1333 -0.3816
  180SLPC  H13R20599   4.759   5.442   8.937 -0.2903  1.5401  1.4369
  180SLPC  C21420600   4.675   5.228   8.938 -0.1189 -0.4951 -0.1580
  180SLPC  H14R20601   4.581   5.267   8.892 -0.1068 -0.4960 -0.1832
  180SLPC  H14S20602   4.652   5.147   9.011 -1.1061 -0.6110 -0.5829
  180SLPC  C21520603   4.748   5.147   8.835 -0.0475  0.2895  0.5241
  180SLPC  H15R20604   4.683   5.063   8.800  0.2478  0.4249 -0.3724
  180SLPC  H15S20605   4.843   5.109   8.879  0.4685  0.3657 -0.5075
  180SLPC  C21620606   4.799   5.224   8.715 -0.6537  0.2064  0.1505
  180SLPC  H16R20607   4.872   5.163   8.657 -0.4310  0.3907  0.2333
  180SLPC  H16S20608   4.867   5.302   8.756  0.7405  0.2209 -2.0911
  180SLPC  C21720609   4.681   5.256   8.624  0.1515  0.5520 -0.3931
  180SLPC  H17R20610   4.604   5.319   8.673  1.3698  2.6978 -1.1731
  180SLPC  H17S20611   4.634   5.164   8.581  1.4808 -0.3020 -0.0499
  180SLPC  C21820612   4.733   5.341   8.503  0.1002  0.5527 -0.3051
  180SLPC  H18R20613   4.763   5.440   8.545  5.0280 -0.6443 -0.6429
  180SLPC  H18S20614   4.649   5.353   8.432 -0.1773  1.0590  0.1079
  180SLPC  H18T20615   4.820   5.297   8.450 -1.2570 -1.1703 -1.1379
  180SLPC   C3320616   5.653   5.220  10.245  0.1745 -0.9595  0.5425
  180SLPC   H3X20617   5.743   5.156  10.235 -0.1317 -1.2480 -0.4660
  180SLPC   H3Y20618   5.680   5.317  10.292  1.7312 -0.0464 -2.1301
  180SLPC   C3420619   5.609   5.252  10.104  0.6819  0.0704  0.7626
  180SLPC   H4X20620   5.518   5.316  10.105  1.4433  1.1574  2.3727
  180SLPC   H4Y20621   5.587   5.165  10.039  3.2361  1.1116 -1.5791
  180SLPC   C3520622   5.714   5.347  10.038 -0.8679  0.0192  0.3712
  180SLPC   H5X20623   5.802   5.281  10.029 -2.8723 -2.8328  0.8743
  180SLPC   H5Y20624   5.742   5.422  10.115 -0.1639 -0.4096  0.5338
  180SLPC   C3620625   5.676   5.420   9.915 -0.0351 -0.4334  0.1491
  180SLPC   H6X20626   5.767   5.466   9.870  0.8398 -1.3066  1.0004
  180SLPC   H6Y20627   5.601   5.499   9.937 -0.2854  0.1949 -2.7370
  180SLPC   C3720628   5.612   5.334   9.802 -0.0484  0.1298  0.0339
  180SLPC   H7X20629   5.505   5.305   9.812  0.1142 -0.7900 -0.8236
  180SLPC   H7Y20630   5.671   5.241   9.787 -0.5750 -0.4253  1.2860
  180SLPC   C3820631   5.631   5.409   9.673 -0.6079 -0.3282  0.4926
  180SLPC   H8X20632   5.741   5.422   9.665 -0.4866 -0.6709  1.5852
  180SLPC   H8Y20633   5.592   5.513   9.678  0.7734  0.2128  0.1027
  180SLPC   C3920634   5.575   5.339   9.542  0.3278  0.7284 -0.2251
  180SLPC   H9X20635   5.618   5.399   9.459  0.6207  0.3613 -0.3407
  180SLPC   H9Y20636   5.464   5.337   9.538  0.3437 -0.5755 -0.2049
  180SLPC  C31020637   5.632   5.201   9.519 -0.0326 -0.5676 -0.6088
  180SLPC  H10X20638   5.557   5.127   9.556 -0.6141 -0.2217 -1.0887
  180SLPC  H10Y20639   5.715   5.184   9.591  0.3348 -1.0535 -1.1372
  180SLPC  C31120640   5.673   5.158   9.380 -0.1696  0.7094  0.0751
  180SLPC  H11X20641   5.683   5.049   9.362  1.0263  0.9496 -0.7655
  180SLPC  H11Y20642   5.772   5.207   9.371 -0.1591  0.3732 -1.7374
  180SLPC  C31220643   5.590   5.205   9.259 -0.2491 -0.1087  0.1826
  180SLPC  H12X20644   5.590   5.316   9.268 -0.1254  0.0784 -1.8991
  180SLPC  H12Y20645   5.485   5.170   9.264 -0.4083  0.2458 -0.6046
  180SLPC  C31320646   5.647   5.167   9.121  0.7094  0.3336 -0.1527
  180SLPC  H13X20647   5.632   5.057   9.119  3.5075 -0.0923  0.2691
  180SLPC  H13Y20648   5.758   5.165   9.126  0.6759 -1.6382  0.0229
  180SLPC  C31420649   5.606   5.248   8.995  0.7946 -0.3817 -0.1562
  180SLPC  H14X20650   5.619   5.353   9.031  0.8592 -1.4030  3.0167
  180SLPC  H14Y20651   5.498   5.226   8.980  1.5520 -2.5699 -2.8180
  180SLPC  C31520652   5.679   5.214   8.871  0.0001 -0.0943 -0.9918
  180SLPC  H15X20653   5.658   5.106   8.852 -1.0170 -0.4853  2.0948
  180SLPC  H15Y20654   5.788   5.225   8.884  0.1822 -1.3447 -1.3953
  180SLPC  C31620655   5.646   5.304   8.753  0.0739  0.6787  0.6766
  180SLPC  H16X20656   5.667   5.403   8.799 -1.2399  0.7873  1.0925
  180SLPC  H16Y20657   5.540   5.298   8.720  0.8623 -1.2499 -1.6114
  180SLPC  C31720658   5.738   5.295   8.626  0.3426 -0.3868  0.6413
  180SLPC  H17X20659   5.840   5.300   8.669  0.3909  2.4928  0.2626
  180SLPC  H17Y20660   5.725   5.379   8.555 -0.2325  0.1710  1.3920
  180SLPC  C31820661   5.730   5.165   8.549  0.1670  0.2791 -0.4689
  180SLPC  H18X20662   5.752   5.086   8.623 -1.9079 -0.1540 -0.2632
  180SLPC  H18Y20663   5.805   5.158   8.468 -1.2201  1.0591 -1.8546
  180SLPC  H18Z20664   5.624   5.159   8.514 -0.7850 -1.8919  2.5368
  181SLPC     N20665   0.621   3.697  11.157  0.1632 -0.5032 -0.1106
  181SLPC   C1320666   0.590   3.549  11.149 -0.6346 -0.2689  0.1416
  181SLPC  H13A20667   0.669   3.499  11.203  2.6742  2.3633 -2.0476
  181SLPC  H13B20668   0.497   3.529  11.199 -2.0362  0.9873 -1.8772
  181SLPC  H13C20669   0.592   3.512  11.048  0.1309  3.2536 -1.2204
  181SLPC   C1420670   0.570   3.758  11.287 -0.4114  0.1439 -0.6197
  181SLPC  H14A20671   0.605   3.693  11.367 -0.4912 -0.5966 -1.1805
  181SLPC  H14B20672   0.615   3.853  11.310 -0.6998 -0.0641  0.8538
  181SLPC  H14C20673   0.463   3.771  11.289 -0.3452  0.7557 -1.0648
  181SLPC   C1520674   0.556   3.767  11.041  0.0543  0.0071 -0.4550
  181SLPC  H15A20675   0.596   3.739  10.944 -0.2608 -0.0427 -0.5714
  181SLPC  H15B20676   0.459   3.720  11.032 -0.8846  1.8674 -0.3163
  181SLPC  H15C20677   0.537   3.873  11.046  1.5274  0.1499  2.6261
  181SLPC   C1220678   0.772   3.722  11.153 -0.5240 -0.4658  0.4185
  181SLPC  H12A20679   0.789   3.828  11.151  0.6381 -0.6423  0.6194
  181SLPC  H12B20680   0.805   3.693  11.055  1.5025  1.4711  0.5112
  181SLPC   C1120681   0.863   3.656  11.260 -0.0156  0.3273  0.0472
  181SLPC  H11A20682   0.817   3.686  11.357  0.4311 -1.9112  0.9913
  181SLPC  H11B20683   0.967   3.694  11.256  0.3421 -0.6950 -0.4299
  181SLPC     P20684   0.942   3.441  11.136  0.1960  0.1106  0.2804
  181SLPC   O1320685   1.075   3.398  11.186 -0.6771 -0.4270  0.2824
  181SLPC   O1420686   0.861   3.327  11.097  0.1996 -0.5331 -0.0030
  181SLPC   O1220687   0.864   3.511  11.254 -0.3204 -0.1085  0.6582
  181SLPC   O1120688   0.950   3.541  11.013  0.2925 -0.0714 -0.3658
  181SLPC    C120689   1.075   3.606  10.980 -0.1991 -0.1612  0.1256
  181SLPC    HA20690   1.118   3.654  11.071  1.3099  0.9838 -1.1800
  181SLPC    HB20691   1.149   3.533  10.941 -1.8173 -1.4459 -0.5736
  181SLPC    C220692   1.062   3.717  10.870  1.1203  0.2282 -0.0008
  181SLPC    HS20693   1.015   3.804  10.921  1.7449  0.4507  0.1928
  181SLPC   O2120694   0.988   3.657  10.766  0.5672  0.0105 -0.1353
  181SLPC   C2120695   0.859   3.676  10.769 -0.2867 -0.0301 -0.4315
  181SLPC   O2220696   0.796   3.743  10.851 -0.3761  0.3022  0.1433
  181SLPC   C2220697   0.781   3.623  10.647 -0.1446 -0.3417 -0.4365
  181SLPC   H2R20698   0.793   3.514  10.631 -0.7546 -0.3614 -0.7585
  181SLPC   H2S20699   0.674   3.642  10.673 -0.2252  1.1059 -1.7984
  181SLPC    C320700   1.192   3.766  10.805 -0.0113 -0.4176 -0.3175
  181SLPC    HX20701   1.249   3.681  10.761 -1.1571 -0.2316 -2.2058
  181SLPC    HY20702   1.250   3.819  10.884 -1.2723 -1.6998  1.5264
  181SLPC   O3120703   1.147   3.879  10.731 -0.1127  0.2087  0.0591
  181SLPC   C3120704   1.174   3.868  10.597  0.1642  0.2259 -0.5919
  181SLPC   O3220705   1.251   3.788  10.546  0.5541  0.2590 -0.7528
  181SLPC   C3220706   1.100   3.987  10.522 -0.5196  0.2073 -0.5846
  181SLPC   H2X20707   1.155   4.078  10.555 -1.8435  1.3663 -1.5263
  181SLPC   H2Y20708   0.997   3.988  10.563 -0.0053  1.4389  0.7197
  181SLPC   C2320709   0.813   3.698  10.518 -0.5924 -0.4754 -0.0535
  181SLPC   H3R20710   0.916   3.680  10.479  1.2273  5.0517  1.8095
  181SLPC   H3S20711   0.818   3.805  10.545  0.0863  0.8211 -4.9431
  181SLPC   C2420712   0.710   3.678  10.417  0.2089  0.2939 -0.0485
  181SLPC   H4R20713   0.615   3.710  10.464  1.1976  2.1020  0.7324
  181SLPC   H4S20714   0.696   3.569  10.396 -2.9725  0.6438  0.0201
  181SLPC   C2520715   0.748   3.759  10.293  0.6658 -0.0489 -1.1025
  181SLPC   H5R20716   0.857   3.744  10.280  1.0854 -0.4237  2.4820
  181SLPC   H5S20717   0.729   3.866  10.316  0.0769 -0.5559  0.8716
  181SLPC   C2620718   0.675   3.721  10.161 -0.1697 -0.5331  0.2714
  181SLPC   H6R20719   0.697   3.616  10.134  0.3413 -1.2059  3.1027
  181SLPC   H6S20720   0.704   3.786  10.075 -0.4479 -1.3747 -0.4618
  181SLPC   C2720721   0.523   3.742  10.166  0.1802  0.0577  0.1727
  181SLPC   H7R20722   0.495   3.843  10.201  1.1678  0.1869  0.5846
  181SLPC   H7S20723   0.485   3.678  10.249 -0.9679  1.2199  0.5601
  181SLPC   C2820724   0.452   3.700  10.032 -0.6098  0.5941  0.7025
  181SLPC   H8R20725   0.461   3.590  10.024 -2.0633  0.6363 -1.9886
  181SLPC   H8S20726   0.510   3.752   9.952 -2.8196  0.9967 -0.6927
  181SLPC   C2920727   0.305   3.732  10.047 -1.0101 -0.8351  0.4965
  181SLPC   H9R20728   0.248   3.683  10.128 -1.6647 -1.8042 -0.5392
  181SLPC  C21020729   0.237   3.829   9.982  0.6431  0.1374  0.7693
  181SLPC  H10R20730   0.128   3.830   9.997  0.2742 -1.9294 -1.5066
  181SLPC  C21120731   0.296   3.918   9.878 -0.0319 -0.0790  0.1782
  181SLPC  H11R20732   0.265   3.858   9.790  0.6932  0.4348 -0.4352
  181SLPC  H11S20733   0.407   3.915   9.881  0.0353  0.9202 -0.8852
  181SLPC  C21220734   0.252   4.059   9.892 -1.1060  0.0260 -0.0915
  181SLPC  H12R20735   0.247   4.108   9.990 -0.9302  0.4206 -0.2790
  181SLPC  C21320736   0.203   4.126   9.788 -0.0163 -0.4085  0.0056
  181SLPC  H13R20737   0.173   4.231   9.799  3.0759  0.6536 -1.1376
  181SLPC  C21420738   0.171   4.073   9.652  0.1505  0.0442  0.2140
  181SLPC  H14R20739   0.146   3.965   9.668 -2.3182  0.8342  2.1107
  181SLPC  H14S20740   0.255   4.084   9.582 -1.6362  1.3073 -1.7871
  181SLPC  C21520741   0.050   4.142   9.592 -0.5442 -0.2101 -0.6350
  181SLPC  H15R20742   0.079   4.249   9.587  1.4967 -0.6877  0.1213
  181SLPC  H15S20743  -0.032   4.130   9.666  0.7927 -2.3356  0.5712
  181SLPC  C21620744   0.013   4.098   9.448 -0.5736  0.5842 -0.5077
  181SLPC  H16R20745  -0.009   3.991   9.464  3.2306 -0.3658 -1.2531
  181SLPC  H16S20746   0.102   4.107   9.382  1.3118 -0.3833  1.8530
  181SLPC  C21720747  -0.107   4.171   9.392  0.5441  0.6029  0.6356
  181SLPC  H17R20748  -0.076   4.278   9.389  1.0299  0.4427 -0.8467
  181SLPC  H17S20749  -0.196   4.163   9.457 -0.1657 -1.0137 -0.4888
  181SLPC  C21820750  -0.152   4.124   9.255  0.2293 -0.0306  0.0388
  181SLPC  H18R20751  -0.174   4.015   9.262  1.2148 -0.1157  2.6310
  181SLPC  H18S20752  -0.076   4.136   9.175 -1.4984  1.9504 -1.3419
  181SLPC  H18T20753  -0.247   4.170   9.222 -0.0760 -0.9042 -0.3075
  181SLPC   C3320754   1.093   3.971  10.370  0.2538  0.6180 -0.3465
  181SLPC   H3X20755   1.038   3.878  10.347  2.1212 -0.2609 -1.3905
  181SLPC   H3Y20756   1.195   3.963  10.328  1.6612 -2.0790  3.2776
  181SLPC   C3420757   1.023   4.093  10.309 -0.6130  0.4335 -0.0535
  181SLPC   H4X20758   1.080   4.183  10.338  3.3331 -1.4120 -1.7690
  181SLPC   H4Y20759   0.915   4.106  10.333  0.1091  0.7457  3.3219
  181SLPC   C3520760   1.014   4.089  10.154  0.6748  0.2942  0.2465
  181SLPC   H5X20761   1.110   4.086  10.098  1.6563 -1.0335  1.9419
  181SLPC   H5Y20762   0.960   4.184  10.138 -1.2803 -0.7476  0.5132
  181SLPC   C3620763   0.939   3.973  10.089  0.0764 -0.3716 -0.2565
  181SLPC   H6X20764   0.851   3.957  10.156  1.0338 -1.2592  0.8163
  181SLPC   H6Y20765   1.003   3.882  10.087 -0.6144 -0.8544 -0.4575
  181SLPC   C3720766   0.896   4.009   9.943 -0.1243  0.4625  0.9872
  181SLPC   H7X20767   0.987   3.993   9.882 -1.6661 -0.0856 -1.2375
  181SLPC   H7Y20768   0.880   4.118   9.934  0.9235  0.5477  0.0156
  181SLPC   C3820769   0.790   3.920   9.883  0.3900 -0.8315  0.6344
  181SLPC   H8X20770   0.687   3.939   9.921 -0.2466 -1.8972 -0.5108
  181SLPC   H8Y20771   0.816   3.815   9.905 -0.4962 -1.3700 -0.8193
  181SLPC   C3920772   0.779   3.947   9.731  0.0382  0.5338 -0.1227
  181SLPC   H9X20773   0.871   3.921   9.674 -0.7328  1.1435 -1.6819
  181SLPC   H9Y20774   0.767   4.057   9.722 -0.0739  0.4242 -1.3799
  181SLPC  C31020775   0.675   3.861   9.665 -0.2040  1.0346  0.5466
  181SLPC  H10X20776   0.580   3.872   9.722 -1.3686 -1.4951 -0.8299
  181SLPC  H10Y20777   0.698   3.753   9.657 -0.4937  1.0071  0.0881
  181SLPC  C31120778   0.650   3.906   9.525 -0.3371 -0.5959  0.3397
  181SLPC  H11X20779   0.751   3.899   9.478 -0.2198 -1.0414  0.6542
  181SLPC  H11Y20780   0.608   4.008   9.517  3.5192  0.9450 -1.7870
  181SLPC  C31220781   0.557   3.805   9.443 -0.2773 -0.2674 -0.3398
  181SLPC  H12X20782   0.595   3.701   9.445 -0.2149 -0.2622 -0.9394
  181SLPC  H12Y20783   0.562   3.838   9.336 -1.4960 -3.1796 -1.3514
  181SLPC  C31320784   0.413   3.790   9.503  0.6104 -0.4723  0.1830
  181SLPC  H13X20785   0.372   3.893   9.506 -1.4277 -1.3078  2.5019
  181SLPC  H13Y20786   0.425   3.761   9.610  1.4648 -0.7908  0.0049
  181SLPC  C31420787   0.315   3.708   9.419 -0.0058  0.2231 -0.6636
  181SLPC  H14X20788   0.208   3.727   9.440  0.0132 -1.1088  0.7559
  181SLPC  H14Y20789   0.344   3.603   9.441  3.7778  0.5909 -3.3484
  181SLPC  C31520790   0.317   3.748   9.273 -0.6401  0.5341 -0.2404
  181SLPC  H15X20791   0.265   3.663   9.225 -0.3086 -0.2022  0.6780
  181SLPC  H15Y20792   0.422   3.748   9.237 -0.1099  0.3852  1.2696
  181SLPC  C31620793   0.231   3.872   9.226 -0.1950 -0.0656 -0.4122
  181SLPC  H16X20794   0.261   3.960   9.286 -2.5512  1.6738 -1.7197
  181SLPC  H16Y20795   0.123   3.856   9.247  0.3103 -2.9646  0.2883
  181SLPC  C31720796   0.239   3.883   9.077 -0.3726  0.3491  0.1004
  181SLPC  H17X20797   0.207   3.787   9.031 -1.0164  0.3995  0.4376
  181SLPC  H17Y20798   0.344   3.898   9.043 -0.6636  2.3765  0.0030
  181SLPC  C31820799   0.157   3.999   9.015  0.2445 -0.7452  0.2492
  181SLPC  H18X20800   0.188   4.090   9.071 -1.3416 -1.1123  1.7587
  181SLPC  H18Y20801   0.051   3.980   9.042 -0.4354  2.7661  0.3214
  181SLPC  H18Z20802   0.175   4.002   8.905 -1.4484  1.5090 -0.0089
  182SLPC     N20803   5.456   3.425  11.158  0.5732 -0.4271  0.3930
  182SLPC   C1320804   5.551   3.325  11.217 -0.5176 -0.1924 -0.8617
  182SLPC  H13A20805   5.628   3.306  11.145 -0.0479  1.8364 -0.9101
  182SLPC  H13B20806   5.597   3.370  11.304 -0.3111 -1.2195 -0.4254
  182SLPC  H13C20807   5.498   3.235  11.245  0.9803 -0.5832  0.8581
  182SLPC   C1420808   5.338   3.423  11.246 -0.7162  0.3925 -0.5653
  182SLPC  H14A20809   5.282   3.332  11.229  0.8967 -0.7570  0.2051
  182SLPC  H14B20810   5.373   3.425  11.348 -1.0577 -2.1987 -0.3771
  182SLPC  H14C20811   5.273   3.506  11.220 -1.1240  0.1996 -0.1646
  182SLPC   C1520812   5.417   3.382  11.025  0.2106  0.2967  0.4500
  182SLPC  H15A20813   5.318   3.415  10.997 -0.8078 -0.2874  3.2341
  182SLPC  H15B20814   5.488   3.421  10.952 -0.4937  0.8471  0.0534
  182SLPC  H15C20815   5.416   3.275  11.010  1.4824 -0.0394  2.6180
  182SLPC   C1220816   5.510   3.569  11.163 -0.2291  0.0128  0.5436
  182SLPC  H12A20817   5.532   3.591  11.266 -0.5621  0.8083  0.4502
  182SLPC  H12B20818   5.432   3.642  11.143 -0.1714  0.3502  1.5200
  182SLPC   C1120819   5.630   3.609  11.069  0.0718  0.1240  0.1534
  182SLPC  H11A20820   5.720   3.548  11.093 -0.3259 -0.3168  0.5590
  182SLPC  H11B20821   5.650   3.717  11.084  1.5438 -0.0600 -0.3756
  182SLPC     P20822   5.526   3.682  10.840  0.1412 -0.1491 -0.1478
  182SLPC   O1320823   5.467   3.609  10.725 -0.3628 -0.7690  0.1365
  182SLPC   O1420824   5.444   3.774  10.919  0.0747  0.3488 -0.8921
  182SLPC   O1220825   5.600   3.574  10.933 -0.1918 -0.4560  0.3177
  182SLPC   O1120826   5.639   3.773  10.786  0.0473  0.0674  0.8776
  182SLPC    C120827   5.774   3.733  10.776  0.3186  0.3425 -0.7175
  182SLPC    HA20828   5.816   3.736  10.879 -0.6815  2.2634 -0.3466
  182SLPC    HB20829   5.786   3.628  10.741  1.1422  0.8066 -1.8322
  182SLPC    C220830   5.861   3.824  10.694  0.4361 -0.5499 -0.9321
  182SLPC    HS20831   5.854   3.932  10.718 -0.7413 -1.3382  2.5830
  182SLPC   O2120832   5.839   3.794  10.557 -0.1657  0.2460  0.4952
  182SLPC   C2120833   5.735   3.856  10.502  0.1256 -0.6410  0.4583
  182SLPC   O2220834   5.652   3.923  10.564 -0.3531 -0.1097  0.4692
  182SLPC   C2220835   5.734   3.829  10.346  0.1423  0.3238 -0.5817
  182SLPC   H2R20836   5.735   3.720  10.326  0.3118  0.6214 -2.3585
  182SLPC   H2S20837   5.640   3.862  10.296 -1.9670 -0.4151  2.7365
  182SLPC    C320838   6.017   3.794  10.716 -0.9521 -0.9258  0.5398
  182SLPC    HX20839   6.022   3.691  10.676 -0.7320 -1.8060  2.7404
  182SLPC    HY20840   6.058   3.799  10.820  1.7501  0.3911 -0.5330
  182SLPC   O3120841   6.101   3.880  10.631 -0.8475  0.4994 -0.2272
  182SLPC   C3120842   6.224   3.834  10.606  0.2438 -0.7349  0.3456
  182SLPC   O3220843   6.270   3.730  10.644 -0.0469  0.0239 -0.2262
  182SLPC   C3220844   6.293   3.929  10.505 -0.4589  0.5202  0.8375
  182SLPC   H2X20845   6.367   3.986  10.566  0.1692 -0.1500  0.7082
  182SLPC   H2Y20846   6.220   4.004  10.468 -2.6304 -1.5157  0.8744
  182SLPC   C2320847   5.856   3.896  10.281  0.2673  0.3745 -0.1568
  182SLPC   H3R20848   5.941   3.846  10.333 -1.2446 -1.9512  0.1890
  182SLPC   H3S20849   5.849   4.005  10.302 -0.5653  0.4018 -0.5694
  182SLPC   C2420850   5.863   3.866  10.133  0.1884 -0.0072  0.5485
  182SLPC   H4R20851   5.881   3.757  10.119  1.0324  0.0622  1.0653
  182SLPC   H4S20852   5.954   3.920  10.098  2.4036 -3.4469  0.7765
  182SLPC   C2520853   5.745   3.918  10.048 -0.1840  0.5254  0.0382
  182SLPC   H5R20854   5.730   4.025  10.074  1.7152  1.0261 -0.8637
  182SLPC   H5S20855   5.661   3.848  10.069 -0.0457  0.7607  1.4328
  182SLPC   C2620856   5.762   3.909   9.897  0.1231  0.2389 -0.1600
  182SLPC   H6R20857   5.827   3.992   9.862 -1.1699  0.6174 -1.7217
  182SLPC   H6S20858   5.664   3.928   9.848  0.7679  0.1248 -1.5277
  182SLPC   C2720859   5.814   3.771   9.853 -0.4656  0.1916  0.0466
  182SLPC   H7R20860   5.742   3.691   9.881  0.2923 -1.1865 -1.8370
  182SLPC   H7S20861   5.909   3.747   9.905  0.1439  0.2897 -1.0251
  182SLPC   C2820862   5.818   3.781   9.700  0.6393 -0.5789 -0.2369
  182SLPC   H8R20863   5.869   3.873   9.666  0.5684  0.0512  1.3197
  182SLPC   H8S20864   5.712   3.788   9.667  0.1668  0.0258  1.3439
  182SLPC   C2920865   5.878   3.661   9.637 -1.3206 -0.3426  0.2453
  182SLPC   H9R20866   5.910   3.587   9.712  0.7415  1.1221  0.8565
  182SLPC  C21020867   5.920   3.653   9.509 -0.5881 -0.1580 -0.0493
  182SLPC  H10R20868   5.952   3.559   9.461  1.3685  0.5475 -0.1713
  182SLPC  C21120869   5.892   3.764   9.407 -0.6869 -0.0472 -0.8584
  182SLPC  H11R20870   5.835   3.851   9.446  1.1148  0.9288 -0.3211
  182SLPC  H11S20871   5.828   3.725   9.325 -1.3646 -1.1577  0.1759
  182SLPC  C21220872   6.019   3.822   9.339  0.4575  0.2465  0.2200
  182SLPC  H12R20873   6.093   3.881   9.394  1.3311 -0.5192 -0.1242
  182SLPC  C21320874   6.060   3.783   9.214  0.1973 -0.3683 -0.3452
  182SLPC  H13R20875   6.157   3.818   9.177 -0.9328  3.1119 -0.2540
  182SLPC  C21420876   5.999   3.676   9.125 -0.1569 -0.3782  0.4266
  182SLPC  H14R20877   5.936   3.605   9.183 -0.3554  1.2042  2.1859
  182SLPC  H14S20878   6.078   3.607   9.088  0.3759  0.6441 -0.3643
  182SLPC  C21520879   5.927   3.725   8.998  0.0589  0.3798  0.3283
  182SLPC  H15R20880   5.841   3.783   9.037  0.0272  1.6066 -1.5287
  182SLPC  H15S20881   5.887   3.642   8.935  1.3617  0.9860 -1.3126
  182SLPC  C21620882   6.004   3.833   8.908 -0.1785  0.5202 -0.0491
  182SLPC  H16R20883   6.004   3.926   8.969 -1.3641  0.8293 -0.5273
  182SLPC  H16S20884   5.951   3.855   8.814 -0.4739 -3.2671 -0.8567
  182SLPC  C21720885   6.149   3.787   8.870 -0.8340  0.7325  0.4661
  182SLPC  H17R20886   6.139   3.708   8.793  3.0430 -0.7563  1.3829
  182SLPC  H17S20887   6.203   3.738   8.955 -0.1674  1.8833  0.7150
  182SLPC  C21820888   6.240   3.903   8.820 -0.2560  0.8056 -0.4773
  182SLPC  H18R20889   6.194   3.948   8.729 -0.1953  0.6386 -0.5926
  182SLPC  H18S20890   6.338   3.861   8.788 -2.3595 -3.9662 -1.1100
  182SLPC  H18T20891   6.248   3.976   8.903  0.8965  0.9612 -0.7152
  182SLPC   C3320892   6.360   3.864  10.381 -0.1072 -0.2511  0.4260
  182SLPC   H3X20893   6.438   3.791  10.412 -0.5058 -0.8614  0.0153
  182SLPC   H3Y20894   6.416   3.938  10.320  0.4545 -0.5338  0.5948
  182SLPC   C3420895   6.262   3.796  10.289  0.0110 -0.3486  0.7880
  182SLPC   H4X20896   6.189   3.878  10.268  0.7944  0.0434 -0.4245
  182SLPC   H4Y20897   6.206   3.713  10.338  1.8766 -1.4441  1.0819
  182SLPC   C3520898   6.330   3.752  10.157 -0.1141  0.0998  0.2341
  182SLPC   H5X20899   6.426   3.700  10.177 -0.0231  0.2610  0.2054
  182SLPC   H5Y20900   6.363   3.848  10.113  0.6104 -0.4747 -0.4899
  182SLPC   C3620901   6.237   3.654  10.077 -0.7179 -0.3507 -0.9931
  182SLPC   H6X20902   6.135   3.698  10.081 -0.2189  0.6462  1.4071
  182SLPC   H6Y20903   6.246   3.557  10.130 -0.2068  0.7565  0.9786
  182SLPC   C3720904   6.272   3.620   9.932  0.4744  0.3420 -0.4830
  182SLPC   H7X20905   6.378   3.588   9.931 -0.3631 -2.7330  1.6553
  182SLPC   H7Y20906   6.267   3.698   9.853 -0.0362  0.0900 -0.7059
  182SLPC   C3820907   6.193   3.505   9.871  0.1398  0.5180  0.7484
  182SLPC   H8X20908   6.087   3.539   9.866 -0.3411 -1.0283  0.0709
  182SLPC   H8Y20909   6.199   3.412   9.931  0.4694  0.2649  0.3253
  182SLPC   C3920910   6.238   3.469   9.731 -0.5309 -0.7869 -0.3143
  182SLPC   H9X20911   6.349   3.463   9.727 -0.4372  0.2493  0.4156
  182SLPC   H9Y20912   6.215   3.546   9.655  1.6402 -0.7785 -0.9736
  182SLPC  C31020913   6.185   3.334   9.685  0.3750  0.0855 -0.0349
  182SLPC  H10X20914   6.078   3.353   9.666  0.4678  0.1126 -0.5405
  182SLPC  H10Y20915   6.203   3.259   9.765  2.0201  1.1453  0.6288
  182SLPC  C31120916   6.245   3.280   9.555  0.2391 -0.3994  0.2380
  182SLPC  H11X20917   6.274   3.173   9.565  1.4030 -0.0381  0.8167
  182SLPC  H11Y20918   6.348   3.321   9.563 -0.5057  1.4118  0.8436
  182SLPC  C31220919   6.184   3.321   9.430 -0.0706 -0.0618  1.1568
  182SLPC  H12X20920   6.190   3.431   9.416  0.8481 -0.4642 -2.0471
  182SLPC  H12Y20921   6.076   3.297   9.422 -0.0893  0.3293  0.1233
  182SLPC  C31320922   6.259   3.256   9.304  0.0345 -0.3143  0.0517
  182SLPC  H13X20923   6.244   3.147   9.287  1.7927 -0.5661 -0.0132
  182SLPC  H13Y20924   6.367   3.280   9.314 -0.7449  3.5000 -0.0345
  182SLPC  C31420925   6.203   3.313   9.173 -0.3161 -0.7206 -0.4298
  182SLPC  H14X20926   6.218   3.423   9.178 -1.5164 -0.5703 -0.0396
  182SLPC  H14Y20927   6.096   3.284   9.166 -0.4859 -0.0271 -0.7992
  182SLPC  C31520928   6.280   3.265   9.052 -0.1338  0.0444 -0.6989
  182SLPC  H15X20929   6.234   3.164   9.039 -2.5965  0.4789  3.7768
  182SLPC  H15Y20930   6.387   3.266   9.083 -0.8430  3.0044  1.9405
  182SLPC  C31620931   6.261   3.358   8.932 -0.2728 -0.1458 -0.3356
  182SLPC  H16X20932   6.304   3.455   8.967 -2.3527  1.3273 -1.7502
  182SLPC  H16Y20933   6.152   3.376   8.935 -1.0024 -4.1145 -0.0675
  182SLPC  C31720934   6.328   3.310   8.801  0.5823  0.8798  0.0896
  182SLPC  H17X20935   6.282   3.211   8.782 -2.8273  1.9392  2.2869
  182SLPC  H17Y20936   6.436   3.295   8.819  0.3210  1.1000  1.9665
  182SLPC  C31820937   6.305   3.399   8.680 -0.3768  0.0615  0.0402
  182SLPC  H18X20938   6.363   3.374   8.589  0.0881 -1.9420  0.8606
  182SLPC  H18Y20939   6.326   3.503   8.714 -1.1377  0.3473 -0.3549
  182SLPC  H18Z20940   6.198   3.386   8.657 -0.8306  0.8443  1.6054
  183SLPC     N20941   0.168   5.418  11.030  0.4315 -0.3297  0.0702
  183SLPC   C1320942   0.112   5.344  10.912 -0.4003  1.2378 -0.5308
  183SLPC  H13A20943   0.191   5.311  10.846  1.1645  1.5535  1.1194
  183SLPC  H13B20944   0.056   5.255  10.934  1.0812  0.2459 -0.7292
  183SLPC  H13C20945   0.044   5.407  10.856 -1.0862  0.0930 -0.9793
  183SLPC   C1420946   0.276   5.332  11.088 -0.1275 -0.0938  0.0165
  183SLPC  H14A20947   0.244   5.229  11.094 -0.9777  0.2046  0.6038
  183SLPC  H14B20948   0.364   5.334  11.025  0.1519 -0.4107  0.3955
  183SLPC  H14C20949   0.306   5.368  11.185  2.3456 -4.6309  1.1035
  183SLPC   C1520950   0.068   5.426  11.138 -0.6655  0.1047 -0.1929
  183SLPC  H15A20951  -0.004   5.501  11.108  0.5126  1.5189  0.4557
  183SLPC  H15B20952   0.021   5.332  11.161  2.5247 -1.5146  0.0386
  183SLPC  H15C20953   0.113   5.444  11.234  1.6954  2.2453 -1.6362
  183SLPC   C1220954   0.224   5.552  10.992 -0.3796 -0.0626  0.2202
  183SLPC  H12A20955   0.277   5.578  11.083  1.0095 -1.3839 -0.1860
  183SLPC  H12B20956   0.147   5.625  10.974  0.2700  0.5565 -0.0968
  183SLPC   C1120957   0.332   5.565  10.880 -0.3624  0.6446 -0.3269
  183SLPC  H11A20958   0.343   5.675  10.868 -1.5373  0.8013 -0.0805
  183SLPC  H11B20959   0.286   5.526  10.787 -2.6540  2.6429 -0.0793
  183SLPC     P20960   0.560   5.453  10.821 -0.1595 -0.1602 -0.2246
  183SLPC   O1320961   0.701   5.464  10.872  0.2269  0.2282  0.4529
  183SLPC   O1420962   0.511   5.320  10.788 -0.4374  0.3338 -0.3210
  183SLPC   O1220963   0.461   5.512  10.923 -0.2343  0.2111  0.3594
  183SLPC   O1120964   0.552   5.551  10.699  0.0449  0.3687 -0.4144
  183SLPC    C120965   0.477   5.513  10.577 -0.0637  0.7324  0.2309
  183SLPC    HA20966   0.396   5.444  10.608 -0.4481  0.7508 -0.7157
  183SLPC    HB20967   0.441   5.603  10.524 -0.1415 -1.3135 -3.3125
  183SLPC    C220968   0.563   5.438  10.475  0.0584  0.4416  0.1050
  183SLPC    HS20969   0.606   5.351  10.528  0.2847  1.5703  1.7938
  183SLPC   O2120970   0.675   5.521  10.416 -0.0698 -0.1640 -0.0472
  183SLPC   C2120971   0.793   5.455  10.399 -1.0917 -0.1264  1.2928
  183SLPC   O2220972   0.816   5.337  10.398  0.0130  0.8250  0.3204
  183SLPC   C2220973   0.894   5.567  10.366 -0.9141  0.0161 -0.2541
  183SLPC   H2R20974   0.850   5.655  10.315  0.9268  0.6907 -0.7220
  183SLPC   H2S20975   0.930   5.616  10.459  0.6155 -0.5290 -0.5381
  183SLPC    C320976   0.474   5.386  10.363 -0.2600 -0.3333  0.3398
  183SLPC    HX20977   0.429   5.477  10.319  0.6874  0.1172  0.2860
  183SLPC    HY20978   0.384   5.346  10.415 -1.1742  2.0539  0.6332
  183SLPC   O3120979   0.533   5.288  10.274 -0.2682  0.7441  0.2787
  183SLPC   C3120980   0.571   5.325  10.163 -0.7388 -0.8767  0.3581
  183SLPC   O3220981   0.549   5.433  10.110 -0.1187 -0.3067 -0.4317
  183SLPC   C3220982   0.644   5.211  10.097  0.8322  0.5318  0.2436
  183SLPC   H2X20983   0.612   5.113  10.138 -2.8885  0.4114 -2.6507
  183SLPC   H2Y20984   0.748   5.224  10.133  0.0900 -0.7122  2.9715
  183SLPC   C2320985   1.017   5.524  10.285  0.4753  0.6083 -0.1888
  183SLPC   H3R20986   1.064   5.432  10.326 -0.0739 -0.4589 -1.8878
  183SLPC   H3S20987   1.098   5.601  10.279  1.7402 -0.6819 -0.0648
  183SLPC   C2420988   0.965   5.492  10.140 -0.1422  0.0454  0.0148
  183SLPC   H4R20989   0.898   5.569  10.096 -0.4490 -0.1296  0.1672
  183SLPC   H4S20990   0.901   5.401  10.147  0.4139 -0.2729  1.1051
  183SLPC   C2520991   1.069   5.471  10.031 -0.6391  0.3444 -0.4574
  183SLPC   H5R20992   1.135   5.388  10.064  1.7452  2.1184 -0.5923
  183SLPC   H5S20993   1.120   5.570  10.024 -0.7542  0.7069  2.8780
  183SLPC   C2620994   1.007   5.426   9.901 -0.6761  0.2183  0.4976
  183SLPC   H6R20995   0.935   5.504   9.867  0.6720  1.7599  1.1245
  183SLPC   H6S20996   0.951   5.335   9.930 -0.7638 -0.9798 -3.2653
  183SLPC   C2720997   1.097   5.391   9.780 -0.1707 -0.6985  0.1461
  183SLPC   H7R20998   1.176   5.323   9.818  1.2039  1.4478  1.2162
  183SLPC   H7S20999   1.150   5.476   9.733 -0.7334 -0.6992 -0.5052
  183SLPC   C2821000   1.019   5.327   9.666 -0.3082  0.3891  0.0487
  183SLPC   H8R21001   0.948   5.256   9.714 -0.0097  1.1002  1.5662
  183SLPC   H8S21002   1.094   5.276   9.602 -0.3041 -1.0285  1.1440
  183SLPC   C2921003   0.944   5.430   9.580 -0.7578  0.0254 -1.0570
  183SLPC   H9R21004   0.979   5.534   9.587 -1.8019  0.2903  0.5249
  183SLPC  C21021005   0.851   5.404   9.492  0.1807  0.0125  0.4830
  183SLPC  H10R21006   0.819   5.485   9.425 -0.8364 -0.6435  0.1632
  183SLPC  C21121007   0.796   5.270   9.458 -0.5013 -0.0270 -0.0804
  183SLPC  H11R21008   0.686   5.285   9.449 -0.7946 -0.0561  2.9888
  183SLPC  H11S21009   0.809   5.195   9.539 -2.2120 -0.2620  0.0099
  183SLPC  C21221010   0.856   5.229   9.326 -0.2405 -0.4773 -0.0468
  183SLPC  H12R21011   0.934   5.153   9.337  0.1991 -0.1096 -0.5698
  183SLPC  C21321012   0.810   5.252   9.196  0.5708  0.3404  0.2989
  183SLPC  H13R21013   0.878   5.221   9.115  1.8605  0.0434  1.4753
  183SLPC  C21421014   0.682   5.331   9.156 -0.0162 -0.3067  0.1329
  183SLPC  H14R21015   0.700   5.437   9.130 -2.5647 -0.0854 -0.8242
  183SLPC  H14S21016   0.613   5.321   9.243 -1.1785  0.7107 -0.6723
  183SLPC  C21521017   0.616   5.258   9.037  0.8647 -0.0988  0.2486
  183SLPC  H15R21018   0.696   5.224   8.968  1.1799 -0.5904  0.8538
  183SLPC  H15S21019   0.557   5.335   8.983  1.5395  0.9181  0.9418
  183SLPC  C21621020   0.513   5.147   9.063  0.0010  0.4087 -0.0686
  183SLPC  H16R21021   0.574   5.076   9.123 -0.0572 -0.3281 -0.8806
  183SLPC  H16S21022   0.475   5.108   8.966  1.6867  0.8551 -0.9311
  183SLPC  C21721023   0.387   5.198   9.137 -0.3706  0.0529  0.4715
  183SLPC  H17R21024   0.346   5.280   9.074  1.8565  0.6886 -0.1733
  183SLPC  H17S21025   0.407   5.243   9.236 -1.5301 -1.1451  1.2720
  183SLPC  C21821026   0.281   5.084   9.141 -0.5392 -0.0876  1.1558
  183SLPC  H18R21027   0.301   5.021   9.230 -0.1021  0.5483  1.5167
  183SLPC  H18S21028   0.290   5.020   9.050  0.8598 -1.6825  2.3911
  183SLPC  H18T21029   0.179   5.125   9.152  0.0606  1.4565  1.0461
  183SLPC   C3321030   0.648   5.207   9.941 -0.5889 -0.4813  0.3552
  183SLPC   H3X21031   0.721   5.133   9.902 -3.2569 -1.8876 -2.1534
  183SLPC   H3Y21032   0.689   5.307   9.913 -0.9820 -0.1982  0.7839
  183SLPC   C3421033   0.508   5.174   9.880  0.1260 -0.3425 -0.3286
  183SLPC   H4X21034   0.452   5.260   9.921  0.3506  0.6195 -2.0096
  183SLPC   H4Y21035   0.468   5.080   9.925 -0.1650 -0.6795 -1.2762
  183SLPC   C3521036   0.497   5.167   9.730 -0.0390  0.8930  0.3468
  183SLPC   H5X21037   0.542   5.071   9.696 -2.1127  0.8087 -2.2908
  183SLPC   H5Y21038   0.553   5.254   9.688  1.8026  1.4130  3.6963
  183SLPC   C3621039   0.349   5.164   9.679 -1.0522  0.2697 -0.7686
  183SLPC   H6X21040   0.312   5.268   9.690 -1.2293 -0.1569  3.3349
  183SLPC   H6Y21041   0.291   5.085   9.730  1.2960 -2.2905 -1.9526
  183SLPC   C3721042   0.343   5.139   9.523 -0.1469  0.0335 -0.0251
  183SLPC   H7X21043   0.406   5.216   9.474  1.3909 -0.1489  1.6178
  183SLPC   H7Y21044   0.242   5.154   9.480  0.2298 -1.9207 -1.6577
  183SLPC   C3821045   0.371   4.995   9.483 -0.6553  0.2840 -0.2875
  183SLPC   H8X21046   0.450   4.952   9.548 -0.1957  1.6019  0.0386
  183SLPC   H8Y21047   0.412   4.997   9.379 -0.9431 -0.7574 -0.4184
  183SLPC   C3921048   0.239   4.911   9.490 -0.7695 -0.0444 -0.0225
  183SLPC   H9X21049   0.154   4.955   9.433 -1.3231 -1.8167 -0.6132
  183SLPC   H9Y21050   0.210   4.901   9.596 -1.5923 -1.7120 -0.3866
  183SLPC  C31021051   0.263   4.772   9.423  1.0205  0.0462  0.1773
  183SLPC  H10X21052   0.353   4.723   9.467  1.9963  0.1021 -1.6671
  183SLPC  H10Y21053   0.285   4.797   9.317  0.1927  3.2801  0.7119
  183SLPC  C31121054   0.135   4.690   9.435 -0.5342 -0.0730 -1.0486
  183SLPC  H11X21055   0.074   4.714   9.525  1.2724  0.5065  0.0621
  183SLPC  H11Y21056   0.179   4.589   9.448  2.9803  1.6264  0.9781
  183SLPC  C31221057   0.051   4.691   9.306 -0.1162  0.9873 -0.3320
  183SLPC  H12X21058   0.120   4.682   9.219  0.1064 -0.7160 -0.0058
  183SLPC  H12Y21059   0.002   4.790   9.296  0.9532  1.7147  1.4302
  183SLPC  C31321060  -0.044   4.574   9.314 -0.0310  0.0224  0.0013
  183SLPC  H13X21061  -0.088   4.583   9.415  2.0637  4.1395  0.6243
  183SLPC  H13Y21062   0.014   4.479   9.305  1.3575  0.6846  1.6831
  183SLPC  C31421063  -0.160   4.584   9.218 -0.8209  0.0615 -0.4012
  183SLPC  H14X21064  -0.210   4.682   9.237 -0.6750  0.0115  0.2516
  183SLPC  H14Y21065  -0.228   4.506   9.258 -0.3502 -0.2313 -0.1562
  183SLPC  C31521066  -0.142   4.552   9.068 -0.5621 -0.0841  0.4781
  183SLPC  H15X21067  -0.123   4.645   9.010 -2.1073 -1.0964 -1.7526
  183SLPC  H15Y21068  -0.232   4.501   9.027  0.7908 -1.2387 -1.1318
  183SLPC  C31621069  -0.022   4.463   9.039  0.0553 -0.4789 -0.1296
  183SLPC  H16X21070  -0.047   4.369   9.094  0.5200  0.2296  1.3345
  183SLPC  H16Y21071   0.063   4.520   9.081  0.6848 -0.5654 -1.2974
  183SLPC  C31721072  -0.003   4.438   8.893  0.2295 -0.0133 -0.6725
  183SLPC  H17X21073   0.054   4.527   8.860  1.2477 -0.4502 -0.1182
  183SLPC  H17Y21074  -0.106   4.433   8.854  0.4375  0.1196 -1.2320
  183SLPC  C31821075   0.081   4.316   8.869  0.1749  0.4661 -0.2971
  183SLPC  H18X21076   0.188   4.328   8.898  0.1865 -0.2065 -0.0621
  183SLPC  H18Y21077   0.079   4.291   8.761 -1.5843 -0.7976  0.0187
  183SLPC  H18Z21078   0.036   4.230   8.924  0.6716  0.8060  0.6641
  184SLPC     N21079   3.009   3.142  10.882 -0.3250 -0.1256  0.0973
  184SLPC   C1321080   2.893   3.098  10.963 -0.1828  0.0381 -0.5298
  184SLPC  H13A21081   2.846   3.018  10.908 -0.8322  0.0537 -0.0010
  184SLPC  H13B21082   2.922   3.059  11.059 -0.5272 -1.1398 -0.9003
  184SLPC  H13C21083   2.815   3.171  10.979 -0.5329 -0.9177  2.3796
  184SLPC   C1421084   3.107   3.036  10.883  0.2528 -0.3086  0.3892
  184SLPC  H14A21085   3.123   3.003  10.985  4.7983 -0.9351 -0.4281
  184SLPC  H14B21086   3.079   2.969  10.803 -0.5302  1.5626 -0.9267
  184SLPC  H14C21087   3.207   3.074  10.867 -0.3183  0.7945 -0.5936
  184SLPC   C1521088   3.069   3.264  10.944  0.2904 -0.6970  0.9598
  184SLPC  H15A21089   3.167   3.278  10.901 -0.7194  0.0043 -1.2025
  184SLPC  H15B21090   3.009   3.352  10.924  0.7739 -0.8719 -1.4598
  184SLPC  H15C21091   3.083   3.250  11.050 -2.4372 -0.7273  1.3415
  184SLPC   C1221092   2.959   3.166  10.737 -0.1897  0.6086  0.5421
  184SLPC  H12A21093   3.039   3.214  10.681 -0.0684  1.0369  1.0745
  184SLPC  H12B21094   2.883   3.241  10.752  0.3033  1.4027 -0.7694
  184SLPC   C1121095   2.902   3.045  10.665  0.6530 -0.0347  0.9079
  184SLPC  H11A21096   2.847   3.078  10.575 -1.1942 -2.3739  1.1387
  184SLPC  H11B21097   2.816   3.004  10.723  1.7708  0.3417  2.9072
  184SLPC     P21098   3.115   2.985  10.520 -0.0941 -0.0512  0.3764
  184SLPC   O1321099   3.180   3.119  10.529  0.0061 -0.0076 -0.0812
  184SLPC   O1421100   3.201   2.867  10.530 -0.1023  0.3142  0.3236
  184SLPC   O1221101   3.002   2.952  10.632 -0.5447 -0.6753 -0.1403
  184SLPC   O1121102   3.036   2.979  10.379  1.1521 -0.5853 -0.2492
  184SLPC    C121103   2.998   2.860  10.321 -0.1092 -0.2367  0.6173
  184SLPC    HA21104   3.059   2.776  10.361  1.8771  0.1816 -1.4366
  184SLPC    HB21105   2.892   2.843  10.349  0.5493  0.7612  4.0283
  184SLPC    C221106   3.020   2.856  10.169 -0.7134 -0.4258  0.0709
  184SLPC    HS21107   3.124   2.884  10.141 -0.1182 -1.0231  1.6685
  184SLPC   O2121108   2.909   2.921  10.098  0.1257  0.1391 -0.8080
  184SLPC   C2121109   2.934   2.991   9.990  0.1262  0.0513 -0.1071
  184SLPC   O2221110   3.045   3.013   9.942  0.0284  0.0399 -0.1200
  184SLPC   C2221111   2.797   3.040   9.924  0.5339 -0.3673 -0.0666
  184SLPC   H2R21112   2.720   3.028  10.004  0.2532 -0.6877 -0.3869
  184SLPC   H2S21113   2.798   3.141   9.878 -0.5389 -1.0001 -1.5169
  184SLPC    C321114   3.024   2.699  10.125 -0.2342  0.1050  0.3472
  184SLPC    HX21115   2.927   2.662  10.164  0.0177 -0.2002  0.6861
  184SLPC    HY21116   3.107   2.652  10.183  0.0554 -0.9268 -0.8833
  184SLPC   O3121117   3.022   2.681   9.985  0.0490 -0.0259  0.2098
  184SLPC   C3121118   3.143   2.669   9.928 -0.0461  0.3047 -0.1582
  184SLPC   O3221119   3.248   2.645   9.986 -0.0963  0.1052  0.4064
  184SLPC   C3221120   3.129   2.703   9.780 -0.2220 -0.4531  0.9715
  184SLPC   H2X21121   3.070   2.797   9.775  0.5981  0.0715  1.1703
  184SLPC   H2Y21122   3.067   2.622   9.737 -1.0237 -0.7380  2.6210
  184SLPC   C2321123   2.755   2.928   9.817  0.3800 -0.5201  0.0028
  184SLPC   H3R21124   2.646   2.907   9.828  0.2843 -0.7635 -1.3953
  184SLPC   H3S21125   2.801   2.830   9.842 -0.4373 -0.7965  0.4595
  184SLPC   C2421126   2.789   2.957   9.674  0.7414 -0.4892  0.5671
  184SLPC   H4R21127   2.834   2.871   9.620 -0.3972  1.4652 -3.6274
  184SLPC   H4S21128   2.861   3.042   9.673  1.3169 -0.9753  0.4611
  184SLPC   C2521129   2.658   3.002   9.590 -0.1421  0.1181  0.1875
  184SLPC   H5R21130   2.600   3.075   9.651 -1.4376 -1.2727  0.6574
  184SLPC   H5S21131   2.585   2.920   9.578  0.4981 -0.2108 -1.5201
  184SLPC   C2621132   2.689   3.053   9.447 -0.7182 -0.1716 -0.9360
  184SLPC   H6R21133   2.739   3.153   9.452 -1.6003  0.2712 -0.8219
  184SLPC   H6S21134   2.586   3.074   9.412 -0.3256  1.5288 -1.1494
  184SLPC   C2721135   2.766   2.955   9.361 -0.5554  0.0888 -0.4541
  184SLPC   H7R21136   2.735   2.851   9.383 -2.9693  1.2742  2.1178
  184SLPC   H7S21137   2.873   2.940   9.383 -0.6222 -1.8431 -1.4295
  184SLPC   C2821138   2.757   2.983   9.203 -0.1905  0.2087 -0.5574
  184SLPC   H8R21139   2.653   2.997   9.168 -0.4490  0.9952  0.5153
  184SLPC   H8S21140   2.801   2.894   9.153 -0.2907  0.1603 -0.5587
  184SLPC   C2921141   2.836   3.109   9.175 -0.3439 -0.2200  0.4460
  184SLPC   H9R21142   2.919   3.133   9.242  0.3969 -0.4651 -0.3709
  184SLPC  C21021143   2.808   3.200   9.079  0.0611  0.6196  0.7832
  184SLPC  H10R21144   2.875   3.288   9.072  1.3651 -0.2666  1.8699
  184SLPC  C21121145   2.699   3.184   8.979 -0.6618  0.3550  0.2974
  184SLPC  H11R21146   2.679   3.291   8.956  2.0433  0.0356 -4.0807
  184SLPC  H11S21147   2.614   3.141   9.037  0.6803  0.1518  2.1860
  184SLPC  C21221148   2.718   3.095   8.853  0.5713  0.0440 -0.0556
  184SLPC  H12R21149   2.717   2.986   8.863 -0.4984 -0.1820 -2.4249
  184SLPC  C21321150   2.733   3.147   8.727 -0.1772  0.0123  0.6808
  184SLPC  H13R21151   2.755   3.085   8.639 -0.5891 -1.9135  1.8887
  184SLPC  C21421152   2.754   3.292   8.698  0.1215 -0.3741 -0.2760
  184SLPC  H14R21153   2.855   3.308   8.740  0.2394 -2.3056  0.2213
  184SLPC  H14S21154   2.684   3.355   8.757 -2.0193  0.5184 -3.6336
  184SLPC  C21521155   2.762   3.323   8.550  0.4683 -0.2106 -0.0518
  184SLPC  H15R21156   2.806   3.238   8.493  2.5324 -1.6676  3.5847
  184SLPC  H15S21157   2.830   3.409   8.530 -0.2181  1.0478  2.7952
  184SLPC  C21621158   2.622   3.366   8.501 -1.0863  0.4758  0.5450
  184SLPC  H16R21159   2.565   3.416   8.582 -1.3454 -1.0116  1.3066
  184SLPC  H16S21160   2.564   3.275   8.473  1.4533  0.0314 -3.8119
  184SLPC  C21721161   2.632   3.436   8.361 -0.2799 -0.2128  0.2253
  184SLPC  H17R21162   2.724   3.389   8.319  0.7931  0.5607  1.6695
  184SLPC  H17S21163   2.647   3.542   8.390 -0.1618  0.0271 -0.6959
  184SLPC  C21821164   2.526   3.429   8.256  0.1029 -0.3149  0.0494
  184SLPC  H18R21165   2.559   3.452   8.152 -1.6818 -2.1472 -0.9412
  184SLPC  H18S21166   2.456   3.508   8.289 -0.4465 -0.7537 -0.0653
  184SLPC  H18T21167   2.470   3.333   8.254 -0.7253  0.1374  1.4153
  184SLPC   C3321168   3.271   2.712   9.711 -0.5384 -0.0615 -0.1626
  184SLPC   H3X21169   3.337   2.630   9.745  0.6193  1.0063  0.2318
  184SLPC   H3Y21170   3.320   2.800   9.758 -1.2173  0.8696 -1.1850
  184SLPC   C3421171   3.272   2.712   9.558 -0.3755 -0.0973  0.4593
  184SLPC   H4X21172   3.227   2.616   9.525 -1.9188 -0.0940  2.5018
  184SLPC   H4Y21173   3.378   2.715   9.524  0.9634  0.0733  4.3900
  184SLPC   C3521174   3.208   2.843   9.503  0.1958 -0.1008  0.5459
  184SLPC   H5X21175   3.251   2.930   9.556 -1.7063  0.7205  0.8083
  184SLPC   H5Y21176   3.100   2.847   9.531 -0.9163  0.0528 -3.4048
  184SLPC   C3621177   3.219   2.876   9.354  0.4226  0.0379 -0.2925
  184SLPC   H6X21178   3.326   2.876   9.324  0.2179  0.0943 -1.0293
  184SLPC   H6Y21179   3.195   2.984   9.339  1.3234  0.3932  0.7468
  184SLPC   C3721180   3.136   2.783   9.266 -0.0192 -0.0127  0.3562
  184SLPC   H7X21181   3.028   2.805   9.282 -0.8778 -1.2716 -3.1428
  184SLPC   H7Y21182   3.162   2.677   9.289 -0.9031 -0.1270  0.8523
  184SLPC   C3821183   3.172   2.803   9.114 -0.4147 -0.4216 -1.1854
  184SLPC   H8X21184   3.264   2.745   9.092  0.7419  0.1167  1.8664
  184SLPC   H8Y21185   3.195   2.909   9.088  0.7022 -0.0672  1.1149
  184SLPC   C3921186   3.051   2.758   9.033 -0.1760 -0.0530 -0.3761
  184SLPC   H9X21187   2.960   2.815   9.064  0.0474 -0.5296  1.1811
  184SLPC   H9Y21188   3.032   2.651   9.053  0.6020 -0.0841  0.2001
  184SLPC  C31021189   3.062   2.772   8.883 -0.1562  0.2466  0.6686
  184SLPC  H10X21190   3.074   2.880   8.859 -1.9250  0.2685 -0.1893
  184SLPC  H10Y21191   2.965   2.742   8.840  1.6006 -1.3195 -2.3963
  184SLPC  C31121192   3.167   2.681   8.822 -0.5225  0.6229  0.1836
  184SLPC  H11X21193   3.172   2.583   8.874  0.2334  0.4222 -0.2710
  184SLPC  H11Y21194   3.264   2.732   8.838 -0.0520 -1.1724  3.4061
  184SLPC  C31221195   3.151   2.643   8.672 -0.2495 -0.0845 -0.2663
  184SLPC  H12X21196   3.057   2.584   8.661 -0.9175  0.5245  1.9844
  184SLPC  H12Y21197   3.229   2.575   8.633  1.2076  1.2475  0.2865
  184SLPC  C31321198   3.151   2.766   8.578  0.1797  0.2396 -0.2032
  184SLPC  H13X21199   3.080   2.844   8.612  0.7010  2.0109 -2.9854
  184SLPC  H13Y21200   3.108   2.734   8.481  2.2787  2.2506 -1.8506
  184SLPC  C31421201   3.280   2.841   8.552 -0.8596 -0.2232 -0.1607
  184SLPC  H14X21202   3.309   2.904   8.639 -3.5759  2.7628 -1.3387
  184SLPC  H14Y21203   3.244   2.913   8.476 -1.1241  2.2515  2.2104
  184SLPC  C31521204   3.406   2.744   8.505 -0.2809  0.0513 -1.2423
  184SLPC  H15X21205   3.399   2.643   8.551 -0.2948 -0.5539 -2.5387
  184SLPC  H15Y21206   3.497   2.794   8.544  0.1052 -0.3206 -1.6559
  184SLPC  C31621207   3.418   2.733   8.355  0.1266 -0.4161  0.0109
  184SLPC  H16X21208   3.409   2.836   8.313  3.1327 -0.2100 -0.2411
  184SLPC  H16Y21209   3.328   2.680   8.317 -1.2168  0.6579  1.6102
  184SLPC  C31721210   3.548   2.662   8.308  0.7083 -0.1234  0.3071
  184SLPC  H17X21211   3.537   2.554   8.335  1.5621 -0.5033 -0.7893
  184SLPC  H17Y21212   3.633   2.704   8.366 -0.0387  1.2712  0.3885
  184SLPC  C31821213   3.575   2.674   8.155 -0.0256  0.2166  0.1811
  184SLPC  H18X21214   3.598   2.781   8.134 -1.0524  0.9052  2.4163
  184SLPC  H18Y21215   3.484   2.652   8.095 -0.1562 -0.7518  0.7398
  184SLPC  H18Z21216   3.662   2.613   8.123 -0.9052 -0.8303 -0.2229
  185SLPC     N21217   1.600   6.436   6.419 -0.3737 -0.0898  0.5301
  185SLPC   C1321218   1.487   6.410   6.322  0.4848 -0.8648 -0.0667
  185SLPC  H13A21219   1.405   6.365   6.377 -0.9478  4.5719  2.5146
  185SLPC  H13B21220   1.443   6.502   6.286  2.5380  0.0885 -0.2051
  185SLPC  H13C21221   1.515   6.345   6.240 -0.5951  0.5275 -1.5614
  185SLPC   C1421222   1.549   6.505   6.545  0.1774  0.1429  0.6790
  185SLPC  H14A21223   1.508   6.602   6.518  0.8020  1.3317  3.7899
  185SLPC  H14B21224   1.472   6.448   6.594 -1.1030 -0.3847 -1.8679
  185SLPC  H14C21225   1.629   6.533   6.612 -0.0752  0.4908  0.8372
  185SLPC   C1521226   1.696   6.533   6.351  0.0236 -0.0433  0.0285
  185SLPC  H15A21227   1.789   6.538   6.406 -1.3391  0.8743  2.3378
  185SLPC  H15B21228   1.709   6.502   6.249 -0.2290  0.8100 -0.2635
  185SLPC  H15C21229   1.652   6.631   6.356 -1.0378 -0.5256  0.4408
  185SLPC   C1221230   1.666   6.309   6.454  0.3241  0.3582 -0.3422
  185SLPC  H12A21231   1.757   6.330   6.508 -1.3792 -1.1556  3.2857
  185SLPC  H12B21232   1.695   6.251   6.367 -1.0032  1.1349 -1.3255
  185SLPC   C1121233   1.580   6.206   6.534 -0.3349  0.0606 -0.0657
  185SLPC  H11A21234   1.514   6.162   6.456  0.8354  0.5154 -1.3419
  185SLPC  H11B21235   1.515   6.258   6.607 -1.8322  0.3244 -1.5707
  185SLPC     P21236   1.724   6.118   6.737  0.7353  0.0536 -0.3545
  185SLPC   O1321237   1.789   5.990   6.774 -0.2016 -0.1588 -0.2544
  185SLPC   O1421238   1.811   6.234   6.751 -0.4417 -0.1655 -0.1762
  185SLPC   O1221239   1.662   6.107   6.589 -0.1712  0.4557 -0.7872
  185SLPC   O1121240   1.590   6.142   6.821 -0.2192  0.0172 -0.1484
  185SLPC    C121241   1.479   6.048   6.837  0.1321 -0.2856 -0.3276
  185SLPC    HA21242   1.391   6.086   6.781  0.1167 -0.6807 -0.5626
  185SLPC    HB21243   1.496   5.944   6.803 -2.8504 -0.5116 -1.2957
  185SLPC    C221244   1.442   6.044   6.994 -1.2253 -0.1093 -0.0367
  185SLPC    HS21245   1.440   6.147   7.036 -0.5456 -0.1694  0.1517
  185SLPC   O2121246   1.531   5.952   7.058 -0.1152  0.6809 -0.0740
  185SLPC   C2121247   1.638   6.006   7.108  0.0653  0.3633  0.5307
  185SLPC   O2221248   1.662   6.128   7.098 -0.6078 -0.1685  0.5848
  185SLPC   C2221249   1.709   5.898   7.193  0.1535 -0.1049 -0.2257
  185SLPC   H2R21250   1.626   5.860   7.256 -0.8523  2.1477 -0.1536
  185SLPC   H2S21251   1.750   5.821   7.124  0.3182 -1.3037  1.1845
  185SLPC    C321252   1.299   5.991   7.025  0.4001 -0.6049  0.2473
  185SLPC    HX21253   1.277   5.890   6.982 -0.1660 -0.1658 -0.4998
  185SLPC    HY21254   1.236   6.058   6.962  0.9882  0.4948  0.8267
  185SLPC   O3121255   1.273   5.994   7.171 -0.3670  0.4333  0.0258
  185SLPC   C3121256   1.254   6.104   7.239  1.0687 -0.8852 -0.5753
  185SLPC   O3221257   1.246   6.217   7.189 -0.0420  0.0219 -0.0028
  185SLPC   C3221258   1.252   6.077   7.393  0.4037 -0.3433 -0.0781
  185SLPC   H2X21259   1.272   5.968   7.406  2.9353  0.3288  2.3072
  185SLPC   H2Y21260   1.148   6.086   7.430  0.4612  0.5471 -0.1296
  185SLPC   C2321261   1.821   5.954   7.285 -0.4980 -0.0496 -0.6629
  185SLPC   H3R21262   1.784   6.002   7.378  0.5226  0.9683 -0.7667
  185SLPC   H3S21263   1.881   6.031   7.231  2.6680 -1.2798  0.9503
  185SLPC   C2421264   1.910   5.831   7.333 -0.1795 -0.8418 -0.2821
  185SLPC   H4R21265   2.012   5.871   7.351  1.2738 -2.9739 -3.4225
  185SLPC   H4S21266   1.929   5.754   7.255 -0.2875 -2.0554  0.8722
  185SLPC   C2521267   1.851   5.766   7.461 -0.6611 -0.1951  0.5462
  185SLPC   H5R21268   1.881   5.660   7.454 -0.9600 -0.3237  1.1443
  185SLPC   H5S21269   1.740   5.775   7.453 -0.6649  1.9957  2.4569
  185SLPC   C2621270   1.897   5.830   7.598  0.1352  0.6348 -0.3977
  185SLPC   H6R21271   1.884   5.940   7.608  0.4925  0.5980  0.5476
  185SLPC   H6S21272   2.007   5.821   7.588  0.0671  0.4542 -1.0176
  185SLPC   C2721273   1.850   5.748   7.725 -0.4722 -0.1133 -0.6983
  185SLPC   H7R21274   1.867   5.639   7.714  0.0361  0.1593 -2.8434
  185SLPC   H7S21275   1.740   5.758   7.734 -0.3472 -0.3172  1.1134
  185SLPC   C2821276   1.899   5.786   7.868  0.2714  0.3515  0.2393
  185SLPC   H8R21277   2.010   5.789   7.860  0.3833 -1.0419  1.1554
  185SLPC   H8S21278   1.876   5.711   7.946  3.6674 -1.4269 -0.3747
  185SLPC   C2921279   1.844   5.923   7.898  0.0163  0.8521 -0.5310
  185SLPC   H9R21280   1.889   6.001   7.835  0.1612 -0.4483 -2.0684
  185SLPC  C21021281   1.751   5.960   7.991 -0.6545  0.2854  0.3602
  185SLPC  H10R21282   1.723   6.066   8.000 -0.4982  0.4814 -1.2716
  185SLPC  C21121283   1.666   5.871   8.081 -0.2895  0.5155  0.1222
  185SLPC  H11R21284   1.739   5.821   8.149  2.8735 -0.1589 -3.5575
  185SLPC  H11S21285   1.624   5.795   8.012  1.5091  1.2435 -1.8123
  185SLPC  C21221286   1.551   5.924   8.164 -0.2988  0.3387 -0.2121
  185SLPC  H12R21287   1.473   5.982   8.112 -0.1438 -1.4790 -2.5772
  185SLPC  C21321288   1.526   5.865   8.283 -0.0272 -0.4196  0.0579
  185SLPC  H13R21289   1.439   5.904   8.339 -0.6432 -1.8125  0.1001
  185SLPC  C21421290   1.599   5.757   8.355 -0.2618  0.0088 -0.0624
  185SLPC  H14R21291   1.709   5.771   8.344 -0.2948 -0.8243 -1.5692
  185SLPC  H14S21292   1.573   5.661   8.306 -2.7762 -0.3649  1.9071
  185SLPC  C21521293   1.577   5.751   8.505 -0.4605 -0.3758 -0.1827
  185SLPC  H15R21294   1.474   5.787   8.527  0.1270 -0.2612  2.4772
  185SLPC  H15S21295   1.637   5.822   8.566 -1.2181 -0.1963  0.3649
  185SLPC  C21621296   1.611   5.615   8.568 -0.6469  0.3750  0.1584
  185SLPC  H16R21297   1.583   5.525   8.508  1.6295 -0.5131  0.3911
  185SLPC  H16S21298   1.552   5.601   8.662 -1.1274  0.6425 -0.1017
  185SLPC  C21721299   1.761   5.595   8.598  0.3854  0.5579  0.3952
  185SLPC  H17R21300   1.820   5.616   8.507  2.8272  0.0431  1.8120
  185SLPC  H17S21301   1.772   5.488   8.626 -3.3630 -0.1477 -0.4751
  185SLPC  C21821302   1.817   5.673   8.718  0.0939 -0.5515 -0.7050
  185SLPC  H18R21303   1.915   5.624   8.737  0.4515  0.4424  0.0482
  185SLPC  H18S21304   1.757   5.652   8.809  2.2893  1.7637  1.3591
  185SLPC  H18T21305   1.819   5.784   8.709 -1.1160 -0.5120 -0.4887
  185SLPC   C3321306   1.351   6.170   7.467  1.0559  0.0026  1.4013
  185SLPC   H3X21307   1.330   6.164   7.576  0.6644 -2.3166  1.2354
  185SLPC   H3Y21308   1.327   6.275   7.439 -0.8402 -0.5834  0.7234
  185SLPC   C3421309   1.502   6.147   7.439  0.0074 -0.2783  0.9566
  185SLPC   H4X21310   1.524   6.142   7.330 -1.8659 -0.8919  0.5829
  185SLPC   H4Y21311   1.547   6.057   7.487 -0.0959 -0.6509  0.3559
  185SLPC   C3521312   1.583   6.264   7.490 -0.3611 -0.0843  0.0425
  185SLPC   H5X21313   1.548   6.283   7.593  0.3390  1.0795  0.0743
  185SLPC   H5Y21314   1.572   6.361   7.435 -1.4152  0.1187  0.6006
  185SLPC   C3621315   1.734   6.240   7.495 -0.4488 -0.4404 -0.0644
  185SLPC   H6X21316   1.765   6.249   7.388 -2.2008 -1.5179 -0.6972
  185SLPC   H6Y21317   1.758   6.137   7.527 -0.5539 -0.9983 -1.7040
  185SLPC   C3721318   1.806   6.347   7.574 -0.2697  0.5620  0.1314
  185SLPC   H7X21319   1.755   6.443   7.554 -1.1873  0.9856  4.2393
  185SLPC   H7Y21320   1.909   6.352   7.533  0.4739 -0.2073  1.8701
  185SLPC   C3821321   1.816   6.312   7.721 -0.2344 -0.9025  0.1029
  185SLPC   H8X21322   1.864   6.212   7.720 -0.3674 -0.9770 -2.8950
  185SLPC   H8Y21323   1.715   6.305   7.766 -0.5983 -0.0210 -0.5495
  185SLPC   C3921324   1.902   6.420   7.795  0.2702 -0.5075  0.2208
  185SLPC   H9X21325   1.835   6.508   7.805  2.6474  1.6652 -2.1536
  185SLPC   H9Y21326   1.987   6.446   7.727 -1.5167  1.4090 -1.3333
  185SLPC  C31021327   1.947   6.374   7.929 -0.0128  0.1287 -0.2693
  185SLPC  H10X21328   2.040   6.425   7.960  1.5500 -2.5972 -0.3642
  185SLPC  H10Y21329   1.963   6.264   7.929  3.7267  0.6126  0.5599
  185SLPC  C31121330   1.849   6.396   8.044 -0.0150  0.1759 -0.2711
  185SLPC  H11X21331   1.744   6.367   8.023 -0.5028  1.7749 -0.0723
  185SLPC  H11Y21332   1.838   6.506   8.049  1.1742  0.3527 -1.1912
  185SLPC  C31221333   1.884   6.319   8.165 -0.1176  0.0085  0.4184
  185SLPC  H12X21334   1.988   6.322   8.206 -0.0152  0.3335  0.1337
  185SLPC  H12Y21335   1.867   6.219   8.119 -2.4255  0.6226 -0.0932
  185SLPC  C31321336   1.791   6.327   8.281 -0.0458 -0.4988 -0.2396
  185SLPC  H13X21337   1.692   6.280   8.261 -0.7135  1.1543 -0.8716
  185SLPC  H13Y21338   1.773   6.435   8.300 -0.6540 -1.0141  2.3292
  185SLPC  C31421339   1.846   6.241   8.400  0.0800  0.2332 -0.2413
  185SLPC  H14X21340   1.944   6.281   8.434 -0.5600  0.6030  1.2367
  185SLPC  H14Y21341   1.856   6.133   8.377 -0.2777  0.1459 -0.0047
  185SLPC  C31521342   1.743   6.246   8.517  0.0646 -0.6828 -0.4493
  185SLPC  H15X21343   1.646   6.226   8.467  0.3416 -0.0709 -1.2342
  185SLPC  H15Y21344   1.729   6.345   8.566  2.6979 -0.1940 -0.6529
  185SLPC  C31621345   1.784   6.144   8.631  0.6237  0.1918 -0.6131
  185SLPC  H16X21346   1.893   6.164   8.643  0.7042 -1.3754  1.6614
  185SLPC  H16Y21347   1.779   6.049   8.574 -2.8053  1.0601 -1.8853
  185SLPC  C31721348   1.699   6.154   8.755  0.0490 -0.0532 -0.3073
  185SLPC  H17X21349   1.593   6.139   8.725 -0.1276 -0.8175  0.6873
  185SLPC  H17Y21350   1.722   6.255   8.793 -0.4079 -0.4106  0.9448
  185SLPC  C31821351   1.725   6.045   8.857  0.4534  0.4362  0.3989
  185SLPC  H18X21352   1.830   6.032   8.890 -0.4794 -0.4984  3.0828
  185SLPC  H18Y21353   1.689   5.951   8.809  0.0041  1.4818 -1.3951
  185SLPC  H18Z21354   1.668   6.073   8.948 -0.4503 -1.9739  0.5991
  186SLPC     N21355   2.553   1.459   6.287  0.0934 -0.3022 -0.0291
  186SLPC   C1321356   2.497   1.503   6.418 -0.2948 -0.5748  0.1113
  186SLPC  H13A21357   2.496   1.611   6.413  1.0280 -0.6391 -2.4178
  186SLPC  H13B21358   2.394   1.470   6.421 -0.5628  0.3426  1.6797
  186SLPC  H13C21359   2.549   1.460   6.503  1.5165  0.4038 -0.4703
  186SLPC   C1421360   2.485   1.535   6.177  0.1912 -0.4434  0.2419
  186SLPC  H14A21361   2.500   1.482   6.084  2.7605  0.4819  0.0759
  186SLPC  H14B21362   2.378   1.527   6.191  0.4949 -2.1103  1.6224
  186SLPC  H14C21363   2.509   1.640   6.184  0.6149 -0.5977  1.1567
  186SLPC   C1521364   2.531   1.317   6.260  0.5638 -0.4066  0.3506
  186SLPC  H15A21365   2.532   1.261   6.352  0.5826 -1.8914 -0.5377
  186SLPC  H15B21366   2.429   1.288   6.236  0.5275 -0.4981  0.6094
  186SLPC  H15C21367   2.591   1.271   6.183 -1.4768  0.8252 -2.0378
  186SLPC   C1221368   2.707   1.489   6.264  0.1517 -0.6355  0.6041
  186SLPC  H12A21369   2.755   1.433   6.343 -0.7904 -1.4966  0.5836
  186SLPC  H12B21370   2.722   1.594   6.283 -1.6264 -0.4996  1.3223
  186SLPC   C1121371   2.773   1.461   6.133 -0.2400  0.1993 -0.2148
  186SLPC  H11A21372   2.868   1.518   6.123  0.7211 -1.4364 -0.5799
  186SLPC  H11B21373   2.712   1.490   6.045  1.7758  3.4667 -0.6076
  186SLPC     P21374   2.902   1.256   6.212  0.1043 -0.2770  0.4561
  186SLPC   O1321375   2.826   1.197   6.327  0.1020 -0.1279 -0.0145
  186SLPC   O1421376   2.987   1.173   6.122 -0.3226  0.1519 -0.0072
  186SLPC   O1221377   2.794   1.323   6.116  0.2611  0.5429 -0.1882
  186SLPC   O1121378   2.988   1.376   6.267 -0.0072  0.5382  0.3040
  186SLPC    C121379   3.116   1.346   6.325 -0.6398 -0.9383 -0.2223
  186SLPC    HA21380   3.153   1.243   6.307  1.1333  0.1478 -3.1698
  186SLPC    HB21381   3.197   1.403   6.276  2.0016 -3.2822  1.2965
  186SLPC    C221382   3.117   1.388   6.478 -0.6981 -0.7675  0.3772
  186SLPC    HS21383   3.218   1.379   6.521 -0.8258 -0.6642  0.6996
  186SLPC   O2121384   3.029   1.301   6.552 -0.2443  0.1653  0.1936
  186SLPC   C2121385   3.069   1.170   6.553 -0.2602 -0.6363  0.1959
  186SLPC   O2221386   3.173   1.131   6.514 -0.6037 -0.6273  0.5394
  186SLPC   C2221387   2.960   1.085   6.611 -0.5326  0.3575  0.1046
  186SLPC   H2R21388   2.895   1.156   6.666  0.6084  1.5383 -0.0222
  186SLPC   H2S21389   2.900   1.035   6.532  0.4270  0.7116 -0.8685
  186SLPC    C321390   3.073   1.539   6.493  0.3383  1.0392  0.3577
  186SLPC    HX21391   2.972   1.534   6.447 -0.1818  0.4156  1.5374
  186SLPC    HY21392   3.144   1.617   6.457  3.0088 -1.3363  0.3013
  186SLPC   O3121393   3.075   1.561   6.639  0.3662  0.2242  0.4707
  186SLPC   C3121394   2.958   1.541   6.700  0.4873  0.9158  0.4933
  186SLPC   O3221395   2.849   1.515   6.646 -0.2724 -0.5388  0.7399
  186SLPC   C3221396   2.984   1.563   6.844  0.0410 -0.5061 -0.2087
  186SLPC   H2X21397   2.920   1.647   6.876 -2.4574 -2.5139  0.2126
  186SLPC   H2Y21398   3.089   1.593   6.864  0.9358 -2.0055 -2.4349
  186SLPC   C2321399   3.001   0.977   6.717 -0.0362 -0.5968 -0.1931
  186SLPC   H3R21400   3.099   0.930   6.691  0.8911  0.6729  0.9109
  186SLPC   H3S21401   2.919   0.902   6.716 -0.9335  0.3901 -1.7033
  186SLPC   C2421402   3.013   1.023   6.866  0.5214  0.4520  0.2951
  186SLPC   H4R21403   2.907   1.050   6.885 -0.7283 -1.2799 -3.6951
  186SLPC   H4S21404   3.062   1.121   6.880  1.5332 -0.0386  0.1994
  186SLPC   C2521405   3.055   0.913   6.961 -0.5725  0.5100 -0.2670
  186SLPC   H5R21406   3.165   0.903   6.951 -0.3732 -1.3113  3.0775
  186SLPC   H5S21407   3.000   0.818   6.941 -0.4502  0.6976 -1.5736
  186SLPC   C2621408   3.033   0.939   7.118 -0.4536  0.0402  0.3875
  186SLPC   H6R21409   2.928   0.967   7.141 -1.1545 -2.3926  0.2337
  186SLPC   H6S21410   3.095   1.024   7.153  2.6253 -1.8452 -0.3297
  186SLPC   C2721411   3.062   0.810   7.203 -0.0073 -0.0102  0.0621
  186SLPC   H7R21412   3.166   0.786   7.171 -0.1516  0.2311 -0.6006
  186SLPC   H7S21413   3.004   0.733   7.148 -1.7798  2.2171 -1.2618
  186SLPC   C2821414   3.019   0.827   7.347  0.2914  0.4246  0.2798
  186SLPC   H8R21415   2.910   0.846   7.345  0.1288 -0.5535 -2.0009
  186SLPC   H8S21416   3.064   0.923   7.379 -0.8654  0.2931  2.3339
  186SLPC   C2921417   3.075   0.712   7.427 -0.5783 -0.8101  0.9882
  186SLPC   H9R21418   3.108   0.631   7.361  1.0891  0.1571  0.6077
  186SLPC  C21021419   3.113   0.707   7.554  0.2794  0.3794 -0.2069
  186SLPC  H10R21420   3.157   0.613   7.591 -1.3800 -0.7242 -0.9974
  186SLPC  C21121421   3.104   0.810   7.661  0.7233 -1.2057 -0.3143
  186SLPC  H11R21422   3.076   0.905   7.612  2.1652 -0.7503 -0.2700
  186SLPC  H11S21423   3.208   0.823   7.696  1.4590 -4.1323 -1.2275
  186SLPC  C21221424   2.999   0.788   7.768  0.0274 -1.2765  0.3424
  186SLPC  H12R21425   2.917   0.861   7.766 -0.5249 -1.8272  1.9644
  186SLPC  C21321426   3.020   0.705   7.878  0.2765 -0.8556  0.4462
  186SLPC  H13R21427   2.940   0.691   7.951  0.7301 -0.5745  1.0058
  186SLPC  C21421428   3.140   0.621   7.905 -0.2859 -0.0465 -0.6806
  186SLPC  H14R21429   3.172   0.662   8.003 -1.7670  0.8641 -0.5604
  186SLPC  H14S21430   3.231   0.625   7.841 -0.2155 -0.5165 -0.6093
  186SLPC  C21521431   3.104   0.467   7.927  0.7184  0.0412 -0.1024
  186SLPC  H15R21432   3.147   0.403   7.847 -2.2215 -1.3294 -0.6274
  186SLPC  H15S21433   2.994   0.458   7.928  0.6735  0.5142 -0.5179
  186SLPC  C21621434   3.163   0.410   8.057  0.5976  0.0234  0.1140
  186SLPC  H16R21435   3.123   0.308   8.076  1.6742 -0.4450 -0.1461
  186SLPC  H16S21436   3.133   0.477   8.140  0.7726 -0.1221  0.2968
  186SLPC  C21721437   3.317   0.398   8.054  0.1189 -0.3431 -0.4977
  186SLPC  H17R21438   3.347   0.493   8.006  0.7140  0.2167  0.9549
  186SLPC  H17S21439   3.348   0.306   8.000 -1.9695 -0.7454 -1.0385
  186SLPC  C21821440   3.384   0.381   8.195 -1.1232  0.3407  0.0378
  186SLPC  H18R21441   3.374   0.469   8.262  2.7647  0.3608  0.7061
  186SLPC  H18S21442   3.494   0.363   8.193 -0.9714  1.1595  0.7994
  186SLPC  H18T21443   3.330   0.302   8.251 -2.6167  1.4007  0.1197
  186SLPC   C3321444   2.930   1.451   6.932 -0.0375  0.3535  0.6348
  186SLPC   H3X21445   2.980   1.355   6.906  1.9786  1.7521 -0.8285
  186SLPC   H3Y21446   2.827   1.440   6.891  0.6876 -1.4377 -0.7851
  186SLPC   C3421447   2.920   1.486   7.078  0.2196 -0.3038 -0.3864
  186SLPC   H4X21448   2.886   1.592   7.088  0.2853 -0.3777  0.6512
  186SLPC   H4Y21449   3.019   1.484   7.128  0.4239  2.5375 -0.5848
  186SLPC   C3521450   2.829   1.383   7.154  0.0323 -0.0344  0.2939
  186SLPC   H5X21451   2.849   1.280   7.118  1.4747  0.6664 -0.9970
  186SLPC   H5Y21452   2.724   1.411   7.130  0.2217 -1.0817 -1.8297
  186SLPC   C3621453   2.850   1.392   7.303 -0.4125 -0.0543 -0.2895
  186SLPC   H6X21454   2.765   1.333   7.343  0.0304 -0.2058  0.4591
  186SLPC   H6Y21455   2.840   1.495   7.342  3.5802  0.8157 -1.2750
  186SLPC   C3721456   2.983   1.326   7.345 -0.1805  0.1509 -0.3898
  186SLPC   H7X21457   3.068   1.388   7.308 -0.1008 -1.0849 -2.2812
  186SLPC   H7Y21458   2.990   1.234   7.285 -1.1417 -0.3763  0.2893
  186SLPC   C3821459   2.980   1.271   7.497 -1.1789 -0.2065  0.7274
  186SLPC   H8X21460   3.082   1.231   7.515 -0.4075  0.8310 -1.2388
  186SLPC   H8Y21461   2.909   1.187   7.507  0.7489 -1.7107  2.0095
  186SLPC   C3921462   2.975   1.379   7.607  0.1401 -0.1656 -0.1848
  186SLPC   H9X21463   2.889   1.444   7.580  0.7888  0.3122 -1.1076
  186SLPC   H9Y21464   3.061   1.448   7.592 -0.7903  0.5277 -2.5403
  186SLPC  C31021465   2.973   1.313   7.744  0.5007 -0.4373  0.3839
  186SLPC  H10X21466   2.911   1.222   7.726  0.6526 -0.3128 -0.8136
  186SLPC  H10Y21467   2.918   1.363   7.826  2.5521  0.4663  1.2293
  186SLPC  C31121468   3.110   1.279   7.808 -0.4182 -0.2839 -0.3052
  186SLPC  H11X21469   3.149   1.374   7.850  0.0685 -0.2516 -0.8303
  186SLPC  H11Y21470   3.177   1.239   7.729 -1.8767 -0.4766 -1.4665
  186SLPC  C31221471   3.113   1.190   7.942  0.3398 -0.4635  0.4151
  186SLPC  H12X21472   3.037   1.110   7.927  1.8498 -1.6545 -1.0951
  186SLPC  H12Y21473   3.078   1.246   8.032 -0.3033 -0.7379  0.3438
  186SLPC  C31321474   3.245   1.128   7.967  0.0494 -0.1414  0.2967
  186SLPC  H13X21475   3.314   1.209   7.999  1.2610 -1.4144  0.9501
  186SLPC  H13Y21476   3.282   1.092   7.868  1.4514 -1.2784  1.2345
  186SLPC  C31421477   3.257   1.013   8.070  0.6764  0.0384 -0.0304
  186SLPC  H14X21478   3.185   0.932   8.047  0.1720  0.5281 -0.1692
  186SLPC  H14Y21479   3.226   1.063   8.164  0.2315  0.8479 -0.5961
  186SLPC  C31521480   3.402   0.967   8.086  0.2403  0.3481 -0.4026
  186SLPC  H15X21481   3.456   1.063   8.095  1.6782 -0.2037 -2.6100
  186SLPC  H15Y21482   3.439   0.907   7.999  0.2386  1.5970 -1.2744
  186SLPC  C31621483   3.414   0.867   8.206 -0.1888  0.3009  0.4284
  186SLPC  H16X21484   3.364   0.773   8.174 -1.4816  1.3683 -0.7384
  186SLPC  H16Y21485   3.356   0.909   8.290 -0.1096  1.9387 -0.3102
  186SLPC  C31721486   3.550   0.839   8.261  1.1835  0.0032  0.2841
  186SLPC  H17X21487   3.592   0.931   8.307  0.3618  0.3887  0.2552
  186SLPC  H17Y21488   3.617   0.807   8.178  2.8710  0.2358  1.5232
  186SLPC  C31821489   3.550   0.736   8.374  0.3990 -0.3119 -0.2688
  186SLPC  H18X21490   3.482   0.766   8.456  1.1032  1.3723 -0.2826
  186SLPC  H18Y21491   3.650   0.720   8.418  0.7094  0.0930 -0.8140
  186SLPC  H18Z21492   3.523   0.635   8.336 -0.9254  0.6485 -2.0081
  187SLPC     N21493   2.776   4.985   6.120  0.4610 -0.6023  0.4095
  187SLPC   C1321494   2.742   5.031   5.982 -0.8302 -0.4766 -0.1118
  187SLPC  H13A21495   2.697   5.129   5.985  2.3935  1.1031 -1.0275
  187SLPC  H13B21496   2.827   5.037   5.915 -1.5125  1.4184 -0.8387
  187SLPC  H13C21497   2.667   4.972   5.933  0.0443 -1.6047 -0.1314
  187SLPC   C1421498   2.869   5.084   6.170 -0.8241 -0.3426 -0.5993
  187SLPC  H14A21499   2.938   5.102   6.089 -0.8444  0.9819 -0.3348
  187SLPC  H14B21500   2.827   5.176   6.210  2.9799  1.5448 -0.6603
  187SLPC  H14C21501   2.936   5.044   6.245 -0.4231  2.3097  0.5359
  187SLPC   C1521502   2.832   4.846   6.118  0.3572  0.7621 -0.2609
  187SLPC  H15A21503   2.928   4.841   6.070  1.6055  0.3060  2.2201
  187SLPC  H15B21504   2.851   4.822   6.222 -1.7111 -3.0904 -0.6813
  187SLPC  H15C21505   2.758   4.777   6.080  0.9175 -0.6615  1.1793
  187SLPC   C1221506   2.652   4.980   6.205 -0.2473 -0.2498 -0.1143
  187SLPC  H12A21507   2.580   4.912   6.163 -0.5030 -0.0942  0.0735
  187SLPC  H12B21508   2.601   5.075   6.202 -2.0686 -1.2622 -1.7759
  187SLPC   C1121509   2.670   4.942   6.352 -0.4321 -0.4167  0.7973
  187SLPC  H11A21510   2.574   4.954   6.406 -1.2559  0.0191 -0.7286
  187SLPC  H11B21511   2.742   5.016   6.395 -1.9388  1.4117  0.2241
  187SLPC     P21512   2.822   4.781   6.481 -0.3138  0.3255  0.2601
  187SLPC   O1321513   2.834   4.634   6.478 -0.2785  0.5954  0.3609
  187SLPC   O1421514   2.939   4.866   6.466 -0.1443 -0.2296 -0.0471
  187SLPC   O1221515   2.712   4.801   6.365  0.3673 -0.3279  0.2220
  187SLPC   O1121516   2.757   4.820   6.613 -0.1951  0.7085  0.7628
  187SLPC    C121517   2.641   4.753   6.662 -0.3436  0.5578 -0.0431
  187SLPC    HA21518   2.576   4.834   6.701 -0.8831  0.6142 -1.0307
  187SLPC    HB21519   2.577   4.715   6.579 -0.5713  2.3190 -0.7037
  187SLPC    C221520   2.651   4.661   6.787  0.8704 -0.4058 -0.0373
  187SLPC    HS21521   2.554   4.624   6.827 -0.2847  1.9827 -0.4992
  187SLPC   O2121522   2.725   4.724   6.893 -0.0013  0.1725  0.0820
  187SLPC   C2121523   2.648   4.801   6.963 -1.1541  0.3978 -0.0969
  187SLPC   O2221524   2.526   4.809   6.958  0.8708 -0.0018 -0.4800
  187SLPC   C2221525   2.739   4.879   7.056  0.1176  0.1948  0.1816
  187SLPC   H2R21526   2.822   4.813   7.089  1.0411  0.8427 -0.8150
  187SLPC   H2S21527   2.793   4.952   6.993  1.5486  0.2351  1.4238
  187SLPC    C321528   2.718   4.523   6.749 -0.3236  0.9852 -0.3586
  187SLPC    HX21529   2.812   4.550   6.697 -0.2141 -2.1741 -1.9139
  187SLPC    HY21530   2.661   4.479   6.665 -2.1447 -0.8605  1.7992
  187SLPC   O3121531   2.732   4.425   6.859 -0.0370 -0.5751 -0.1951
  187SLPC   C3121532   2.847   4.359   6.861  0.0773 -0.0434  0.2351
  187SLPC   O3221533   2.947   4.389   6.798  0.2915 -1.1765  0.0596
  187SLPC   C3221534   2.837   4.248   6.959  0.0505 -0.0687  0.7999
  187SLPC   H2X21535   2.930   4.190   6.945  0.0638  0.2607 -0.5344
  187SLPC   H2Y21536   2.752   4.183   6.928  1.1675 -1.3417  0.3833
  187SLPC   C2321537   2.681   4.957   7.181 -0.0477  0.8499 -0.3201
  187SLPC   H3R21538   2.599   5.027   7.156 -1.7213 -1.0475 -0.2773
  187SLPC   H3S21539   2.768   5.023   7.202  1.1564 -0.1498 -1.9640
  187SLPC   C2421540   2.634   4.876   7.299  0.2468  0.3703 -0.2374
  187SLPC   H4R21541   2.705   4.794   7.326 -0.7265 -0.4070 -0.0294
  187SLPC   H4S21542   2.540   4.829   7.264  0.8147  1.1718 -2.9539
  187SLPC   C2521543   2.601   4.961   7.425  0.7785  0.0226  0.0179
  187SLPC   H5R21544   2.527   5.034   7.386 -1.3130 -2.6406 -1.2728
  187SLPC   H5S21545   2.694   5.016   7.447  0.7622 -0.2202  0.6817
  187SLPC   C2621546   2.550   4.881   7.544 -0.1605  0.5823  0.1883
  187SLPC   H6R21547   2.620   4.798   7.566  1.6090  1.8497 -0.6034
  187SLPC   H6S21548   2.446   4.841   7.534  1.4106 -4.0907  1.2675
  187SLPC   C2721549   2.538   4.972   7.670  0.8153 -0.0140 -0.6943
  187SLPC   H7R21550   2.462   5.050   7.645  0.2666  0.5196  2.4204
  187SLPC   H7S21551   2.637   5.023   7.670  0.3887  0.9530  3.3788
  187SLPC   C2821552   2.521   4.900   7.805  0.4950 -0.1423  1.3737
  187SLPC   H8R21553   2.601   4.822   7.803  0.8122  0.1945  0.6000
  187SLPC   H8S21554   2.418   4.858   7.806  0.4762 -0.1254  0.7490
  187SLPC   C2921555   2.549   5.008   7.903  0.9382  0.4069 -1.2667
  187SLPC   H9R21556   2.470   5.084   7.899 -1.5867 -2.0564 -0.0826
  187SLPC  C21021557   2.643   5.010   7.999  0.0853  0.6832  0.9516
  187SLPC  H10R21558   2.672   5.100   8.055  1.5651  1.2363 -0.6562
  187SLPC  C21121559   2.738   4.891   8.024 -0.3641 -0.7883 -0.1501
  187SLPC  H11R21560   2.789   4.874   7.927 -0.9195  1.8979 -0.9487
  187SLPC  H11S21561   2.697   4.791   8.052  0.8939 -1.7198 -1.5176
  187SLPC  C21221562   2.853   4.917   8.123  0.1568  0.0329 -0.4801
  187SLPC  H12R21563   2.956   4.928   8.085  0.0042  0.8062 -0.6720
  187SLPC  C21321564   2.837   4.928   8.249  0.4370 -0.9372 -0.9220
  187SLPC  H13R21565   2.927   4.920   8.311 -0.6537 -0.6535  0.7134
  187SLPC  C21421566   2.719   4.926   8.333  0.0061 -0.2627 -0.1766
  187SLPC  H14R21567   2.682   4.827   8.367  1.6693 -0.9263 -0.2676
  187SLPC  H14S21568   2.632   4.977   8.285  1.3499 -0.5003 -2.9503
  187SLPC  C21521569   2.745   5.010   8.462  0.0860 -0.0063 -0.0180
  187SLPC  H15R21570   2.743   5.114   8.424  2.3725 -0.2199 -0.8533
  187SLPC  H15S21571   2.845   4.990   8.506 -0.1778  2.8591  2.0376
  187SLPC  C21621572   2.646   4.995   8.587  0.6159 -0.4351 -0.2727
  187SLPC  H16R21573   2.666   4.893   8.627 -0.3477 -0.2696  0.6228
  187SLPC  H16S21574   2.546   4.970   8.545  0.4484 -0.0889 -0.0837
  187SLPC  C21721575   2.672   5.104   8.694  0.1022 -0.2320 -0.3093
  187SLPC  H17R21576   2.668   5.201   8.640 -0.4233 -0.5785 -0.8966
  187SLPC  H17S21577   2.774   5.091   8.737  0.0342  0.8837  0.2296
  187SLPC  C21821578   2.570   5.095   8.812 -0.6909  0.6043 -0.3202
  187SLPC  H18R21579   2.597   5.154   8.902 -1.9759  0.2096  0.3258
  187SLPC  H18S21580   2.550   4.988   8.829  1.0943 -0.1786 -2.8088
  187SLPC  H18T21581   2.474   5.135   8.773 -1.7542 -2.0020 -0.4550
  187SLPC   C3321582   2.805   4.290   7.104 -0.0304 -0.6941 -0.5983
  187SLPC   H3X21583   2.798   4.202   7.172  0.1219  0.9297  1.5953
  187SLPC   H3Y21584   2.713   4.351   7.114  0.1964 -0.1768 -1.6129
  187SLPC   C3421585   2.906   4.395   7.164  0.0021  0.8514  0.2850
  187SLPC   H4X21586   2.872   4.501   7.163  2.1322  1.5800  1.1681
  187SLPC   H4Y21587   2.995   4.391   7.098 -1.4850  2.6805 -1.9055
  187SLPC   C3521588   2.955   4.360   7.305  0.0725  0.1840  0.0397
  187SLPC   H5X21589   3.002   4.260   7.305  0.1555  0.2260 -0.9343
  187SLPC   H5Y21590   2.869   4.345   7.374 -0.2826  1.0884 -0.2009
  187SLPC   C3621591   3.051   4.469   7.355  1.0430 -0.2937  0.1440
  187SLPC   H6X21592   3.138   4.482   7.287  0.6653 -1.0386 -0.4832
  187SLPC   H6Y21593   3.071   4.427   7.456  1.2835  0.6236  0.4884
  187SLPC   C3721594   2.987   4.609   7.385 -0.0981  0.2631  0.2010
  187SLPC   H7X21595   3.072   4.669   7.423 -3.6171  4.0972  2.4160
  187SLPC   H7Y21596   2.968   4.641   7.280 -1.2849 -0.5954  0.1418
  187SLPC   C3821597   2.868   4.624   7.477  0.0845  0.0002  0.0057
  187SLPC   H8X21598   2.775   4.598   7.423  0.5848  2.5710 -2.2187
  187SLPC   H8Y21599   2.876   4.734   7.492 -0.9996 -0.1177  1.5230
  187SLPC   C3921600   2.888   4.569   7.618  0.1712 -0.4593 -0.0464
  187SLPC   H9X21601   2.912   4.464   7.589  0.8783 -0.4016  0.3169
  187SLPC   H9Y21602   2.791   4.573   7.671  0.9066 -0.6800  1.3518
  187SLPC  C31021603   3.000   4.645   7.692 -0.2757 -0.1233  0.0543
  187SLPC  H10X21604   2.959   4.746   7.709 -1.4030 -0.4083 -0.8828
  187SLPC  H10Y21605   3.091   4.639   7.629  0.6033 -0.0975  1.3060
  187SLPC  C31121606   3.042   4.564   7.820 -0.6809  0.1647 -0.2515
  187SLPC  H11X21607   3.076   4.463   7.789  1.0726  0.9016 -0.8323
  187SLPC  H11Y21608   2.952   4.555   7.885  0.1060  1.4893  1.0585
  187SLPC  C31221609   3.154   4.627   7.909 -0.3740  0.2371 -0.1040
  187SLPC  H12X21610   3.134   4.732   7.941  0.4306  0.4198 -0.1839
  187SLPC  H12Y21611   3.252   4.641   7.857 -0.7845  1.7210 -0.5163
  187SLPC  C31321612   3.180   4.555   8.043 -0.0600  0.3643  0.2088
  187SLPC  H13X21613   3.269   4.602   8.090 -0.8274  0.2553  1.8136
  187SLPC  H13Y21614   3.209   4.449   8.032 -1.3979  0.0867 -0.8506
  187SLPC  C31421615   3.050   4.559   8.138 -0.5467 -0.3793  0.7672
  187SLPC  H14X21616   2.963   4.508   8.092 -0.9044  0.7854  0.1353
  187SLPC  H14Y21617   3.031   4.668   8.147 -0.9087 -0.4125  0.3839
  187SLPC  C31521618   3.070   4.501   8.276  1.0528 -0.4667  0.1897
  187SLPC  H15X21619   3.140   4.564   8.335  1.2907 -1.9976  1.5761
  187SLPC  H15Y21620   3.127   4.409   8.252 -0.5219 -1.0258 -1.5395
  187SLPC  C31621621   2.939   4.486   8.341 -0.3812  0.8366  0.1926
  187SLPC  H16X21622   2.852   4.552   8.321 -1.9157 -0.0434  3.4875
  187SLPC  H16Y21623   2.969   4.516   8.444 -0.3641 -0.7139  0.6524
  187SLPC  C31721624   2.888   4.344   8.354  0.5624  1.4017  0.1686
  187SLPC  H17X21625   2.963   4.264   8.367 -0.7864 -0.0470 -0.7593
  187SLPC  H17Y21626   2.830   4.325   8.261 -0.8076  1.0342  1.0926
  187SLPC  C31821627   2.781   4.326   8.463  0.3863 -0.0493  0.3020
  187SLPC  H18X21628   2.761   4.220   8.489 -2.3038 -0.3302 -2.5443
  187SLPC  H18Y21629   2.679   4.354   8.428 -0.0351  0.1373  1.6532
  187SLPC  H18Z21630   2.794   4.380   8.559 -2.2480 -0.0708  0.7189
  188SLPC     N21631   4.248   5.495   6.288 -0.0813 -0.0923 -0.2000
  188SLPC   C1321632   4.359   5.404   6.247 -0.9898 -0.1974 -0.1889
  188SLPC  H13A21633   4.416   5.456   6.171  0.2029  3.3478  3.0044
  188SLPC  H13B21634   4.419   5.400   6.336 -1.2993  3.4407  0.2320
  188SLPC  H13C21635   4.312   5.315   6.206 -0.2708 -0.7983  0.2828
  188SLPC   C1421636   4.184   5.448   6.415 -0.0895  0.3799 -0.0140
  188SLPC  H14A21637   4.100   5.512   6.441 -0.1201  0.5991 -0.6343
  188SLPC  H14B21638   4.169   5.342   6.405  1.0850  0.2596 -0.5934
  188SLPC  H14C21639   4.260   5.447   6.491  1.7614 -2.3476 -1.8327
  188SLPC   C1521640   4.149   5.490   6.179 -0.2353 -1.3414  0.3009
  188SLPC  H15A21641   4.103   5.392   6.171  0.0209 -1.4013 -0.5708
  188SLPC  H15B21642   4.070   5.562   6.189  0.2143 -0.8282  0.1456
  188SLPC  H15C21643   4.192   5.511   6.082 -0.6406 -1.1952  0.1537
  188SLPC   C1221644   4.303   5.635   6.308 -0.4873 -0.1117 -0.6248
  188SLPC  H12A21645   4.363   5.657   6.221  1.4831 -0.9680  0.4844
  188SLPC  H12B21646   4.365   5.630   6.397  0.4908 -1.0318 -1.3550
  188SLPC   C1121647   4.200   5.744   6.345  0.3800 -0.6830  0.2292
  188SLPC  H11A21648   4.114   5.715   6.409 -0.1606  0.6488  0.1177
  188SLPC  H11B21649   4.142   5.786   6.260 -1.7975  1.0015  2.4695
  188SLPC     P21650   4.305   5.847   6.562 -0.3592 -0.0389  0.4147
  188SLPC   O1321651   4.382   5.725   6.585  0.1794  0.0738 -0.0040
  188SLPC   O1421652   4.371   5.976   6.595 -0.0611  0.3375  0.3099
  188SLPC   O1221653   4.272   5.852   6.405 -0.8231  0.3761 -0.2901
  188SLPC   O1121654   4.162   5.831   6.628  0.0198  0.1891  0.0059
  188SLPC    C121655   4.051   5.916   6.615 -0.8126  0.7325  0.5177
  188SLPC    HA21656   4.040   5.951   6.510  0.6643 -0.7441 -0.1547
  188SLPC    HB21657   3.961   5.855   6.637  1.1206 -1.9769  1.2079
  188SLPC    C221658   4.058   6.026   6.715  0.0993  0.1559 -0.3064
  188SLPC    HS21659   4.161   6.069   6.716  0.1927 -0.0619  1.9540
  188SLPC   O2121660   4.021   5.973   6.844 -0.0445 -0.0364 -0.5865
  188SLPC   C2121661   4.065   6.047   6.949  0.0132  0.4817  0.8669
  188SLPC   O2221662   4.146   6.136   6.938  0.2083  0.1454 -0.2162
  188SLPC   C2221663   4.000   5.988   7.078  0.2988  0.0943  0.0041
  188SLPC   H2R21664   3.892   5.967   7.068  0.4574 -1.1962  0.9118
  188SLPC   H2S21665   4.055   5.892   7.091  0.5191  0.2369  0.1347
  188SLPC    C321666   3.966   6.149   6.677  0.1918  1.2172  0.6638
  188SLPC    HX21667   3.867   6.100   6.665  0.7078 -0.2964  2.3493
  188SLPC    HY21668   3.996   6.187   6.577 -0.7748 -1.2773 -0.6287
  188SLPC   O3121669   3.951   6.253   6.769  0.2709 -0.4508 -0.5280
  188SLPC   C3121670   4.028   6.357   6.760 -1.1534 -0.0314 -0.1512
  188SLPC   O3221671   4.120   6.380   6.681  0.5010  0.1988 -0.1006
  188SLPC   C3221672   3.994   6.463   6.873 -0.1905 -0.2809  0.8202
  188SLPC   H2X21673   3.914   6.417   6.935 -1.5205  0.4988 -0.3146
  188SLPC   H2Y21674   3.954   6.551   6.819  0.1310 -0.6137  0.0254
  188SLPC   C2321675   4.023   6.080   7.195 -0.1903 -0.3348 -1.2815
  188SLPC   H3R21676   3.962   6.173   7.188 -0.5304 -0.4195  0.4344
  188SLPC   H3S21677   4.131   6.109   7.201 -0.0815 -0.4323 -2.6719
  188SLPC   C2421678   3.994   6.012   7.324  0.5374  0.1537 -0.2115
  188SLPC   H4R21679   4.068   5.930   7.342  2.0711  1.4898 -0.2800
  188SLPC   H4S21680   3.901   5.952   7.323  0.6329  0.0061 -0.3923
  188SLPC   C2521681   4.013   6.114   7.437  0.2162 -0.9309  0.0312
  188SLPC   H5R21682   3.946   6.200   7.417 -1.4887 -2.2670 -0.1729
  188SLPC   H5S21683   4.119   6.146   7.434  0.6287 -2.2996 -0.3226
  188SLPC   C2621684   3.982   6.064   7.579 -0.6085 -0.4177 -0.5087
  188SLPC   H6R21685   4.024   5.965   7.605  0.6328  0.3376  0.4256
  188SLPC   H6S21686   3.871   6.063   7.592 -0.5599  0.5137  0.0517
  188SLPC   C2721687   4.046   6.157   7.692 -0.3670  0.3755  0.2115
  188SLPC   H7R21688   4.001   6.259   7.690 -0.8276  0.1526 -1.1736
  188SLPC   H7S21689   4.155   6.159   7.666 -0.7396 -2.2652 -1.6923
  188SLPC   C2821690   4.043   6.098   7.833 -0.1667 -0.1240 -0.0953
  188SLPC   H8R21691   4.116   6.157   7.892 -0.0187  0.6632 -1.0536
  188SLPC   H8S21692   4.083   5.995   7.847  0.5481  0.2391  0.6132
  188SLPC   C2921693   3.904   6.107   7.894 -0.1205  0.0317  0.1965
  188SLPC   H9R21694   3.826   6.053   7.837  0.3940  0.1857 -0.6532
  188SLPC  C21021695   3.878   6.170   8.012  0.4940  0.7307  0.3445
  188SLPC  H10R21696   3.772   6.179   8.042  0.5689 -2.1292  1.6877
  188SLPC  C21121697   3.975   6.235   8.105  0.7357 -0.7728  0.1649
  188SLPC  H11R21698   3.919   6.293   8.182  1.5683  0.3591 -0.0699
  188SLPC  H11S21699   4.036   6.310   8.050  0.8218 -0.9244  0.0531
  188SLPC  C21221700   4.073   6.138   8.177  0.0527 -0.5964 -0.3764
  188SLPC  H12R21701   4.072   6.036   8.137  0.0958 -0.5146 -0.5911
  188SLPC  C21321702   4.146   6.163   8.289 -0.3613  1.1727 -0.6347
  188SLPC  H13R21703   4.219   6.086   8.317 -0.3317  1.0417 -1.0628
  188SLPC  C21421704   4.147   6.286   8.366  1.2226  0.4171 -0.1637
  188SLPC  H14R21705   4.047   6.333   8.356 -0.0471 -2.1425  0.2009
  188SLPC  H14S21706   4.214   6.358   8.314  2.4692 -0.9014 -0.4068
  188SLPC  C21521707   4.183   6.268   8.513 -0.3704  0.1220  0.4458
  188SLPC  H15R21708   4.268   6.198   8.527 -1.5417 -1.8293 -1.8483
  188SLPC  H15S21709   4.097   6.217   8.561 -1.4371  0.5612 -0.9666
  188SLPC  C21621710   4.199   6.398   8.594  0.3410 -0.9954  0.0549
  188SLPC  H16R21711   4.094   6.433   8.605  0.3412 -1.4750  1.6067
  188SLPC  H16S21712   4.253   6.468   8.526  1.0785 -1.2507  0.3781
  188SLPC  C21721713   4.256   6.369   8.732 -0.3189  0.5741 -0.4305
  188SLPC  H17R21714   4.209   6.285   8.788  0.6691 -0.0445 -0.5216
  188SLPC  H17S21715   4.229   6.449   8.804 -1.7447 -1.5131  1.4180
  188SLPC  C21821716   4.408   6.360   8.737  0.2224  0.2137  0.0186
  188SLPC  H18R21717   4.463   6.367   8.833 -0.6642  2.6808  0.3679
  188SLPC  H18S21718   4.447   6.442   8.673  3.4354 -0.5959  0.8089
  188SLPC  H18T21719   4.437   6.263   8.690 -0.1627  0.4617 -0.7389
  188SLPC   C3321720   4.113   6.500   6.969 -0.1897  0.3854 -0.1098
  188SLPC   H3X21721   4.187   6.557   6.908 -1.9823 -0.1258 -2.8798
  188SLPC   H3Y21722   4.163   6.403   6.990  1.9733  1.2165 -1.1693
  188SLPC   C3421723   4.074   6.590   7.089 -0.0344  0.0294  0.3219
  188SLPC   H4X21724   4.018   6.673   7.040 -0.2521 -1.8385 -2.7004
  188SLPC   H4Y21725   4.169   6.622   7.138  0.5898  2.4691 -2.3251
  188SLPC   C3521726   3.977   6.527   7.189  0.0378 -0.9471 -0.1630
  188SLPC   H5X21727   4.008   6.422   7.210 -0.1189 -0.6211  1.7127
  188SLPC   H5Y21728   3.872   6.526   7.151  0.3541 -0.1389 -1.0792
  188SLPC   C3621729   3.984   6.595   7.329  0.8625 -0.5728 -1.3449
  188SLPC   H6X21730   4.083   6.632   7.362 -0.8248  2.5564  0.4713
  188SLPC   H6Y21731   3.952   6.519   7.403 -0.0860 -0.0058 -1.1506
  188SLPC   C3721732   3.882   6.717   7.345 -0.3524 -0.8400  0.5203
  188SLPC   H7X21733   3.788   6.693   7.292  0.9205  0.3433 -2.3761
  188SLPC   H7Y21734   3.933   6.808   7.307  1.0090 -2.4494 -1.6071
  188SLPC   C3821735   3.844   6.743   7.502  0.7815  0.4983  0.3266
  188SLPC   H8X21736   3.930   6.701   7.560 -1.0253  1.2187  3.6399
  188SLPC   H8Y21737   3.755   6.681   7.524  1.2648 -0.3360 -0.0230
  188SLPC   C3921738   3.814   6.888   7.537 -0.7063 -0.5110  1.3328
  188SLPC   H9X21739   3.773   6.933   7.444  1.4495 -0.8522  0.1908
  188SLPC   H9Y21740   3.912   6.940   7.547 -0.5514 -0.6035  0.3874
  188SLPC  C31021741   3.732   6.908   7.664 -0.0929  0.5126 -0.0358
  188SLPC  H10X21742   3.675   6.815   7.687  0.9970 -0.5008 -1.2986
  188SLPC  H10Y21743   3.656   6.986   7.643  0.1442  1.7003  3.2185
  188SLPC  C31121744   3.817   6.951   7.785  0.0977  0.2635 -0.0659
  188SLPC  H11X21745   3.882   7.036   7.758  2.4841 -2.0274 -1.8582
  188SLPC  H11Y21746   3.892   6.872   7.806 -2.0235 -1.5157  1.0727
  188SLPC  C31221747   3.733   6.979   7.903 -0.3248 -0.6444  0.3287
  188SLPC  H12X21748   3.674   6.887   7.923 -2.4044  0.6522  0.3122
  188SLPC  H12Y21749   3.652   7.055   7.889 -0.4641 -0.8777 -0.1383
  188SLPC  C31321750   3.807   6.998   8.030 -0.3724 -0.4906 -0.1171
  188SLPC  H13X21751   3.877   7.084   8.021 -1.5242  0.5094  0.3218
  188SLPC  H13Y21752   3.858   6.902   8.050 -0.9171 -0.6778  0.3920
  188SLPC  C31421753   3.723   7.034   8.150  0.6975  0.5230  0.0194
  188SLPC  H14X21754   3.651   6.952   8.173 -0.2374  1.3454  0.0770
  188SLPC  H14Y21755   3.662   7.121   8.118 -0.1595  0.4253  1.3338
  188SLPC  C31521756   3.804   7.065   8.270  0.5147  0.2459  0.2203
  188SLPC  H15X21757   3.869   6.980   8.298  1.5660  0.9443 -0.0710
  188SLPC  H15Y21758   3.736   7.088   8.354  1.4031  1.6222  0.5878
  188SLPC  C31621759   3.917   7.172   8.261 -0.0393 -0.0200  0.4372
  188SLPC  H16X21760   4.007   7.134   8.208  0.3338  0.9487  0.3579
  188SLPC  H16Y21761   3.950   7.183   8.367 -0.7684  0.5977  0.6034
  188SLPC  C31721762   3.857   7.306   8.217  0.6929  0.1102 -0.0186
  188SLPC  H17X21763   3.776   7.318   8.292  2.1945 -1.3054  1.9199
  188SLPC  H17Y21764   3.815   7.293   8.116 -1.3355  1.5861  0.6179
  188SLPC  C31821765   3.965   7.413   8.226  0.7413  0.0573 -0.6871
  188SLPC  H18X21766   4.060   7.382   8.178  0.3824 -1.7532 -0.2723
  188SLPC  H18Y21767   3.981   7.448   8.330 -0.5171  0.3573 -0.5887
  188SLPC  H18Z21768   3.925   7.493   8.160  1.1558  1.0810  0.3055
  189SLPC     N21769   6.108   1.156   6.141  0.2366  0.4177 -0.6344
  189SLPC   C1321770   6.132   1.299   6.147 -0.2267  0.9469 -0.1253
  189SLPC  H13A21771   6.196   1.317   6.232 -0.5011  0.4386  0.1906
  189SLPC  H13B21772   6.178   1.331   6.055  0.6015 -0.7542 -0.3260
  189SLPC  H13C21773   6.041   1.357   6.157 -0.7306  0.1774 -0.2344
  189SLPC   C1421774   6.207   1.096   6.051  0.8362  0.5778  0.2370
  189SLPC  H14A21775   6.176   1.107   5.948  3.0750 -1.5482 -0.7156
  189SLPC  H14B21776   6.310   1.127   6.059  1.7090 -2.1967  0.3553
  189SLPC  H14C21777   6.218   0.989   6.063  0.6435  0.6689  1.2412
  189SLPC   C1521778   5.973   1.133   6.081  1.0166 -0.5422  0.1516
  189SLPC  H15A21779   5.947   1.028   6.072  1.7928 -0.6136 -1.4353
  189SLPC  H15B21780   5.898   1.170   6.150  0.0988 -2.1831  0.0626
  189SLPC  H15C21781   5.957   1.176   5.983  0.3084 -0.5817  0.2440
  189SLPC   C1221782   6.110   1.084   6.277  0.4714  0.4336 -0.2714
  189SLPC  H12A21783   6.078   0.983   6.259 -0.1839 -0.1745  3.8163
  189SLPC  H12B21784   6.042   1.134   6.344 -0.3582  0.8683 -1.4291
  189SLPC   C1121785   6.242   1.097   6.363 -0.8106  0.1043 -0.1356
  189SLPC  H11A21786   6.322   1.036   6.316 -0.5416  2.2595 -2.5988
  189SLPC  H11B21787   6.227   1.044   6.459  0.1338 -0.0210 -0.0437
  189SLPC     P21788   6.288   1.300   6.517  0.4022  0.3934  0.1684
  189SLPC   O1321789   6.384   1.238   6.613  0.2477  0.5231  0.2311
  189SLPC   O1421790   6.288   1.443   6.500  0.0792 -0.0570  0.0716
  189SLPC   O1221791   6.302   1.230   6.375  0.3009  0.2708 -0.5002
  189SLPC   O1121792   6.142   1.248   6.564 -0.1395  0.5167 -0.0555
  189SLPC    C121793   6.044   1.335   6.611 -0.0906  0.0045  0.3498
  189SLPC    HA21794   6.047   1.437   6.566 -4.0344 -0.2825 -0.7661
  189SLPC    HB21795   5.941   1.298   6.589 -0.3054 -0.6004  2.2732
  189SLPC    C221796   6.046   1.344   6.766 -0.3221  0.2677 -0.6218
  189SLPC    HS21797   5.942   1.375   6.790 -0.1973  1.6413 -1.7579
  189SLPC   O2121798   6.151   1.429   6.815 -0.6177 -0.1488  0.2116
  189SLPC   C2121799   6.108   1.542   6.862 -0.2349 -0.7093  0.2501
  189SLPC   O2221800   5.994   1.569   6.883 -0.4132 -0.7158 -0.3217
  189SLPC   C2221801   6.222   1.647   6.881  0.2833  0.4172  0.4177
  189SLPC   H2R21802   6.316   1.588   6.872 -0.1899 -0.1783 -0.8089
  189SLPC   H2S21803   6.207   1.726   6.805  0.8782  1.3031  1.2254
  189SLPC    C321804   6.068   1.203   6.829 -0.6994  0.2295  0.0401
  189SLPC    HX21805   6.158   1.153   6.790 -0.1964  0.9643  0.2476
  189SLPC    HY21806   5.986   1.135   6.796 -1.2982  0.8095  0.3043
  189SLPC   O3121807   6.066   1.228   6.970 -0.1860 -0.2633 -0.3093
  189SLPC   C3121808   6.074   1.125   7.054 -0.2132  0.0660 -0.0144
  189SLPC   O3221809   6.091   1.012   7.026  0.0959 -0.1948  0.0300
  189SLPC   C3221810   6.080   1.197   7.182 -0.1924  0.1772 -0.1555
  189SLPC   H2X21811   6.054   1.305   7.174 -1.3035  0.0357  1.3893
  189SLPC   H2Y21812   6.188   1.196   7.208 -0.2467 -0.3174  0.0545
  189SLPC   C2321813   6.224   1.697   7.026 -0.2810 -0.1001 -0.3705
  189SLPC   H3R21814   6.131   1.745   7.064  2.1200  2.0792  2.9391
  189SLPC   H3S21815   6.301   1.777   7.021 -0.6954  0.3296  0.1694
  189SLPC   C2421816   6.280   1.586   7.116  0.0427  0.1199 -0.1437
  189SLPC   H4R21817   6.382   1.573   7.073 -0.2916  1.6221 -1.4236
  189SLPC   H4S21818   6.221   1.492   7.127  1.8209 -1.0653 -0.5151
  189SLPC   C2521819   6.300   1.643   7.259  0.1467 -0.4795 -0.5603
  189SLPC   H5R21820   6.196   1.655   7.294  0.3995 -0.0699  0.0610
  189SLPC   H5S21821   6.355   1.740   7.261 -0.8940  0.0992  0.8086
  189SLPC   C2621822   6.364   1.535   7.354 -0.2557  0.6369  0.3417
  189SLPC   H6R21823   6.474   1.526   7.339 -0.2483  1.3306 -0.0110
  189SLPC   H6S21824   6.313   1.438   7.333  3.4958 -1.5872  0.8772
  189SLPC   C2721825   6.353   1.577   7.503  0.3090 -0.7152 -0.6157
  189SLPC   H7R21826   6.249   1.610   7.527  0.1958  0.3303 -2.4070
  189SLPC   H7S21827   6.409   1.672   7.514 -1.1729  0.0984  0.1478
  189SLPC   C2821828   6.395   1.479   7.606 -0.1810  0.3850  0.2147
  189SLPC   H8R21829   6.335   1.388   7.587  2.2174 -1.4605  1.2478
  189SLPC   H8S21830   6.363   1.504   7.709  0.5798 -1.1858  0.8462
  189SLPC   C2921831   6.538   1.440   7.614  0.2822 -0.2309  0.2052
  189SLPC   H9R21832   6.607   1.471   7.534  0.5530 -2.9963 -0.6872
  189SLPC  C21021833   6.597   1.363   7.707  0.5962  0.4263  0.5694
  189SLPC  H10R21834   6.704   1.338   7.703  1.0610  2.3058  0.7113
  189SLPC  C21121835   6.523   1.320   7.839  0.0883 -0.2725  0.0486
  189SLPC  H11R21836   6.425   1.271   7.819 -0.4344  0.9772 -0.5377
  189SLPC  H11S21837   6.482   1.404   7.900  2.1742  0.2720  0.7294
  189SLPC  C21221838   6.616   1.231   7.916  0.9987 -0.2666 -0.2841
  189SLPC  H12R21839   6.652   1.145   7.858  1.9172 -1.0653  1.4429
  189SLPC  C21321840   6.633   1.242   8.045  0.4924  1.2014 -0.4100
  189SLPC  H13R21841   6.705   1.179   8.100 -0.3524  1.7523  1.3725
  189SLPC  C21421842   6.575   1.340   8.143 -0.2140  0.0899  0.4621
  189SLPC  H14R21843   6.556   1.433   8.085  1.7122  1.3690  1.7968
  189SLPC  H14S21844   6.650   1.361   8.223  0.8274 -0.9168 -0.2304
  189SLPC  C21521845   6.434   1.303   8.196  0.1572 -0.2170  0.3049
  189SLPC  H15R21846   6.359   1.270   8.121  1.8467 -0.5482 -1.2717
  189SLPC  H15S21847   6.392   1.396   8.241 -0.3463 -0.4026  0.2177
  189SLPC  C21621848   6.443   1.201   8.311  0.6127 -0.2482  0.2197
  189SLPC  H16R21849   6.336   1.187   8.340  0.1899 -1.3205 -1.7892
  189SLPC  H16S21850   6.492   1.252   8.397  2.0120 -3.0438  1.1524
  189SLPC  C21721851   6.496   1.060   8.292  0.8289 -0.7170  0.6774
  189SLPC  H17R21852   6.607   1.065   8.295  0.7954  0.4241  0.3338
  189SLPC  H17S21853   6.473   1.028   8.189  0.8233 -1.7362  0.9924
  189SLPC  C21821854   6.456   0.960   8.396 -0.2257  0.3177  0.6614
  189SLPC  H18R21855   6.506   0.862   8.385 -2.9119 -0.9507 -0.8334
  189SLPC  H18S21856   6.349   0.934   8.379 -0.0108 -0.6838  0.8363
  189SLPC  H18T21857   6.482   1.007   8.493  0.3072  1.4853 -0.0277
  189SLPC   C3321858   6.006   1.117   7.295  0.1277  0.2620  0.5658
  189SLPC   H3X21859   6.062   1.023   7.315 -0.0631  0.4380  1.9543
  189SLPC   H3Y21860   5.902   1.094   7.265 -0.1392  0.0401  1.6585
  189SLPC   C3421861   6.006   1.201   7.418  0.3190  0.0269  0.0250
  189SLPC   H4X21862   5.950   1.294   7.398 -2.2835 -1.6831 -0.9028
  189SLPC   H4Y21863   6.114   1.222   7.437  0.2583 -1.1327  1.7334
  189SLPC   C3521864   5.926   1.134   7.542  0.3629 -0.6515 -0.1897
  189SLPC   H5X21865   5.983   1.043   7.569 -1.8049 -1.6003  1.3105
  189SLPC   H5Y21866   5.820   1.115   7.515  0.8444 -0.8973 -1.9995
  189SLPC   C3621867   5.924   1.205   7.680 -0.2443 -0.3149  0.1848
  189SLPC   H6X21868   5.860   1.162   7.760 -1.2336  0.5498 -0.1246
  189SLPC   H6Y21869   5.877   1.304   7.662 -0.3493 -0.4730 -0.4219
  189SLPC   C3721870   6.061   1.220   7.739  0.2186  0.2874 -0.5434
  189SLPC   H7X21871   6.130   1.287   7.684  0.3257  0.8443  0.2751
  189SLPC   H7Y21872   6.108   1.120   7.752  1.8344  1.1183  0.0615
  189SLPC   C3821873   6.057   1.286   7.881 -0.2983 -0.7418 -0.3075
  189SLPC   H8X21874   5.994   1.377   7.869  0.8299  0.1030  0.1146
  189SLPC   H8Y21875   6.159   1.327   7.898 -0.0121 -1.8995  0.7942
  189SLPC   C3921876   6.010   1.207   8.002  0.7902 -0.2271  1.0494
  189SLPC   H9X21877   6.074   1.118   8.016  0.3253 -0.8847 -0.8791
  189SLPC   H9Y21878   5.906   1.171   7.988  1.4415 -1.5313 -0.6035
  189SLPC  C31021879   6.036   1.287   8.130  0.0975  0.0638  0.3666
  189SLPC  H10X21880   6.006   1.392   8.111  0.8480  0.2414  0.1564
  189SLPC  H10Y21881   6.141   1.280   8.167 -0.3722  0.2997  1.7897
  189SLPC  C31121882   5.962   1.219   8.239 -0.2353 -0.2198 -0.2190
  189SLPC  H11X21883   5.852   1.220   8.221 -0.0277 -0.0737 -1.5254
  189SLPC  H11Y21884   5.976   1.274   8.335  0.0949  1.5098 -1.2458
  189SLPC  C31221885   5.996   1.072   8.261 -0.1089  0.1594 -0.5202
  189SLPC  H12X21886   6.102   1.040   8.261  0.2192  1.2361  0.5128
  189SLPC  H12Y21887   5.943   1.025   8.176 -0.9627 -1.2321  0.7445
  189SLPC  C31321888   5.946   1.029   8.403  0.5323  0.7679  0.4232
  189SLPC  H13X21889   5.903   0.927   8.417 -1.4151  1.4359 -0.4252
  189SLPC  H13Y21890   5.865   1.097   8.439  0.9673  1.8851 -0.6690
  189SLPC  C31421891   6.071   1.037   8.492 -0.0210 -0.3350  1.1664
  189SLPC  H14X21892   6.123   1.134   8.480 -1.4114  0.2773 -0.2257
  189SLPC  H14Y21893   6.135   0.952   8.461  0.0322 -0.5723  1.9222
  189SLPC  C31521894   6.027   1.033   8.643  0.5064  0.3470 -0.0344
  189SLPC  H15X21895   5.943   0.961   8.641  1.4588 -0.7949  0.2499
  189SLPC  H15Y21896   5.991   1.134   8.673  0.5567  0.5896 -0.7732
  189SLPC  C31621897   6.141   0.999   8.745  0.2285 -0.0716 -0.0725
  189SLPC  H16X21898   6.187   1.093   8.781 -0.0302 -0.1391  0.4370
  189SLPC  H16Y21899   6.222   0.939   8.698 -0.1254 -1.0100  0.4914
  189SLPC  C31721900   6.095   0.942   8.879  0.0360 -0.9969  0.0088
  189SLPC  H17X21901   6.040   0.850   8.850 -3.6470  1.5260 -1.2606
  189SLPC  H17Y21902   6.021   1.008   8.929 -0.3405  1.1822 -3.3123
  189SLPC  C31821903   6.219   0.930   8.967  0.6037  0.1715  0.7325
  189SLPC  H18X21904   6.260   1.030   8.994  1.0439 -0.5211  2.6931
  189SLPC  H18Y21905   6.301   0.871   8.920 -1.4985 -2.0420 -0.2632
  189SLPC  H18Z21906   6.184   0.877   9.058 -0.6467 -0.5101 -0.1298
  190SLPC     N21907   6.746   0.910   6.291 -0.0479 -0.0126 -0.0865
  190SLPC   C1321908   6.843   1.020   6.260  0.1396  0.6964 -0.3693
  190SLPC  H13A21909   6.832   1.097   6.335 -1.3050  1.4041 -1.2902
  190SLPC  H13B21910   6.936   0.965   6.253  0.0397  0.6974 -1.8919
  190SLPC  H13C21911   6.845   1.057   6.158  0.2926 -0.0611 -0.6440
  190SLPC   C1421912   6.754   0.803   6.193 -0.3962 -0.6437 -0.2706
  190SLPC  H14A21913   6.740   0.842   6.093 -2.7350 -0.4866  0.0977
  190SLPC  H14B21914   6.849   0.753   6.199 -0.1244  0.0263  1.5175
  190SLPC  H14C21915   6.677   0.728   6.202 -1.3900 -0.3572 -5.1752
  190SLPC   C1521916   6.612   0.962   6.289 -0.2670  0.3682  0.5096
  190SLPC  H15A21917   6.588   1.024   6.375 -0.7418  0.5138  0.2726
  190SLPC  H15B21918   6.597   1.021   6.200  0.8874  1.1052  0.7979
  190SLPC  H15C21919   6.535   0.888   6.301  0.8009 -0.9810 -0.8659
  190SLPC   C1221920   6.778   0.851   6.429  0.4745  1.0869 -0.9927
  190SLPC  H12A21921   6.759   0.923   6.507  1.4286  0.4077 -0.1174
  190SLPC  H12B21922   6.884   0.833   6.431  0.5362  1.3834 -1.4186
  190SLPC   C1121923   6.700   0.726   6.484  0.4197  0.3066  1.1511
  190SLPC  H11A21924   6.736   0.702   6.586  0.9572 -1.8919  0.4796
  190SLPC  H11B21925   6.708   0.633   6.424  0.7538  0.7030  0.5815
  190SLPC     P21926   6.440   0.682   6.453 -0.2063  0.2721  0.2341
  190SLPC   O1321927   6.315   0.731   6.521  0.3184  0.3236  0.0579
  190SLPC   O1421928   6.437   0.671   6.304 -0.8385  0.4423 -0.6885
  190SLPC   O1221929   6.568   0.766   6.505 -0.4679  0.0839 -0.1318
  190SLPC   O1121930   6.473   0.533   6.503  0.4959  0.5804 -0.6055
  190SLPC    C121931   6.505   0.508   6.641  0.1821  0.4870  0.2017
  190SLPC    HA21932   6.558   0.410   6.646 -0.0609  0.3928  0.8483
  190SLPC    HB21933   6.585   0.576   6.678  0.1823  0.2011  0.7262
  190SLPC    C221934   6.375   0.493   6.719  0.3678 -0.0275  0.3026
  190SLPC    HS21935   6.329   0.593   6.733 -1.7983 -0.8711 -0.6067
  190SLPC   O2121936   6.404   0.437   6.848 -0.0173 -0.1818  0.3236
  190SLPC   C2121937   6.370   0.496   6.954  0.4208 -0.0571 -0.0175
  190SLPC   O2221938   6.306   0.600   6.959  0.0432 -0.4927  0.0470
  190SLPC   C2221939   6.442   0.415   7.061 -0.1923  0.3290  0.6572
  190SLPC   H2R21940   6.430   0.309   7.033  0.9107  0.5285 -0.6165
  190SLPC   H2S21941   6.551   0.438   7.062 -0.3054  0.8906  0.7312
  190SLPC    C321942   6.277   0.388   6.657  0.0180 -0.2364  0.1775
  190SLPC    HX21943   6.333   0.294   6.675  0.4125 -0.1439 -0.5306
  190SLPC    HY21944   6.263   0.395   6.547 -1.0023 -0.3092  0.2906
  190SLPC   O3121945   6.153   0.376   6.722 -0.2820 -0.5765 -0.2118
  190SLPC   C3121946   6.069   0.486   6.719 -0.4190  0.0640  0.4316
  190SLPC   O3221947   6.090   0.582   6.648  0.5161 -0.2144 -0.2990
  190SLPC   C3221948   5.956   0.474   6.821 -0.0224  0.3265 -0.0132
  190SLPC   H2X21949   5.888   0.394   6.783  0.7946 -0.8015  0.8636
  190SLPC   H2Y21950   5.912   0.576   6.821 -0.5768  0.0987 -1.1160
  190SLPC   C2321951   6.377   0.448   7.195  1.2246 -0.0954  0.3758
  190SLPC   H3R21952   6.268   0.430   7.185  1.4137 -0.6818 -0.6498
  190SLPC   H3S21953   6.381   0.557   7.218 -2.3388  0.1416  0.0786
  190SLPC   C2421954   6.446   0.379   7.319 -0.2206 -0.1680  0.1797
  190SLPC   H4R21955   6.549   0.414   7.342 -0.5709  0.0929  1.4197
  190SLPC   H4S21956   6.442   0.270   7.304 -1.1304 -0.0814 -0.2731
  190SLPC   C2521957   6.376   0.402   7.448 -0.1284  0.5652 -0.3619
  190SLPC   H5R21958   6.269   0.375   7.461  0.5227 -2.1607 -0.5241
  190SLPC   H5S21959   6.368   0.513   7.457  1.1102  0.5268  1.2598
  190SLPC   C2621960   6.450   0.356   7.580  0.4613  0.4117  0.0401
  190SLPC   H6R21961   6.558   0.376   7.568  0.3851  2.3235  2.2667
  190SLPC   H6S21962   6.433   0.246   7.586  1.0733  0.1872 -1.8627
  190SLPC   C2721963   6.400   0.421   7.709  0.1426  0.4145  0.1648
  190SLPC   H7R21964   6.298   0.456   7.681 -1.1355 -1.2272  2.5335
  190SLPC   H7S21965   6.460   0.511   7.734 -0.9469  0.8995  1.0802
  190SLPC   C2821966   6.388   0.325   7.830 -0.4439 -0.0750  0.3131
  190SLPC   H8R21967   6.333   0.232   7.804 -0.5254 -0.4096  1.6489
  190SLPC   H8S21968   6.330   0.376   7.910  0.2029  0.5039  0.4165
  190SLPC   C2921969   6.526   0.299   7.882 -0.1052 -0.3616 -0.4439
  190SLPC   H9R21970   6.600   0.274   7.805 -0.2567  1.3183 -1.1646
  190SLPC  C21021971   6.572   0.283   8.012  0.9406  0.5432  0.5640
  190SLPC  H10R21972   6.673   0.240   8.021  1.3568  0.2343 -4.2327
  190SLPC  C21121973   6.492   0.286   8.141  0.2158  0.3683 -0.4135
  190SLPC  H11R21974   6.410   0.360   8.145  0.2263  0.2973  1.9054
  190SLPC  H11S21975   6.560   0.321   8.222 -0.8557  1.4093  0.0579
  190SLPC  C21221976   6.439   0.147   8.168 -0.1472  0.1934  0.3690
  190SLPC  H12R21977   6.412   0.091   8.077 -1.8241  0.4071  0.7260
  190SLPC  C21321978   6.410   0.086   8.281  0.3035 -0.2866 -0.1003
  190SLPC  H13R21979   6.353  -0.008   8.285  0.1311 -0.1637  0.4306
  190SLPC  C21421980   6.427   0.161   8.414 -0.2913  0.7693  0.1601
  190SLPC  H14R21981   6.527   0.207   8.429 -0.4571  0.4707  2.3474
  190SLPC  H14S21982   6.428   0.087   8.497  1.2026 -0.3910 -0.8648
  190SLPC  C21521983   6.311   0.260   8.444 -0.0796 -0.3095  0.4909
  190SLPC  H15R21984   6.264   0.296   8.350 -0.8994 -0.0524  0.9995
  190SLPC  H15S21985   6.353   0.356   8.480 -1.3444  0.0427  1.0268
  190SLPC  C21621986   6.203   0.201   8.535  0.4979  0.8362  0.6495
  190SLPC  H16R21987   6.161   0.278   8.604 -0.4316 -0.9238  2.0757
  190SLPC  H16S21988   6.251   0.124   8.599  0.3332  0.2640  0.0869
  190SLPC  C21721989   6.078   0.141   8.453 -0.0714 -0.4153 -0.8294
  190SLPC  H17R21990   5.999   0.109   8.524  0.2900  0.9759  0.2352
  190SLPC  H17S21991   6.119   0.058   8.391 -1.1093 -0.8004 -1.0004
  190SLPC  C21821992   6.027   0.232   8.344  0.0951  0.5408 -0.0585
  190SLPC  H18R21993   5.988   0.321   8.398  2.0017  1.6086 -0.4062
  190SLPC  H18S21994   5.939   0.190   8.290 -0.3377  0.5492  0.6301
  190SLPC  H18T21995   6.107   0.257   8.271  0.9959 -2.8564 -0.3061
  190SLPC   C3321996   6.004   0.439   6.963  0.4044 -0.1141  0.2441
  190SLPC   H3X21997   6.074   0.516   6.999  0.3725 -0.2998  0.7048
  190SLPC   H3Y21998   6.066   0.347   6.961  0.6272  0.0438 -0.1136
  190SLPC   C3421999   5.903   0.416   7.077  0.5873 -0.5689  0.1767
  190SLPC   H4X22000   5.836   0.329   7.059  0.8847 -1.1919  1.9630
  190SLPC   H4Y22001   5.843   0.509   7.093  1.2567  0.1494 -1.4296
  190SLPC   C3522002   5.973   0.386   7.209  0.2742 -0.8361 -0.4291
  190SLPC   H5X22003   5.983   0.485   7.258 -2.7541 -0.2418 -0.8725
  190SLPC   H5Y22004   6.068   0.330   7.197  0.4375 -0.3404 -1.5307
  190SLPC   C3622005   5.884   0.305   7.309 -0.1371 -0.9320  0.0097
  190SLPC   H6X22006   5.888   0.208   7.254 -0.8772 -0.3071 -1.1712
  190SLPC   H6Y22007   5.780   0.343   7.324  0.7296  1.8925 -0.9709
  190SLPC   C3722008   5.947   0.293   7.453 -0.1347  0.3232  0.4517
  190SLPC   H7X22009   6.056   0.283   7.431 -0.5040 -0.8117 -0.9877
  190SLPC   H7Y22010   5.915   0.197   7.500  0.8578 -1.3888 -2.2527
  190SLPC   C3822011   5.917   0.411   7.550 -0.4019 -0.7740  0.2255
  190SLPC   H8X22012   5.813   0.446   7.567  0.7798  1.4724  3.3550
  190SLPC   H8Y22013   5.954   0.505   7.504 -1.1085  0.8111  2.8013
  190SLPC   C3922014   5.967   0.373   7.689  0.5510 -0.6616  0.5714
  190SLPC   H9X22015   6.076   0.366   7.667  0.0841  1.4518 -2.6286
  190SLPC   H9Y22016   5.924   0.275   7.719  1.9118 -0.8553  1.9933
  190SLPC  C31022017   5.942   0.467   7.811 -0.6612 -0.2415  0.0564
  190SLPC  H10X22018   5.966   0.573   7.787  2.0968 -0.7470  0.4119
  190SLPC  H10Y22019   6.020   0.429   7.881  2.0091  2.1584 -1.4535
  190SLPC  C31122020   5.802   0.452   7.870  0.8884 -0.5104  0.6670
  190SLPC  H11X22021   5.728   0.414   7.797  0.6899  1.1451  0.0129
  190SLPC  H11Y22022   5.761   0.546   7.912 -0.9106 -0.1253 -1.8246
  190SLPC  C31222023   5.795   0.350   7.984 -0.2205  0.0178 -0.8512
  190SLPC  H12X22024   5.851   0.376   8.076  0.6867  1.0785 -1.6992
  190SLPC  H12Y22025   5.845   0.260   7.943  1.5752  0.9842 -0.7990
  190SLPC  C31322026   5.656   0.296   8.031 -0.4753  0.0736  0.1784
  190SLPC  H13X22027   5.669   0.199   8.083  0.2416 -0.5108 -1.0480
  190SLPC  H13Y22028   5.605   0.258   7.939 -1.2109  0.7939  0.2853
  190SLPC  C31422029   5.560   0.393   8.100  0.6775 -0.8303 -0.3339
  190SLPC  H14X22030   5.461   0.356   8.135  0.6639  0.3869  0.9435
  190SLPC  H14Y22031   5.545   0.478   8.030  3.7800  0.7608  0.8574
  190SLPC  C31522032   5.616   0.443   8.229 -0.1738 -0.3874  0.1599
  190SLPC  H15X22033   5.536   0.512   8.264 -0.1140 -0.0860 -0.2974
  190SLPC  H15Y22034   5.699   0.515   8.213  1.2266 -1.9752  0.2015
  190SLPC  C31622035   5.637   0.336   8.333 -0.1858 -0.4565  0.4429
  190SLPC  H16X22036   5.712   0.267   8.289 -0.7362 -1.4993  1.1192
  190SLPC  H16Y22037   5.543   0.277   8.346 -1.8416  1.7364 -1.1955
  190SLPC  C31722038   5.675   0.399   8.463 -0.1926  0.0930  0.0734
  190SLPC  H17X22039   5.603   0.478   8.492  2.4517  1.9255  1.9548
  190SLPC  H17Y22040   5.763   0.466   8.449  0.0442 -0.1780  0.2455
  190SLPC  C31822041   5.722   0.310   8.576  0.0060  0.0136  0.2583
  190SLPC  H18X22042   5.825   0.272   8.564  0.1708  0.2117  1.0022
  190SLPC  H18Y22043   5.651   0.226   8.596 -1.2705  0.6173 -1.6092
  190SLPC  H18Z22044   5.739   0.368   8.669  2.9687 -0.0684 -0.2040
  191SLPC     N22045   5.805   2.772   5.673 -0.5759 -0.0823  0.4160
  191SLPC   C1322046   5.659   2.739   5.679 -0.6091 -0.8819 -0.4339
  191SLPC  H13A22047   5.600   2.803   5.614 -0.4727  0.6430  0.8948
  191SLPC  H13B22048   5.638   2.636   5.658  1.5334 -0.9370 -2.4906
  191SLPC  H13C22049   5.626   2.765   5.779  0.3096 -1.3002 -0.0154
  191SLPC   C1422050   5.809   2.914   5.719 -0.1139 -0.3872 -0.5128
  191SLPC  H14A22051   5.907   2.958   5.727 -0.2047 -0.2554 -0.0729
  191SLPC  H14B22052   5.744   2.966   5.650 -0.5294  1.0455  0.9254
  191SLPC  H14C22053   5.797   2.918   5.826  0.8664 -0.3672 -0.3963
  191SLPC   C1522054   5.843   2.758   5.528  0.1938 -0.0850 -0.6011
  191SLPC  H15A22055   5.809   2.660   5.497 -0.9656 -1.2430  3.8932
  191SLPC  H15B22056   5.786   2.825   5.465 -0.0762  2.4268  2.2150
  191SLPC  H15C22057   5.949   2.772   5.516  0.2026  0.1951 -0.1784
  191SLPC   C1222058   5.888   2.679   5.756  0.1545 -0.3370  0.5015
  191SLPC  H12A22059   5.987   2.722   5.764  0.1199 -0.5133  2.0336
  191SLPC  H12B22060   5.903   2.588   5.699  1.3564  0.1527  0.0093
  191SLPC   C1122061   5.833   2.642   5.896  0.1269 -0.2498 -0.3305
  191SLPC  H11A22062   5.905   2.579   5.951 -0.7771 -0.3571  0.7500
  191SLPC  H11B22063   5.744   2.576   5.885  0.2825 -0.3822 -0.7998
  191SLPC     P22064   5.876   2.794   6.097 -0.2490 -0.7244  0.1679
  191SLPC   O1322065   6.021   2.785   6.053  0.8380  0.3616  0.1538
  191SLPC   O1422066   5.830   2.928   6.146 -0.0572 -0.2684 -0.4867
  191SLPC   O1222067   5.791   2.759   5.968  0.7584  0.0295 -1.0593
  191SLPC   O1122068   5.843   2.677   6.200 -0.0406  0.8088  0.1483
  191SLPC    C122069   5.945   2.621   6.293 -0.1506 -0.4629  0.1127
  191SLPC    HA22070   6.004   2.538   6.248  3.0020  0.4593  2.3490
  191SLPC    HB22071   6.026   2.694   6.313  0.0548  0.0555 -2.5007
  191SLPC    C222072   5.883   2.587   6.434  0.1129  0.1611  0.0137
  191SLPC    HS22073   5.965   2.563   6.504 -2.3949  1.7065  3.6772
  191SLPC   O2122074   5.784   2.492   6.409  0.5316  0.4574 -0.7270
  191SLPC   C2122075   5.776   2.398   6.499  0.1219 -0.2164  1.4093
  191SLPC   O2222076   5.869   2.360   6.569  1.1450  0.3164  0.4203
  191SLPC   C2222077   5.639   2.332   6.499  0.2648 -0.0073  0.0695
  191SLPC   H2R22078   5.559   2.409   6.503 -0.0718 -0.3650  0.2553
  191SLPC   H2S22079   5.627   2.287   6.398 -2.6624 -0.0528  0.3833
  191SLPC    C322080   5.816   2.715   6.489 -0.1716 -0.1055 -0.2469
  191SLPC    HX22081   5.734   2.740   6.419 -1.7990  2.7297  2.5411
  191SLPC    HY22082   5.888   2.800   6.484  0.1325 -0.4083 -0.9925
  191SLPC   O3122083   5.755   2.685   6.623 -0.2087  0.0189  0.4061
  191SLPC   C3122084   5.807   2.751   6.724 -0.5729  0.7134  0.4842
  191SLPC   O3222085   5.903   2.829   6.726 -0.7072  0.5405  0.1730
  191SLPC   C3222086   5.727   2.729   6.850 -0.8370  0.0810  0.4281
  191SLPC   H2X22087   5.753   2.626   6.883 -0.3834  0.1095  0.1698
  191SLPC   H2Y22088   5.618   2.744   6.837 -0.8465 -0.0827  0.3226
  191SLPC   C2322089   5.612   2.217   6.591  0.2863 -0.0189 -0.4534
  191SLPC   H3R22090   5.703   2.153   6.597  0.9436  0.9320  0.1025
  191SLPC   H3S22091   5.525   2.160   6.553  1.9724 -2.0813 -1.3134
  191SLPC   C2422092   5.600   2.262   6.742 -0.3891 -0.0567 -0.1958
  191SLPC   H4R22093   5.697   2.292   6.786 -0.9790  1.3140  0.1926
  191SLPC   H4S22094   5.569   2.169   6.793 -2.2277  1.2413  1.0850
  191SLPC   C2522095   5.493   2.374   6.786  0.3288  0.6604  0.3138
  191SLPC   H5R22096   5.406   2.351   6.721  0.7344  0.7830 -0.2816
  191SLPC   H5S22097   5.527   2.475   6.755 -1.2301  0.8519 -0.8253
  191SLPC   C2622098   5.471   2.373   6.933  0.6417  0.9271 -0.7892
  191SLPC   H6R22099   5.432   2.276   6.970 -0.3106  1.6014  0.0093
  191SLPC   H6S22100   5.390   2.447   6.949  0.3267  0.7867 -1.7162
  191SLPC   C2722101   5.602   2.393   7.014 -0.1384 -0.1098  0.0179
  191SLPC   H7R22102   5.646   2.492   6.992 -0.8541  0.1775 -0.1236
  191SLPC   H7S22103   5.690   2.328   6.993  0.0345 -0.0321  0.4919
  191SLPC   C2822104   5.579   2.381   7.164  0.2847  0.0271 -0.0562
  191SLPC   H8R22105   5.552   2.277   7.192  1.0248  0.6155  3.0198
  191SLPC   H8S22106   5.483   2.436   7.177 -0.6284 -1.6336  0.2983
  191SLPC   C2922107   5.686   2.444   7.252  0.4624 -0.8023  0.2215
  191SLPC   H9R22108   5.708   2.547   7.220  1.9252 -1.5229 -1.1883
  191SLPC  C21022109   5.757   2.387   7.351  0.0614 -0.5005 -0.6461
  191SLPC  H10R22110   5.825   2.450   7.410 -2.2296  1.3195  0.0947
  191SLPC  C21122111   5.756   2.248   7.392  0.0525  0.4801 -0.4855
  191SLPC  H11R22112   5.852   2.204   7.427  0.5137  3.4489  2.2037
  191SLPC  H11S22113   5.730   2.192   7.300 -1.1167 -0.7035  0.5395
  191SLPC  C21222114   5.633   2.225   7.476 -0.1670 -0.8227  0.1576
  191SLPC  H12R22115   5.534   2.248   7.433  1.0137  1.0156 -1.6801
  191SLPC  C21322116   5.635   2.171   7.599  0.0303 -0.1039  0.0518
  191SLPC  H13R22117   5.537   2.158   7.648  0.7876 -1.9780  1.1086
  191SLPC  C21422118   5.756   2.114   7.671 -0.0268 -0.3198 -0.0462
  191SLPC  H14R22119   5.848   2.165   7.634 -1.6534  0.6856 -2.8173
  191SLPC  H14S22120   5.777   2.011   7.633 -2.9926 -1.4284  1.1650
  191SLPC  C21522121   5.741   2.127   7.827  0.0635  0.8533 -0.0521
  191SLPC  H15R22122   5.654   2.062   7.851  0.9732 -0.7696 -1.0817
  191SLPC  H15S22123   5.731   2.235   7.853 -0.4143  1.0684 -1.0988
  191SLPC  C21622124   5.859   2.055   7.905  0.8576  0.1307 -0.3169
  191SLPC  H16R22125   5.952   2.115   7.909 -0.0658  1.5737  0.4501
  191SLPC  H16S22126   5.879   1.958   7.855  0.8580  0.8388 -1.7078
  191SLPC  C21722127   5.816   2.042   8.053 -0.2137  0.4125  0.9902
  191SLPC  H17R22128   5.712   2.003   8.060 -0.7199  1.5671 -0.0068
  191SLPC  H17S22129   5.824   2.136   8.111 -0.1348 -0.0560  1.7422
  191SLPC  C21822130   5.917   1.951   8.136  0.0565  0.1435  0.5817
  191SLPC  H18R22131   6.016   2.001   8.136 -0.1066  0.4744  1.2078
  191SLPC  H18S22132   5.926   1.849   8.092  0.1006  0.6779 -0.6527
  191SLPC  H18T22133   5.898   1.940   8.245 -0.8718 -0.7291  0.3335
  191SLPC   C3322134   5.773   2.822   6.967 -0.4474 -1.0190  0.5735
  191SLPC   H3X22135   5.695   2.837   7.044 -0.6526  0.8703 -0.0011
  191SLPC   H3Y22136   5.812   2.917   6.925 -0.5436 -1.2617 -0.0764
  191SLPC   C3422137   5.889   2.760   7.046 -0.5596  0.0725 -0.1189
  191SLPC   H4X22138   5.973   2.712   6.990  1.4787  0.9145  2.1678
  191SLPC   H4Y22139   5.853   2.688   7.122 -0.1909  1.3124  1.2419
  191SLPC   C3522140   5.954   2.866   7.139  0.4891 -0.4182  0.0742
  191SLPC   H5X22141   5.868   2.910   7.194  1.2603  0.0561  0.9112
  191SLPC   H5Y22142   5.980   2.951   7.072 -1.3650  0.5813  0.6004
  191SLPC   C3622143   6.053   2.813   7.233 -0.5786 -0.5340 -0.2884
  191SLPC   H6X22144   6.119   2.902   7.244 -1.1517 -0.2094  0.5769
  191SLPC   H6Y22145   6.110   2.741   7.171  0.4175  0.3121 -0.3726
  191SLPC   C3722146   5.993   2.750   7.366 -0.2317  0.0944  0.0035
  191SLPC   H7X22147   5.934   2.660   7.335 -0.5231  0.2338  0.1479
  191SLPC   H7Y22148   5.920   2.819   7.413 -2.0035 -0.0117 -2.4694
  191SLPC   C3822149   6.096   2.711   7.463 -0.2935 -0.6293  0.2203
  191SLPC   H8X22150   6.166   2.791   7.496  0.0722 -1.0191  0.3902
  191SLPC   H8Y22151   6.165   2.640   7.413 -2.6975 -4.1039  1.5967
  191SLPC   C3922152   6.023   2.652   7.581 -0.4761  0.1792  0.1312
  191SLPC   H9X22153   5.956   2.569   7.549 -0.0091 -0.8678  1.7981
  191SLPC   H9Y22154   5.959   2.729   7.630 -2.0313 -1.2592  0.4185
  191SLPC  C31022155   6.129   2.599   7.678  0.2148 -0.2210 -0.0505
  191SLPC  H10X22156   6.178   2.682   7.733  0.2442 -1.3747  1.6927
  191SLPC  H10Y22157   6.210   2.556   7.616  1.6274  2.9380 -0.5275
  191SLPC  C31122158   6.071   2.502   7.783  0.5165  0.3659 -0.0512
  191SLPC  H11X22159   6.036   2.411   7.730 -0.4119 -0.0670  1.2655
  191SLPC  H11Y22160   5.986   2.545   7.841  0.1372 -2.2633  1.3949
  191SLPC  C31222161   6.174   2.464   7.885  0.0526  0.2809 -0.8745
  191SLPC  H12X22162   6.245   2.549   7.899 -0.3346  0.2076  1.9498
  191SLPC  H12Y22163   6.234   2.384   7.837  2.0305 -0.0554  1.9805
  191SLPC  C31322164   6.123   2.399   8.016  0.6415 -0.6120 -0.5547
  191SLPC  H13X22165   6.060   2.308   8.010 -1.9493  1.0258  1.1794
  191SLPC  H13Y22166   6.061   2.480   8.061 -0.1892 -1.0731 -0.8638
  191SLPC  C31422167   6.237   2.353   8.104 -0.2813 -0.5405  0.3324
  191SLPC  H14X22168   6.301   2.443   8.119  1.3451 -1.2910 -1.8756
  191SLPC  H14Y22169   6.305   2.286   8.049  0.9634  1.2345 -0.3345
  191SLPC  C31522170   6.201   2.296   8.247  0.1316 -0.1583 -0.0574
  191SLPC  H15X22171   6.093   2.272   8.254  0.3505 -1.7721 -1.8008
  191SLPC  H15Y22172   6.225   2.381   8.314  1.0510 -0.6764  0.2866
  191SLPC  C31622173   6.288   2.172   8.289 -1.0988 -0.1900 -0.6490
  191SLPC  H16X22174   6.385   2.181   8.237 -0.5361  1.2160  0.5923
  191SLPC  H16Y22175   6.240   2.078   8.254 -3.6690  0.7987  0.0912
  191SLPC  C31722176   6.319   2.157   8.442 -0.2680 -0.1717 -0.4297
  191SLPC  H17X22177   6.382   2.067   8.455  1.8931  1.5885  1.7284
  191SLPC  H17Y22178   6.225   2.131   8.497  0.9950 -1.5568  1.1257
  191SLPC  C31822179   6.370   2.285   8.508 -0.9189 -0.1539 -0.1544
  191SLPC  H18X22180   6.459   2.315   8.448 -1.0836  0.6234 -0.0201
  191SLPC  H18Y22181   6.401   2.256   8.611 -0.5782  0.1521 -0.1662
  191SLPC  H18Z22182   6.289   2.360   8.520  2.4989  3.5226  1.0078
  192SLPC     N22183   0.169   3.180   6.423 -0.4535 -0.2140 -0.2321
  192SLPC   C1322184   0.275   3.284   6.374  0.4909 -0.2591  0.7949
  192SLPC  H13A22185   0.378   3.257   6.394  0.9709  0.9003 -0.0827
  192SLPC  H13B22186   0.258   3.313   6.272 -1.1448 -0.1205  1.0968
  192SLPC  H13C22187   0.256   3.374   6.429 -1.6067 -1.2288  1.7088
  192SLPC   C1422188   0.206   3.060   6.344 -0.3890  0.4803  0.1213
  192SLPC  H14A22189   0.199   3.078   6.238 -0.6051 -1.2711 -0.1772
  192SLPC  H14B22190   0.310   3.033   6.353 -0.0725  1.1543 -1.4382
  192SLPC  H14C22191   0.135   2.985   6.374 -0.8970  0.1196 -1.9355
  192SLPC   C1522192   0.033   3.220   6.387 -0.7209  0.3987 -0.1432
  192SLPC  H15A22193   0.005   3.298   6.456  0.4969  0.8810 -0.1798
  192SLPC  H15B22194   0.019   3.253   6.285  1.8720 -0.9549 -1.0068
  192SLPC  H15C22195  -0.035   3.138   6.403  2.0062 -2.3004 -1.7779
  192SLPC   C1222196   0.203   3.164   6.569 -0.2679 -0.7866  0.2531
  192SLPC  H12A22197   0.310   3.149   6.577 -0.1455 -0.1669 -0.2431
  192SLPC  H12B22198   0.156   3.074   6.606 -1.6965  1.1090  3.1893
  192SLPC   C1122199   0.165   3.280   6.662  0.0774 -1.1991  0.3065
  192SLPC  H11A22200   0.210   3.249   6.758  3.7977 -0.3840 -1.0899
  192SLPC  H11B22201   0.055   3.270   6.673 -0.1385 -0.4343 -1.0234
  192SLPC     P22202   0.133   3.527   6.604 -0.0546  0.0290  0.2113
  192SLPC   O1322203   0.217   3.629   6.535 -0.2390 -0.0754  0.0852
  192SLPC   O1422204   0.017   3.480   6.524  0.1271  0.3007 -0.2717
  192SLPC   O1222205   0.225   3.406   6.645  0.9230 -0.0849  0.4267
  192SLPC   O1122206   0.067   3.585   6.737 -0.0949 -0.1716 -0.4908
  192SLPC    C122207   0.110   3.522   6.862  0.5199  0.4954  0.7067
  192SLPC    HA22208   0.061   3.422   6.867 -0.9604  1.2878  2.2808
  192SLPC    HB22209   0.221   3.510   6.867  0.4381 -0.5999  0.1028
  192SLPC    C222210   0.084   3.620   6.980 -0.1437 -0.0318  0.3314
  192SLPC    HS22211   0.135   3.583   7.072 -1.5756 -0.9997  0.7466
  192SLPC   O2122212  -0.058   3.621   7.003 -0.7026 -0.3443  0.5969
  192SLPC   C2122213  -0.105   3.529   7.091 -0.8441  0.3958  0.3236
  192SLPC   O2222214  -0.032   3.440   7.136  0.2813 -0.4143 -1.0075
  192SLPC   C2222215  -0.253   3.542   7.116  0.1035 -0.7795  0.6542
  192SLPC   H2R22216  -0.271   3.651   7.119 -2.3585 -1.0795 -0.9779
  192SLPC   H2S22217  -0.304   3.515   7.021  1.1899  1.0538 -0.4812
  192SLPC    C322218   0.133   3.761   6.952 -1.0108 -0.4541  0.7465
  192SLPC    HX22219   0.076   3.788   6.861  0.2890 -2.3347 -0.6806
  192SLPC    HY22220   0.243   3.761   6.937 -1.0000  1.0354  0.7112
  192SLPC   O3122221   0.110   3.837   7.069 -0.0477  0.6188 -0.2637
  192SLPC   C3122222   0.136   3.969   7.066 -0.3311 -0.5068 -0.6717
  192SLPC   O3222223   0.175   4.031   6.973 -0.1522  0.0697 -0.3791
  192SLPC   C3222224   0.120   4.022   7.209  0.3176 -0.0280 -0.4342
  192SLPC   H2X22225   0.182   3.956   7.274  0.9296  0.5314 -0.4489
  192SLPC   H2Y22226   0.012   4.019   7.236  0.2463  1.7666 -0.4794
  192SLPC   C2322227  -0.313   3.464   7.232  0.0855  0.2839  0.3174
  192SLPC   H3R22228  -0.273   3.360   7.237  0.2975  0.3666  0.3486
  192SLPC   H3S22229  -0.424   3.457   7.231  0.1114 -0.3440  0.8903
  192SLPC   C2422230  -0.295   3.534   7.366  0.1578 -0.1682  0.4785
  192SLPC   H4R22231  -0.363   3.622   7.368 -0.3184 -0.5206 -0.3215
  192SLPC   H4S22232  -0.189   3.565   7.379 -0.5745  2.7360 -0.0935
  192SLPC   C2522233  -0.340   3.462   7.491  0.1017  0.2853  0.3679
  192SLPC   H5R22234  -0.291   3.363   7.495  1.6081  1.0453  1.5375
  192SLPC   H5S22235  -0.444   3.436   7.463  0.4749 -1.8401  0.8730
  192SLPC   C2622236  -0.333   3.533   7.624 -0.1938  0.2484  0.3620
  192SLPC   H6R22237  -0.368   3.638   7.614 -0.9989 -0.1796 -1.5855
  192SLPC   H6S22238  -0.228   3.536   7.661 -0.0613 -0.9643  0.1007
  192SLPC   C2722239  -0.424   3.465   7.725 -0.0346 -0.5200  0.6663
  192SLPC   H7R22240  -0.528   3.460   7.686  0.4697 -2.0713 -0.5272
  192SLPC   H7S22241  -0.423   3.529   7.816  2.4921  1.2275 -0.5418
  192SLPC   C2822242  -0.387   3.325   7.766  0.1498 -0.1619 -0.3181
  192SLPC   H8R22243  -0.285   3.323   7.809 -0.1504 -0.7288  0.3775
  192SLPC   H8S22244  -0.386   3.265   7.672  0.2841 -1.1476  0.3046
  192SLPC   C2922245  -0.484   3.259   7.865 -0.8721  0.3732 -0.0850
  192SLPC   H9R22246  -0.542   3.176   7.822  0.1776 -1.9160  2.7659
  192SLPC  C21022247  -0.483   3.280   7.997  0.6506 -0.6124 -0.2972
  192SLPC  H10R22248  -0.552   3.219   8.057  2.4824 -2.3647  0.0726
  192SLPC  C21122249  -0.386   3.371   8.070 -0.0139 -0.8298  0.8622
  192SLPC  H11R22250  -0.420   3.476   8.058  2.3671 -0.0903  0.3891
  192SLPC  H11S22251  -0.290   3.366   8.015  1.6963  0.8494  3.6144
  192SLPC  C21222252  -0.347   3.332   8.211 -0.4871  0.0721 -0.1992
  192SLPC  H12R22253  -0.376   3.228   8.234 -0.0351  0.3854  1.9134
  192SLPC  C21322254  -0.290   3.406   8.306 -0.4051  0.0838  0.2845
  192SLPC  H13R22255  -0.272   3.354   8.402  0.4447  0.1387  0.1610
  192SLPC  C21422256  -0.236   3.546   8.284 -0.3414 -0.1712  0.2859
  192SLPC  H14R22257  -0.311   3.612   8.332  0.5729  0.8013  0.3932
  192SLPC  H14S22258  -0.234   3.562   8.174  2.6020  0.1560  0.3544
  192SLPC  C21522259  -0.091   3.566   8.317 -0.7640 -0.4629 -0.6063
  192SLPC  H15R22260  -0.027   3.515   8.242 -1.0892 -2.2162  0.2684
  192SLPC  H15S22261  -0.071   3.518   8.415  0.2336 -1.4228 -1.2615
  192SLPC  C21622262  -0.047   3.715   8.320 -0.0915  0.1738  0.0106
  192SLPC  H16R22263   0.046   3.714   8.380 -0.3978 -2.2582  0.5188
  192SLPC  H16S22264  -0.123   3.783   8.364  1.0640  2.8529 -2.0214
  192SLPC  C21722265  -0.030   3.786   8.185  0.3710  0.0118  0.0232
  192SLPC  H17R22266   0.066   3.752   8.140  1.2193  0.1829  1.6647
  192SLPC  H17S22267  -0.116   3.758   8.120 -0.4137 -0.4959  1.2771
  192SLPC  C21822268  -0.014   3.938   8.195  0.1880 -0.4411 -0.6274
  192SLPC  H18R22269  -0.046   3.981   8.098 -0.9664 -3.1008 -1.4722
  192SLPC  H18S22270   0.084   3.957   8.243  0.2067  0.2772 -0.9446
  192SLPC  H18T22271  -0.096   3.969   8.263  2.3886  2.6532  0.7062
  192SLPC   C3322272   0.190   4.157   7.241 -0.5197  0.1080  0.0171
  192SLPC   H3X22273   0.123   4.244   7.257 -1.2644 -0.3124 -0.7212
  192SLPC   H3Y22274   0.235   4.182   7.142  2.6432 -0.1561  1.3454
  192SLPC   C3422275   0.291   4.152   7.361 -0.4233 -0.7539  0.9258
  192SLPC   H4X22276   0.349   4.247   7.364 -1.6990  0.0363  0.9482
  192SLPC   H4Y22277   0.367   4.072   7.352  1.1183  0.7272  0.4962
  192SLPC   C3522278   0.235   4.132   7.501 -0.2864  0.0485  0.7557
  192SLPC   H5X22279   0.161   4.049   7.501 -1.8674  1.3824 -2.2219
  192SLPC   H5Y22280   0.169   4.218   7.527 -0.0878 -0.5939  3.5352
  192SLPC   C3622281   0.339   4.136   7.615  0.0624  0.0457 -0.3516
  192SLPC   H6X22282   0.396   4.230   7.601  1.2130 -0.4162  1.0566
  192SLPC   H6Y22283   0.408   4.048   7.607  1.3120  1.1346 -1.8555
  192SLPC   C3722284   0.277   4.136   7.759  0.0384  0.2575  1.0692
  192SLPC   H7X22285   0.259   4.028   7.780 -3.3280  0.3161 -1.0845
  192SLPC   H7Y22286   0.179   4.187   7.763 -0.3941 -0.3402 -0.9349
  192SLPC   C3822287   0.368   4.193   7.868 -0.2297 -0.4555 -0.3549
  192SLPC   H8X22288   0.399   4.294   7.834 -1.0362 -0.3165 -0.7077
  192SLPC   H8Y22289   0.450   4.120   7.881 -1.4136 -1.3611  2.5959
  192SLPC   C3922290   0.300   4.208   8.005  0.0185  0.7098 -0.1964
  192SLPC   H9X22291   0.259   4.110   8.036  2.9800 -0.0297  1.6422
  192SLPC   H9Y22292   0.209   4.270   7.993 -0.9497 -0.6008  0.3148
  192SLPC  C31022293   0.382   4.265   8.114 -0.6874 -0.2306 -0.7535
  192SLPC  H10X22294   0.423   4.365   8.088  0.8164 -0.0508  2.1694
  192SLPC  H10Y22295   0.472   4.200   8.114 -1.5194 -1.4345  2.0884
  192SLPC  C31122296   0.327   4.259   8.257 -0.3835  0.2878 -0.3723
  192SLPC  H11X22297   0.216   4.253   8.252 -0.4134 -1.0579  1.5623
  192SLPC  H11Y22298   0.373   4.340   8.319  0.9868  0.3877 -1.4895
  192SLPC  C31222299   0.362   4.120   8.315 -0.4697  0.3432 -0.3759
  192SLPC  H12X22300   0.469   4.099   8.296 -0.4684  0.1531 -0.1598
  192SLPC  H12Y22301   0.314   4.036   8.259 -3.1756 -0.0846  2.4274
  192SLPC  C31322302   0.338   4.096   8.469  0.3037 -0.0544 -0.9590
  192SLPC  H13X22303   0.328   3.987   8.484 -3.3596  0.3505 -0.0585
  192SLPC  H13Y22304   0.240   4.146   8.488  0.5481  0.5432 -1.2441
  192SLPC  C31422305   0.453   4.155   8.560  0.2728 -0.5767 -0.5852
  192SLPC  H14X22306   0.472   4.262   8.538  0.3945 -0.5761 -0.4706
  192SLPC  H14Y22307   0.541   4.092   8.537  2.5373  2.2451  0.0824
  192SLPC  C31522308   0.429   4.128   8.716 -0.7337 -0.6440  0.3809
  192SLPC  H15X22309   0.427   4.017   8.727  0.0673 -1.2194 -4.5070
  192SLPC  H15Y22310   0.329   4.174   8.735 -0.5267  0.3192 -0.8727
  192SLPC  C31622311   0.539   4.182   8.802  0.7798 -0.3305  0.4712
  192SLPC  H16X22312   0.555   4.289   8.777  1.2460 -0.5765 -0.2755
  192SLPC  H16Y22313   0.634   4.135   8.771  1.5388  0.4942  1.5300
  192SLPC  C31722314   0.516   4.157   8.954  0.2108 -0.3180  0.2517
  192SLPC  H17X22315   0.467   4.058   8.965  1.0126 -1.1281 -3.0816
  192SLPC  H17Y22316   0.448   4.242   8.979  0.4572  0.5407 -1.8667
  192SLPC  C31822317   0.642   4.196   9.035 -0.7186  1.0646 -0.2013
  192SLPC  H18X22318   0.612   4.192   9.142  1.7710  1.3042  0.5408
  192SLPC  H18Y22319   0.659   4.305   9.020  2.5062  1.0798  2.8546
  192SLPC  H18Z22320   0.735   4.145   9.000 -0.9827  1.3785 -1.3668
  193SOD    SOD22321   0.468   0.675   0.576  0.1112  0.1764  0.0708
  194SOD    SOD22322   2.649   0.891   1.562  0.5706 -0.3359  0.2655
  195SOD    SOD22323   1.389   0.433  11.872 -0.2611 -0.0353  0.2295
  196SOD    SOD22324   1.639   4.398   3.113  0.3710 -0.3655  0.1065
  197SOD    SOD22325   3.049   1.588  17.215  0.6709 -0.0136 -0.1297
  198SOD    SOD22326   2.886   1.378  13.940 -0.1930  0.2821  0.4244
  199SOD    SOD22327   6.507   2.498  16.148  0.1261  0.0175  0.5215
  200SOD    SOD22328   6.222   6.797  13.241  0.2008  0.3221  0.2017
  201SOD    SOD22329   2.271   0.298  10.603  0.6108 -0.0774 -0.0570
  202SOD    SOD22330   2.690   5.199  11.038 -0.1543 -0.1753 -0.4918
  203SOD    SOD22331   4.393   0.086  15.329 -0.3999  0.3346  0.1081
  204SOD    SOD22332   1.024   4.580  15.349 -0.1509 -0.0788  0.1787
  205SOD    SOD22333   3.475   6.035   3.349 -0.0137 -0.2592  0.2381
  206SOD    SOD22334   2.023   0.234  13.917 -0.3991 -0.0044  0.6889
  207SOD    SOD22335   4.806   2.000   1.253  0.2572  0.6756 -0.0323
  208SOD    SOD22336   0.504   1.392   5.225 -0.2130 -0.5902 -0.1246
  209SOD    SOD22337   2.731   5.523   4.439  0.1681  0.4085 -0.2947
  210SOD    SOD22338   2.872   0.468   4.077 -0.4296 -0.4530  0.0195
  211SOD    SOD22339   6.099   6.687  17.159  0.4298 -0.0638 -0.1558
  212SOD    SOD22340   2.575   4.107  16.652 -0.0525  0.2927 -0.2176
  213SOD    SOD22341   6.774   3.215  10.841  0.1241 -0.7065 -0.0488
  214SOD    SOD22342   2.021   2.360   1.607  0.5276  0.7930 -0.1936
  215SOD    SOD22343   4.602   1.477   4.436 -0.2219 -0.1621  0.1118
  216SOD    SOD22344   2.510   2.968  11.238 -0.0142  0.4523 -0.4680
  217SOD    SOD22345   4.392   0.321  17.193  0.0284 -0.3354  0.1250
  218SOD    SOD22346   6.173   0.829   6.645 -0.1721 -0.3820 -0.1990
  219SOD    SOD22347   4.695   0.170   4.326  0.2693 -0.0787 -0.3320
  220SOD    SOD22348   1.897   6.040  11.933  0.4881 -0.4768  0.2382
  221SOD    SOD22349   2.635   3.781  15.266 -0.0960 -0.4234  0.2453
  222SOD    SOD22350   4.099   0.500  12.070  0.0457  0.7132  0.0893
  223SOD    SOD22351   3.310   4.320   4.539  0.5258  0.3100 -0.1250
  224SOD    SOD22352   1.755   2.275   2.477  0.0724 -0.4139 -0.3413
  225SOD    SOD22353   0.092   5.526  15.486  0.4485 -0.1171  0.2695
  226SOD    SOD22354   3.973   4.183  13.805  0.2642 -0.8328  0.2499
  227SOD    SOD22355   5.894   3.714  13.159  0.0734 -0.4543 -0.1749
  228SOD    SOD22356   0.075   2.488  11.507 -0.0376  0.3801 -0.2445
  229SOD    SOD22357   3.278   3.606  11.978  0.0201 -0.1028  0.7307
  230SOD    SOD22358   0.153   1.300  10.926  0.0238  0.2560 -0.5140
  231SOD    SOD22359   3.301   4.371  16.972  0.3552  0.0477 -0.1269
  232SOD    SOD22360   3.966   2.217   2.300  0.3136  0.2868 -0.7012
  233SOD    SOD22361   4.127   6.150   0.952 -0.1739  0.2622 -0.1186
  234SOD    SOD22362   3.631   2.698  17.256 -0.0254  0.2605 -0.0491
  235SOD    SOD22363   5.316   1.102   0.315  0.2832  0.5067  0.4871
  236SOD    SOD22364   5.571   5.015  12.211  0.2066  0.0868 -0.3600
  237SOD    SOD22365   5.610   5.968  12.451  0.2327 -0.4515 -0.4528
  238SOD    SOD22366   6.295   1.335  11.909 -0.3949 -0.5120 -0.0517
  239SOD    SOD22367   0.167   0.349   5.477 -0.1454  0.3455  0.1956
  240SOD    SOD22368   3.474   5.322  11.548 -0.0556  0.2406 -0.2775
  241SOD    SOD22369   5.993   5.271   2.503  0.2659 -0.1140  0.1371
  242SOD    SOD22370   2.270   6.378  15.462 -0.1514 -0.4911 -0.1397
  243SOD    SOD22371   3.284   4.961   6.149 -0.3054 -0.3061 -0.7069
  244SOD    SOD22372   6.537   3.105  15.428 -0.5216  0.1867  0.1025
  245SOD    SOD22373   5.499   4.927  15.945 -0.1202 -0.1339  0.1174
  246SOD    SOD22374   2.777   6.066   5.136 -0.4205 -0.2421  0.1362
  247SOD    SOD22375   5.191   3.393  17.124 -0.0802 -0.0650 -0.1427
  248SOD    SOD22376   4.453   2.753   1.684  0.1856  0.1040  0.7498
  249SOD    SOD22377   5.304   4.694   4.458  0.1391 -0.1864  0.1270
  250SOD    SOD22378   4.891   2.846   0.195 -0.0944  0.0047 -0.9076
  251SOD    SOD22379   2.999   2.631  12.688 -0.5323 -0.2133  0.1196
  252SOD    SOD22380   5.180   4.180  15.847 -0.3026  0.0777  0.0981
  253SOD    SOD22381   5.319   4.504   5.331  0.1959 -0.2559  0.2107
  254SOD    SOD22382   5.867   4.379   6.510 -0.3212  0.1221 -0.0005
  255SOD    SOD22383   1.887   2.255  10.774  0.2589  0.1926 -0.0949
  256SOD    SOD22384   4.518   1.394  11.431 -0.0635  0.6480 -0.0667
  257SOD    SOD22385   2.737   1.997   3.964 -0.3827 -0.1698 -0.6129
  258SOD    SOD22386   3.107   4.654  11.771 -0.1306  0.3692 -0.3350
  259SOD    SOD22387   1.846   2.806  14.783 -0.3429  0.3233 -0.2527
  260SOD    SOD22388   3.939   3.400   5.438  0.0456 -0.1066 -0.1913
  261SOD    SOD22389   3.405   2.621   4.789  0.1623 -0.3208  0.6974
  262SOD    SOD22390   0.197   5.216   4.311 -0.1742  0.1447  0.2464
  263SOD    SOD22391   1.546   1.456   5.895 -0.3605  0.1695  0.0161
  264SOD    SOD22392   2.670   1.946  16.097  0.1705 -0.2845 -0.2735
  265SOD    SOD22393   2.955   0.924   2.515 -0.3486  0.0787 -0.3588
  266CLA    CLA22394   2.889   0.153   2.025 -0.3066  0.1301  0.5559
  267CLA    CLA22395   4.160   3.485   5.283 -0.1376  0.1768  0.0044
  268CLA    CLA22396   2.554   5.218   3.625  0.1290  0.3149  0.2256
  269CLA    CLA22397   4.519   2.655  12.265 -0.2266  0.3322 -0.1472
  270CLA    CLA22398   5.971   6.290   3.996 -0.4149 -0.0486 -0.0592
  271CLA    CLA22399   3.103   3.946  13.014 -0.0032 -0.4132  0.0013
  272CLA    CLA22400   3.322   2.955   3.122  0.4224 -0.1514 -0.0925
  273CLA    CLA22401   4.080   5.664   4.054 -0.0901  0.1697  0.4697
  274CLA    CLA22402   5.405   2.792  13.639 -0.0903  0.5101 -0.0683
  275CLA    CLA22403   0.838   2.707   4.381 -0.3621 -0.1736  0.4114
  276CLA    CLA22404   5.818   5.368  11.907  0.2599 -0.4033 -0.2030
  277CLA    CLA22405   2.279   6.711  14.495 -0.1879 -0.0542  0.2249
  278CLA    CLA22406   5.802   5.689   5.588  0.0562  0.0718  0.0206
  279CLA    CLA22407   3.182   4.845  16.752  0.2229 -0.0673  0.1531
  280CLA    CLA22408   3.140   4.545  15.431  0.5337  0.0070  0.2243
  281CLA    CLA22409   6.751   4.642  15.683 -0.3425  0.2381 -0.0204
  282CLA    CLA22410   0.576   2.107   0.101 -0.3102  0.2980  0.5035
  283CLA    CLA22411   0.700   3.217  12.447 -0.2773  0.4978  0.1254
  284CLA    CLA22412   2.415   1.430   0.862  0.1162  0.2069  0.1397
  285CLA    CLA22413   5.842   0.317   0.721 -0.3770 -0.0837 -0.3630
  286CLA    CLA22414   0.904   5.170  12.207 -0.1405 -0.1157 -0.1479
  287CLA    CLA22415   0.541   5.510  14.009  0.3140 -0.0458  0.3550
  288CLA    CLA22416   2.913   1.691  12.518 -0.4089 -0.1328  0.2001
  289CLA    CLA22417   0.853   4.680   0.007 -0.3101 -0.1566  0.2492
  290CLA    CLA22418   5.980   5.603  13.470 -0.0048  0.0437 -0.0484
  291CLA    CLA22419   5.154   4.624  16.153 -0.2076  0.0029 -0.4925
  292CLA    CLA22420   3.034   2.490  12.081 -0.5131  0.1014 -0.0882
  293CLA    CLA22421   3.807   4.091  11.670 -0.4986  0.0126  0.1636
  294CLA    CLA22422   0.217   1.937   3.992  0.6200 -0.1078  0.4225
  295CLA    CLA22423   3.959   6.386  14.364 -0.6451 -0.2507  0.3075
  296CLA    CLA22424   3.871   6.313   3.230  0.0734  0.0306 -0.2444
  297CLA    CLA22425   2.856   3.542  13.911  0.2271  0.0097  0.1312
  298CLA    CLA22426   5.446   4.624  14.836 -0.0466  0.1643 -0.0366
  299CLA    CLA22427   5.782   0.018  14.032  0.1516  0.0705  0.0475
  300CLA    CLA22428   3.284   1.441   3.066  0.3363  0.4545 -0.2254
  301CLA    CLA22429   3.569   5.584   5.053 -0.0943 -0.0028  0.1539
  302CLA    CLA22430   4.298   4.344  16.362 -0.1037 -0.4162 -0.2405
  303CLA    CLA22431   3.264   3.247   5.131 -0.0646  0.4394 -0.0832
  304CLA    CLA22432   1.000   5.657   0.069  0.0111  0.7246 -0.1773
  305CLA    CLA22433   3.487   6.654   1.706  0.1153  0.0753 -0.4498
  306CLA    CLA22434   4.538   4.944   1.482 -0.4519  0.0957 -0.3759
  307CLA    CLA22435   3.951   0.663   3.984  0.2692  0.2018 -0.0408
  308CLA    CLA22436   6.177   0.444  16.389 -0.0267 -0.1887  0.0298
  309CLA    CLA22437   0.904   2.986   0.524 -0.3335 -0.2777 -0.1508
  310CLA    CLA22438   1.750   5.551  15.420 -0.0847 -0.1452 -0.0773
  311CLA    CLA22439   4.514   1.505  16.052 -0.3780  0.3065  0.0995
  312CLA    CLA22440   2.376   4.359   4.858 -0.5478  0.0739  0.4407
  313CLA    CLA22441   2.956   3.327   1.837 -0.0519 -0.0939  0.1377
  314CLA    CLA22442   3.865   3.092   0.528  0.0069 -0.1877  0.0647
  315CLA    CLA22443   3.734   2.336   0.208 -0.1996 -0.1750  0.0708
  316CLA    CLA22444   2.028   3.513  11.550  0.4069  0.2835 -0.3298
  317CLA    CLA22445   3.504   6.669  16.297 -0.2567 -0.2801  0.4172
  318CLA    CLA22446   4.751   5.424  14.084 -0.2723  0.1142 -0.4373
  319TIP3   OH222447   1.931   5.112   3.792  0.1190 -0.0787  0.3885
  319TIP3    H122448   1.952   5.036   3.846  0.4926 -1.4957 -1.6947
  319TIP3    H222449   1.911   5.076   3.706  1.3477  2.2796 -0.9373
  320TIP3   OH222450   4.512   2.793  15.976 -0.4557  0.1171 -0.0889
  320TIP3    H122451   4.500   2.708  15.932  1.4460 -0.5086  0.5168
  320TIP3    H222452   4.426   2.834  15.973 -1.7980 -2.4737  0.9118
  321TIP3   OH222453   1.830   3.379   0.983 -0.3524  0.0044 -0.0980
  321TIP3    H122454   1.775   3.341   1.052  0.7187 -0.6895  0.3935
  321TIP3    H222455   1.794   3.346   0.901 -0.2358 -1.0301  0.2608
  322TIP3   OH222456   5.851   6.259  15.135  0.0539 -0.0239  0.0790
  322TIP3    H122457   5.814   6.178  15.171  0.7851 -0.3061  0.1956
  322TIP3    H222458   5.915   6.288  15.200  1.5783 -0.6807 -1.0940
  323TIP3   OH222459   5.190   1.352   5.233  0.2336  0.1850 -0.0628
  323TIP3    H122460   5.246   1.365   5.309  0.2467 -0.9394  0.1368
  323TIP3    H222461   5.115   1.304   5.267 -0.2556  0.6025 -0.5606
  324TIP3   OH222462   2.895   0.429   1.080  0.4941  0.3697  0.0156
  324TIP3    H122463   2.929   0.354   1.031  0.1309  0.3244 -0.1718
  324TIP3    H222464   2.857   0.486   1.013  2.4619  1.6538 -0.0670
  325TIP3   OH222465   6.262   4.627   1.975 -1.0995  0.7178 -0.0504
  325TIP3    H122466   6.288   4.680   2.050 -1.5428 -2.1615  2.2337
  325TIP3    H222467   6.172   4.653   1.958 -0.8536  1.7056  0.1089
  326TIP3   OH222468   1.639   2.602  10.541 -0.3818 -0.1230  0.1373
  326TIP3    H122469   1.613   2.692  10.527 -1.1401 -0.2709  0.5658
  326TIP3    H222470   1.565   2.562  10.587 -0.3794 -1.1638 -0.7344
  327TIP3   OH222471   3.665   1.279   4.022 -0.0934 -0.0403  0.5681
  327TIP3    H122472   3.724   1.352   4.042  0.1627 -0.4157  1.1809
  327TIP3    H222473   3.588   1.296   4.076 -0.5944  0.4909 -0.2874
  328TIP3   OH222474   6.682   5.717   0.531  0.3789  0.4061  0.1909
  328TIP3    H122475   6.633   5.635   0.526 -0.2254  0.8331 -1.2545
  328TIP3    H222476   6.668   5.749   0.620  0.2628 -0.8366  0.6224
  329TIP3   OH222477   1.666   5.287   0.868  0.5182  0.2284  0.2407
  329TIP3    H122478   1.638   5.216   0.926 -1.2293 -0.7278 -1.7036
  329TIP3    H222479   1.739   5.250   0.818 -0.2712 -0.1902 -0.6385
  330TIP3   OH222480   2.781   4.650  15.634  0.6629 -0.2815  0.2070
  330TIP3    H122481   2.744   4.702  15.562  0.7475 -0.6883 -0.1310
  330TIP3    H222482   2.846   4.708  15.674 -0.5774  0.5773  1.0341
  331TIP3   OH222483   5.760   4.932   0.831  0.2140 -0.1601 -0.1790
  331TIP3    H122484   5.714   5.016   0.828 -1.5906 -1.1182 -0.2236
  331TIP3    H222485   5.811   4.936   0.912 -0.7993  0.5071  0.4422
  332TIP3   OH222486   0.767   2.684  14.256  0.0926 -0.0679  0.0791
  332TIP3    H122487   0.775   2.662  14.349  0.3551 -0.3084  0.0017
  332TIP3    H222488   0.820   2.618  14.211 -1.2666 -0.8781 -0.3635
  333TIP3   OH222489   6.280   4.898  14.995 -0.4777  0.1695  0.6189
  333TIP3    H122490   6.215   4.930  15.058 -0.3068 -2.9813  2.5077
  333TIP3    H222491   6.234   4.833  14.943  0.5372 -0.4400  0.4561
  334TIP3   OH222492   5.006   1.742  14.692  0.0979 -0.5747 -0.7667
  334TIP3    H122493   4.995   1.837  14.689  0.4048 -0.4736  0.7806
  334TIP3    H222494   5.101   1.729  14.692  0.0912 -0.7731  1.1329
  335TIP3   OH222495   3.986   1.196   2.331 -0.0806 -0.2050  0.3920
  335TIP3    H122496   3.927   1.229   2.399  0.6612  1.3853  0.2919
  335TIP3    H222497   4.059   1.159   2.379  0.9372  1.8449  0.4987
  336TIP3   OH222498   0.161   0.245  15.120 -0.2433  0.4213  0.3890
  336TIP3    H122499   0.217   0.211  15.190  0.8877 -0.0112 -0.7120
  336TIP3    H222500   0.161   0.340  15.134  0.1836  0.3594  0.8315
  337TIP3   OH222501   6.789   4.079   2.923  0.6310  0.0928  0.6315
  337TIP3    H122502   6.860   4.069   2.859 -0.1104 -1.2379 -0.0077
  337TIP3    H222503   6.728   4.141   2.883 -0.7814 -2.1978 -0.8280
  338TIP3   OH222504   4.409   2.262  12.142 -0.4295  0.0649  0.0418
  338TIP3    H122505   4.361   2.339  12.171 -0.8165 -0.5112  0.9450
  338TIP3    H222506   4.366   2.236  12.060 -1.2938 -0.1120  0.5509
  339TIP3   OH222507   3.222   3.279  13.838 -0.4016  0.1947 -0.4038
  339TIP3    H122508   3.222   3.363  13.792  0.2512  0.2872 -0.2404
  339TIP3    H222509   3.225   3.213  13.768 -0.1781  0.3229 -0.5153
  340TIP3   OH222510   4.741   6.557  11.251 -0.5682  0.2228 -0.2273
  340TIP3    H122511   4.826   6.563  11.208 -0.7788 -1.1977 -0.8828
  340TIP3    H222512   4.754   6.497  11.324 -0.7182  0.9543  0.4009
  341TIP3   OH222513   5.338   1.722   2.097  0.2418  0.1281  0.0008
  341TIP3    H122514   5.288   1.682   2.168 -1.4009 -2.4198 -2.4759
  341TIP3    H222515   5.290   1.801   2.075  1.0029  1.1702  1.9692
  342TIP3   OH222516   3.393   4.615  11.330  0.6991  0.1439 -0.3743
  342TIP3    H122517   3.317   4.663  11.297  0.6910 -0.3043 -1.0255
  342TIP3    H222518   3.437   4.584  11.251  1.3734  0.1176  0.0097
  343TIP3   OH222519   2.615   2.077  11.518 -0.2863 -0.2700  0.1510
  343TIP3    H122520   2.706   2.047  11.524 -0.2637 -0.0876  0.7483
  343TIP3    H222521   2.576   2.023  11.449 -0.1155 -1.3101  0.8640
  344TIP3   OH222522   0.930   6.484  16.744  0.2363 -0.0908 -0.0061
  344TIP3    H122523   0.987   6.408  16.732  0.1438 -0.4842  1.9321
  344TIP3    H222524   0.988   6.559  16.734  1.2225 -0.4940  2.3679
  345TIP3   OH222525   3.601   0.703   2.914  0.0680  0.0026  0.3430
  345TIP3    H122526   3.671   0.658   2.866 -1.1553  0.3213 -1.8019
  345TIP3    H222527   3.618   0.796   2.900  0.7568  0.1531  2.0962
  346TIP3   OH222528   3.381   1.258   1.968 -0.2007  0.0834  0.6088
  346TIP3    H122529   3.384   1.337   2.021  3.7129 -1.0845  2.2747
  346TIP3    H222530   3.322   1.199   2.015  0.3656  0.4110  1.7353
  347TIP3   OH222531   2.305   2.194   3.943 -0.3248 -0.6378  0.8420
  347TIP3    H122532   2.337   2.164   4.028  1.7010  2.1560  1.1400
  347TIP3    H222533   2.383   2.192   3.887 -0.0919  3.7554  0.8597
  348TIP3   OH222534   3.059   0.096  14.732  0.1493  0.2485 -0.3029
  348TIP3    H122535   3.137   0.148  14.750 -0.7917  1.1002  1.5221
  348TIP3    H222536   3.052   0.036  14.807 -1.1755  0.4948 -0.2210
  349TIP3   OH222537   2.619   2.757   1.067 -0.2831 -0.4559 -0.1018
  349TIP3    H122538   2.561   2.768   0.992  0.4472 -3.5051 -1.1938
  349TIP3    H222539   2.643   2.846   1.092 -1.6843  0.6759 -2.5755
  350TIP3   OH222540   1.218   2.647   0.470 -0.3539 -0.1318  0.2505
  350TIP3    H122541   1.135   2.620   0.509 -0.8945  1.5633  0.2755
  350TIP3    H222542   1.256   2.709   0.532  1.7004 -2.0728  0.9991
  351TIP3   OH222543   3.906   4.312  17.225 -0.2706 -0.0652  0.4608
  351TIP3    H122544   3.869   4.243  17.281  1.1692 -0.1126  1.3550
  351TIP3    H222545   3.897   4.277  17.136  0.4497 -1.4289  0.9039
  352TIP3   OH222546   5.845   6.317  13.492 -0.1858  0.3697 -0.2434
  352TIP3    H122547   5.891   6.264  13.427  1.0721  0.2439  0.7311
  352TIP3    H222548   5.752   6.299  13.477  0.0629  0.6744 -2.2742
  353TIP3   OH222549   1.386   2.722   5.088 -0.6290 -0.3259 -0.0079
  353TIP3    H122550   1.425   2.704   5.173 -3.8707 -1.5726  1.2835
  353TIP3    H222551   1.411   2.812   5.068  0.2974 -0.0711  2.1968
  354TIP3   OH222552   6.320   6.232   6.317  0.3820  0.1748 -0.3329
  354TIP3    H122553   6.291   6.148   6.281  2.3098 -0.6596  0.0268
  354TIP3    H222554   6.291   6.297   6.252 -3.0875 -0.4759  0.4519
  355TIP3   OH222555   4.148   6.662  16.237  0.7034 -0.3233 -0.2625
  355TIP3    H122556   4.178   6.574  16.260  0.6928 -0.4490 -0.7220
  355TIP3    H222557   4.072   6.677  16.294  1.9176  0.1952  1.2554
  356TIP3   OH222558   1.587   6.790   5.444 -0.1752  0.4143 -0.2079
  356TIP3    H122559   1.568   6.882   5.426 -1.9483  0.4130  1.4431
  356TIP3    H222560   1.646   6.792   5.519 -0.7166  0.2067  0.2301
  357TIP3   OH222561   1.819   1.544  15.626  0.4583 -0.0987 -0.4980
  357TIP3    H122562   1.737   1.504  15.600 -0.5864  1.3229  0.5588
  357TIP3    H222563   1.811   1.636  15.599  0.5265  0.7246  2.1433
  358TIP3   OH222564   0.265   6.504  11.477 -0.3860  0.4787  0.0009
  358TIP3    H122565   0.298   6.538  11.560  0.3279  0.6777 -0.3590
  358TIP3    H222566   0.181   6.547  11.465 -0.2829  0.7945  0.4050
  359TIP3   OH222567   0.001   0.166   3.992 -0.1585  0.0895 -0.4085
  359TIP3    H122568  -0.007   0.205   4.079 -0.1380  0.3760 -0.5345
  359TIP3    H222569   0.017   0.240   3.934 -0.9074 -0.0129 -0.7624
  360TIP3   OH222570   4.129   6.508   1.532 -0.2523  0.2620  0.4116
  360TIP3    H122571   4.086   6.587   1.500  1.0747  1.4269  1.4112
  360TIP3    H222572   4.110   6.507   1.626  0.4702 -0.1276  0.5598
  361TIP3   OH222573   1.119   0.360  16.893  0.0660 -0.3036 -0.0193
  361TIP3    H122574   1.061   0.397  16.826 -0.8394  0.4254  1.1417
  361TIP3    H222575   1.176   0.433  16.918  1.1224 -0.8653 -0.7530
  362TIP3   OH222576   3.569   5.785   6.269  0.6359  0.1836 -0.0805
  362TIP3    H122577   3.518   5.760   6.192  0.4195  0.9361 -0.1826
  362TIP3    H222578   3.530   5.736   6.341 -1.1189  1.7490  0.0932
  363TIP3   OH222579   0.443   0.388  15.244  0.0990  0.4343 -0.4810
  363TIP3    H122580   0.393   0.436  15.178  0.0621 -0.4817 -1.1299
  363TIP3    H222581   0.442   0.297  15.213  3.0782  0.5665 -1.0890
  364TIP3   OH222582   3.607   4.567   4.440 -0.2357  0.0293  0.9376
  364TIP3    H122583   3.650   4.494   4.484 -1.9795 -1.2428  0.5758
  364TIP3    H222584   3.519   4.535   4.419 -0.6563  1.8404 -0.2360
  365TIP3   OH222585   1.150   6.675   5.888  0.4618  0.3943 -0.2111
  365TIP3    H122586   1.232   6.646   5.849  0.1448  0.0789 -0.6495
  365TIP3    H222587   1.165   6.671   5.982  1.1979  1.0621 -0.3000
  366TIP3   OH222588   3.281   6.559  15.144  0.4305 -0.2948 -0.0847
  366TIP3    H122589   3.326   6.481  15.178  0.6402 -0.8214 -1.5058
  366TIP3    H222590   3.305   6.629  15.204 -0.9654 -1.6353  2.0669
  367TIP3   OH222591   0.805   5.442   3.785  0.2139  0.3006 -0.0690
  367TIP3    H122592   0.775   5.400   3.865 -0.1698 -1.6368 -1.1946
  367TIP3    H222593   0.743   5.413   3.718 -1.1729  4.1562 -0.5747
  368TIP3   OH222594   0.479   4.173   2.419  0.5570  0.3494 -0.0560
  368TIP3    H122595   0.425   4.204   2.492  0.5597 -0.4422  0.2943
  368TIP3    H222596   0.458   4.231   2.347 -0.8662 -0.0191  0.0425
  369TIP3   OH222597   2.259   5.560   5.226  0.7213 -0.4294  0.5718
  369TIP3    H122598   2.188   5.605   5.272 -0.1061  1.9410 -2.8719
  369TIP3    H222599   2.216   5.512   5.155  2.3682 -0.4748 -0.4316
  370TIP3   OH222600   6.338   4.428  12.978  0.4858  0.4770 -0.1663
  370TIP3    H122601   6.433   4.419  12.976  0.3666 -0.5560 -3.5438
  370TIP3    H222602   6.307   4.375  12.905 -2.7055  0.8432  0.8445
  371TIP3   OH222603   2.938   3.872   5.845  0.0608  0.3921 -0.6883
  371TIP3    H122604   2.989   3.807   5.895  1.9193  1.7451 -0.7752
  371TIP3    H222605   2.883   3.819   5.787  0.1080 -1.1506  0.6245
  372TIP3   OH222606   5.931   1.618   6.356  0.0347  0.3899 -0.7550
  372TIP3    H122607   5.854   1.664   6.390  0.5823  2.6862 -2.4821
  372TIP3    H222608   5.901   1.579   6.274  0.0600 -0.8428 -0.1818
  373TIP3   OH222609   3.204   0.291  12.278 -0.0031 -0.5447 -0.0168
  373TIP3    H122610   3.136   0.272  12.213  0.0464  1.1677 -0.5818
  373TIP3    H222611   3.275   0.330  12.229  0.2697  0.2406  0.9738
  374TIP3   OH222612   6.074   3.222  14.994 -0.2123  0.4199  0.5638
  374TIP3    H122613   6.096   3.189  15.081  0.6140 -0.4846  0.0243
  374TIP3    H222614   5.995   3.275  15.007  1.3751  2.4367  2.2925
  375TIP3   OH222615   5.280   2.412  10.561  0.3505 -0.0434 -0.3642
  375TIP3    H122616   5.355   2.370  10.603  0.7724 -0.1524 -1.2182
  375TIP3    H222617   5.204   2.363  10.593  0.5692  0.5353  1.0855
  376TIP3   OH222618   6.626   4.330   4.214 -0.4274  0.7962 -0.7723
  376TIP3    H122619   6.563   4.365   4.277 -1.7619  1.7396 -2.5684
  376TIP3    H222620   6.610   4.236   4.214 -0.0736  0.7190  0.6237
  377TIP3   OH222621   2.324   5.309   1.728 -0.2121  0.5001  0.1020
  377TIP3    H122622   2.272   5.254   1.787  0.9387  1.8101  2.4213
  377TIP3    H222623   2.287   5.397   1.739 -0.6295  0.6092 -1.9263
  378TIP3   OH222624   6.538   5.650   3.420  0.0394  0.1461  0.3228
  378TIP3    H122625   6.626   5.658   3.457 -0.1344 -0.1294  0.7972
  378TIP3    H222626   6.536   5.563   3.382 -0.4036 -0.2790  1.3079
  379TIP3   OH222627   1.009   5.782  14.111 -0.3937  0.7625 -0.5708
  379TIP3    H122628   1.084   5.789  14.170 -1.7655  1.2224  1.1847
  379TIP3    H222629   0.987   5.873  14.090 -0.4335  0.6316 -1.0882
  380TIP3   OH222630   2.806   0.715  13.068  0.3627  0.1017  0.2102
  380TIP3    H122631   2.802   0.768  13.148  1.2364  2.5910 -1.3368
  380TIP3    H222632   2.883   0.660  13.080 -0.5823 -0.9070  1.8755
  381TIP3   OH222633   4.417   1.961  12.745 -0.3467 -0.1762  0.1317
  381TIP3    H122634   4.409   1.997  12.656  0.0662 -1.5569 -0.4806
  381TIP3    H222635   4.505   1.923  12.748 -0.1115  0.4280  1.3626
  382TIP3   OH222636   3.724   6.413  13.372 -0.1219 -0.1308  0.5784
  382TIP3    H122637   3.748   6.363  13.294  0.4232 -2.5687  2.2391
  382TIP3    H222638   3.791   6.481  13.379 -0.7956  0.7955 -1.6462
  383TIP3   OH222639   5.874   2.345  15.813  0.2507 -0.6344  0.0620
  383TIP3    H122640   5.797   2.320  15.762 -0.5424  1.8615 -0.0263
  383TIP3    H222641   5.899   2.264  15.859 -1.9948 -1.6739 -0.4494
  384TIP3   OH222642   3.208   5.467   2.962 -0.1150 -1.0060  0.1649
  384TIP3    H122643   3.117   5.484   2.986  0.5599 -0.4736  2.4486
  384TIP3    H222644   3.234   5.545   2.912 -0.9881 -1.2802 -0.7249
  385TIP3   OH222645   0.453   4.711   3.437  0.0229 -0.0994  0.6812
  385TIP3    H122646   0.376   4.762   3.411 -0.5966 -2.6246 -2.7859
  385TIP3    H222647   0.526   4.773   3.432 -1.5656  2.0503  2.9369
  386TIP3   OH222648   3.073   6.557   3.602  0.0740  0.2954 -0.2149
  386TIP3    H122649   2.979   6.548   3.622 -0.0721 -1.4739 -1.5798
  386TIP3    H222650   3.077   6.626   3.536 -0.3500 -0.2372 -0.7937
  387TIP3   OH222651   1.290   0.560   0.550 -0.2847 -0.4294  0.7572
  387TIP3    H122652   1.305   0.468   0.526 -0.2183 -0.1176 -0.4600
  387TIP3    H222653   1.292   0.606   0.466 -1.1016  0.5735  1.2820
  388TIP3   OH222654   3.083   4.614  14.316  0.0507 -0.1081  0.1521
  388TIP3    H122655   3.158   4.590  14.371 -0.6676 -1.4110  0.5700
  388TIP3    H222656   3.008   4.615  14.376 -0.3054  1.0312 -0.2960
  389TIP3   OH222657   0.862   3.063   5.253  0.2661 -0.5856 -0.0299
  389TIP3    H122658   0.932   3.001   5.231  0.7416 -0.3366  0.7477
  389TIP3    H222659   0.906   3.148   5.255 -0.5043 -0.1220 -1.7116
  390TIP3   OH222660   0.443   4.368  13.520 -0.3411 -0.7135 -0.3105
  390TIP3    H122661   0.406   4.307  13.457  1.0824 -1.0991 -0.7899
  390TIP3    H222662   0.477   4.440  13.467 -1.6342  0.3086  0.2265
  391TIP3   OH222663   6.340   0.035  13.695 -0.6705  0.6648  0.6118
  391TIP3    H122664   6.348  -0.042  13.752 -0.7746  1.0475  1.1498
  391TIP3    H222665   6.430   0.056  13.671 -0.5279  1.2177  1.6035
  392TIP3   OH222666   3.141   0.441  15.265 -0.1112  0.3564 -0.4576
  392TIP3    H122667   3.093   0.479  15.192 -0.7675  0.8496  0.2169
  392TIP3    H222668   3.144   0.347  15.246 -0.7916  0.4094 -0.8253
  393TIP3   OH222669   0.307   2.573   1.812 -0.1716 -0.0391  0.5063
  393TIP3    H122670   0.305   2.518   1.734  0.3086  1.4982 -0.6227
  393TIP3    H222671   0.334   2.515   1.882 -0.6444 -1.4582 -0.4641
  394TIP3   OH222672   0.664   4.393  14.663  0.2312 -0.1639  0.0114
  394TIP3    H122673   0.684   4.321  14.722  0.6407 -0.1836 -0.1445
  394TIP3    H222674   0.750   4.426  14.636  0.0560 -0.4085 -0.8849
  395TIP3   OH222675   4.664   1.799  12.825  0.4985 -0.4334 -0.2719
  395TIP3    H122676   4.644   1.755  12.907  0.3845  0.4958  0.2122
  395TIP3    H222677   4.749   1.840  12.840  0.5367 -0.3663 -0.6617
  396TIP3   OH222678   5.921   6.161   4.913 -0.3126  0.0337  0.6703
  396TIP3    H122679   5.896   6.135   5.001  1.4466  0.7049  1.3951
  396TIP3    H222680   5.838   6.170   4.866 -1.2709 -0.2438  2.2676
  397TIP3   OH222681   6.491   4.771   3.066 -0.0247 -0.4553 -0.6118
  397TIP3    H122682   6.408   4.814   3.088  0.8972  1.7367 -1.2935
  397TIP3    H222683   6.497   4.778   2.971  1.3100  0.1181 -0.4909
  398TIP3   OH222684   3.752   5.470  12.190  0.0177 -0.1941 -0.5873
  398TIP3    H122685   3.663   5.493  12.217  0.2105 -0.0165 -0.0936
  398TIP3    H222686   3.783   5.547  12.142 -0.3624 -0.5498 -1.4117
  399TIP3   OH222687   0.127   1.632   0.191  0.0655 -0.4154 -0.8735
  399TIP3    H122688   0.053   1.659   0.137  0.8697  1.0550 -1.2499
  399TIP3    H222689   0.099   1.549   0.230 -1.5796 -0.1241 -1.4064
  400TIP3   OH222690   3.243   6.698   5.254 -0.4342 -0.1091 -0.6123
  400TIP3    H122691   3.308   6.671   5.318 -1.2224  0.6976  0.5369
  400TIP3    H222692   3.182   6.625   5.249  0.7755 -1.0576 -2.0253
  401TIP3   OH222693   4.241   1.575   6.261 -0.5861  0.4043 -0.6982
  401TIP3    H122694   4.267   1.667   6.252 -2.7581  1.0815 -0.4933
  401TIP3    H222695   4.222   1.565   6.354 -2.6011  0.4144 -1.0877
  402TIP3   OH222696   5.436   4.341   6.866 -0.5342 -0.0410 -0.6885
  402TIP3    H122697   5.347   4.307   6.864 -0.0608 -1.4630  1.3345
  402TIP3    H222698   5.492   4.264   6.872  0.6703  0.9240  1.2644
  403TIP3   OH222699   3.508   2.300   3.466 -0.5481 -0.9940  0.1589
  403TIP3    H122700   3.481   2.255   3.546 -2.1857 -1.1083 -0.4382
  403TIP3    H222701   3.466   2.386   3.471  0.7452 -0.3539  0.2296
  404TIP3   OH222702   3.438   4.564  13.693  0.4781 -0.7442 -0.1568
  404TIP3    H122703   3.454   4.658  13.696  0.8988 -0.8435  1.1116
  404TIP3    H222704   3.525   4.525  13.702  0.0610 -1.2541  1.9068
  405TIP3   OH222705   4.900   1.743  15.193 -0.3242  0.1651  0.6306
  405TIP3    H122706   4.813   1.747  15.153 -1.4014  2.7283  3.0284
  405TIP3    H222707   4.913   1.650  15.213 -0.7589 -0.8233 -3.3677
  406TIP3   OH222708   0.407   0.666   2.584 -0.1148 -0.1158  0.2267
  406TIP3    H122709   0.465   0.738   2.561  1.4590 -1.7168 -1.0002
  406TIP3    H222710   0.388   0.623   2.500 -1.0002 -1.1451  0.9452
  407TIP3   OH222711   5.079   3.858   4.510  0.0062  0.0042  0.9193
  407TIP3    H122712   5.112   3.948   4.508  2.0009 -0.7081 -1.8889
  407TIP3    H222713   5.154   3.805   4.536 -0.2792 -1.1497 -0.5166
  408TIP3   OH222714   1.496   5.780   3.014  0.1374  0.7113 -0.0382
  408TIP3    H122715   1.573   5.835   3.029 -0.0853  0.6323  1.4310
  408TIP3    H222716   1.533   5.695   2.988  0.5404  0.7895  0.2667
  409TIP3   OH222717   6.643   0.889   0.398 -0.1307  0.0577 -1.0969
  409TIP3    H122718   6.682   0.860   0.315  0.2641 -0.4990 -0.7231
  409TIP3    H222719   6.577   0.821   0.417 -0.3432  0.2799 -1.0401
  410TIP3   OH222720   4.776   0.803   0.157 -0.2255  0.0535 -0.4597
  410TIP3    H122721   4.826   0.860   0.098 -0.2670 -1.3536 -1.8959
  410TIP3    H222722   4.685   0.827   0.143 -0.3309 -1.1540 -1.9513
  411TIP3   OH222723   2.542   0.138   4.669  0.1714  0.4882  0.0489
  411TIP3    H122724   2.486   0.215   4.674 -3.4614 -2.1361  1.1080
  411TIP3    H222725   2.565   0.119   4.759 -2.6929 -2.2403  0.2761
  412TIP3   OH222726   0.092   1.458  13.464  0.5984  0.3179 -0.2447
  412TIP3    H122727   0.167   1.512  13.440  0.3467  0.9308  0.3228
  412TIP3    H222728   0.019   1.520  13.474  0.2230 -0.1615  0.0531
  413TIP3   OH222729   3.324   0.831  16.852  0.2895  0.3059 -0.4983
  413TIP3    H122730   3.361   0.774  16.785  0.6242 -0.8823  0.6767
  413TIP3    H222731   3.372   0.808  16.932  2.0690  3.8671 -0.4579
  414TIP3   OH222732   5.051   4.970   1.012 -0.4104 -0.0398  0.1519
  414TIP3    H122733   4.956   4.982   1.019 -0.4339 -0.2419  0.1867
  414TIP3    H222734   5.066   4.882   1.046 -0.2623 -0.1724 -0.2631
  415TIP3   OH222735   1.539   0.878   6.160 -0.5012  0.3520 -0.2053
  415TIP3    H122736   1.514   0.953   6.214  0.4230 -0.3080  1.1762
  415TIP3    H222737   1.456   0.842   6.130 -0.9801  1.4661 -0.2402
  416TIP3   OH222738   5.021   6.098   6.145  0.0933 -0.4873 -0.5795
  416TIP3    H122739   4.998   6.061   6.060 -0.3824  0.2544 -0.7723
  416TIP3    H222740   5.061   6.025   6.192 -0.9838 -1.3141 -0.9030
  417TIP3   OH222741   6.594   4.397  12.909 -0.3472 -0.2023  0.0912
  417TIP3    H122742   6.647   4.419  12.986 -0.8643 -2.3921  1.1168
  417TIP3    H222743   6.631   4.449  12.838  2.7506 -1.1461  0.9241
  418TIP3   OH222744   1.024   2.792   6.141 -0.2839 -0.4577 -0.5948
  418TIP3    H122745   0.984   2.815   6.225 -3.3536  1.2891 -2.4610
  418TIP3    H222746   1.092   2.858   6.128 -2.4944  1.7004 -1.3434
  419TIP3   OH222747   4.386   5.312  15.176 -0.0683 -0.1556  0.3611
  419TIP3    H122748   4.423   5.335  15.261 -1.0916  1.1465  0.4621
  419TIP3    H222749   4.341   5.228  15.191  1.1127 -0.7275  0.7103
  420TIP3   OH222750   6.681   2.506  14.352 -0.3667  0.2258  0.6746
  420TIP3    H122751   6.711   2.479  14.266  0.9870 -1.1687  1.5648
  420TIP3    H222752   6.760   2.531  14.400 -1.0304  0.3920  1.7253
  421TIP3   OH222753   0.544   0.753  11.466 -0.2266 -0.1532  0.2780
  421TIP3    H122754   0.480   0.704  11.516 -0.3595 -1.3266 -1.0125
  421TIP3    H222755   0.605   0.687  11.434 -0.1993  0.5533 -1.1781
  422TIP3   OH222756   5.250   0.805   1.692 -0.1686  0.3227  0.3230
  422TIP3    H122757   5.324   0.805   1.752 -1.0371 -0.7710  1.4262
  422TIP3    H222758   5.175   0.829   1.746 -0.8795 -0.1479 -0.4347
  423TIP3   OH222759   0.730   2.018  13.455  0.5177  0.2825  0.0754
  423TIP3    H122760   0.772   2.002  13.540 -0.5680  0.9900  0.7588
  423TIP3    H222761   0.695   2.107  13.462  0.7988  0.5045 -1.2753
  424TIP3   OH222762   1.861   5.234  17.256  0.2169 -0.5744  0.0694
  424TIP3    H122763   1.879   5.302  17.321  0.6910 -0.5798 -0.0525
  424TIP3    H222764   1.943   5.224  17.209 -0.1029 -0.6335 -0.4758
  425TIP3   OH222765   0.193   5.743   4.884 -0.0845 -0.1660 -0.8170
  425TIP3    H122766   0.207   5.761   4.791 -0.8846  0.4019 -0.8274
  425TIP3    H222767   0.238   5.814   4.930 -0.2975 -0.0536 -0.7833
  426TIP3   OH222768   3.784   2.882  15.905  0.1276 -0.5054  0.6159
  426TIP3    H122769   3.799   2.972  15.879 -0.4084 -0.1211  1.5896
  426TIP3    H222770   3.866   2.854  15.946 -0.2787  0.1248  1.8947
  427TIP3   OH222771   3.839   3.650  15.051  0.0688  0.1176 -0.6671
  427TIP3    H122772   3.805   3.603  15.128  1.5869  0.4939  0.2377
  427TIP3    H222773   3.877   3.581  14.996 -1.7642 -0.2611 -1.5084
  428TIP3   OH222774   4.242   4.295  14.239 -0.1082  0.4348  0.1853
  428TIP3    H122775   4.249   4.388  14.216  1.2957  0.6591  1.4415
  428TIP3    H222776   4.199   4.295  14.325 -0.6185 -0.1093 -0.0707
  429TIP3   OH222777   6.393   1.483   0.587 -0.5061 -0.3004 -0.0268
  429TIP3    H122778   6.345   1.531   0.654 -0.3758  0.7855 -0.7103
  429TIP3    H222779   6.407   1.396   0.625  0.0229  0.4704  1.5517
  430TIP3   OH222780   6.438   5.101   0.043  0.4764 -0.3136  0.1590
  430TIP3    H122781   6.491   5.153   0.103  1.9521 -1.1469 -0.4049
  430TIP3    H222782   6.476   5.116  -0.043  0.8198 -2.1529 -0.0420
  431TIP3   OH222783   4.564   4.516  14.149  0.1754  0.2670  0.0656
  431TIP3    H122784   4.655   4.502  14.174  0.3125  0.8288 -0.1206
  431TIP3    H222785   4.559   4.481  14.060 -0.2744 -1.5838  0.7993
  432TIP3   OH222786   1.981   2.615  13.658 -0.3046 -0.1197 -0.5630
  432TIP3    H122787   1.899   2.624  13.706  0.0793  0.1783  0.0476
  432TIP3    H222788   1.956   2.575  13.575 -1.4272  2.2470 -1.4107
  433TIP3   OH222789   2.199   2.612  11.828  0.2231  0.4840  0.3313
  433TIP3    H122790   2.205   2.602  11.733  1.6335  2.0756  0.2071
  433TIP3    H222791   2.229   2.528  11.863 -0.0129 -0.0065 -0.6264
  434TIP3   OH222792   1.832   1.186  13.611 -0.4017 -0.3014 -0.0825
  434TIP3    H122793   1.908   1.128  13.618  0.1225  0.1161 -1.9696
  434TIP3    H222794   1.860   1.267  13.655  0.5242  0.1057 -1.4015
  435TIP3   OH222795   3.250   0.121   1.624 -0.2504 -0.0790 -0.0722
  435TIP3    H122796   3.276   0.087   1.709  0.1778 -0.4780 -0.3577
  435TIP3    H222797   3.326   0.104   1.567 -0.8509 -0.5939 -0.7363
  436TIP3   OH222798   6.192   4.579   4.638 -0.0214  0.0561 -0.4064
  436TIP3    H122799   6.188   4.494   4.682  1.6361  0.0332 -0.2695
  436TIP3    H222800   6.132   4.634   4.687 -0.5101 -0.8198 -0.0068
  437TIP3   OH222801   0.589   1.284  16.393  0.1417  0.6520  0.1796
  437TIP3    H122802   0.503   1.244  16.391  0.6514 -0.4484 -0.1881
  437TIP3    H222803   0.612   1.288  16.485 -0.7732  1.9973  0.3585
  438TIP3   OH222804   2.349   1.204  17.044  0.0790 -0.3378 -0.2796
  438TIP3    H122805   2.422   1.188  16.984 -0.0929 -1.3937 -0.2188
  438TIP3    H222806   2.369   1.288  17.084 -0.2739  0.8562 -2.5138
  439TIP3   OH222807   2.033   0.316  13.210  0.3527 -0.1190 -0.3091
  439TIP3    H122808   2.062   0.407  13.201  1.4397 -0.3869  0.4471
  439TIP3    H222809   1.988   0.297  13.127  0.3174  1.0334 -0.5575
  440TIP3   OH222810   2.513   4.226   0.383  0.5099  0.4090 -0.3393
  440TIP3    H122811   2.561   4.195   0.306  1.1545 -2.1611  1.0560
  440TIP3    H222812   2.563   4.302   0.413  3.5306 -1.9594  0.8221
  441TIP3   OH222813   2.616   4.528   6.300  0.3198  0.2745 -0.2947
  441TIP3    H122814   2.682   4.573   6.353  0.5369 -1.3386  0.8368
  441TIP3    H222815   2.540   4.585   6.303  0.3282  0.2144  1.7587
  442TIP3   OH222816   3.477   6.612   1.393  0.1468  0.0037  0.3924
  442TIP3    H122817   3.420   6.535   1.396  0.5673 -0.3543 -0.4914
  442TIP3    H222818   3.491   6.635   1.484  0.2031 -1.1175  0.6788
  443TIP3   OH222819   0.540   3.672  16.756  0.8315  0.5739  0.1245
  443TIP3    H122820   0.571   3.715  16.836 -0.5564  2.0848 -0.1211
  443TIP3    H222821   0.602   3.698  16.688  1.2810  0.3326  0.4373
  444TIP3   OH222822   6.002   6.629  12.489  0.0803  0.5456 -0.0278
  444TIP3    H122823   6.057   6.677  12.551  1.0220  0.1175 -0.5174
  444TIP3    H222824   6.064   6.590  12.428 -0.7152 -0.8742  0.0589
  445TIP3   OH222825   5.563   0.434   5.450  0.4053 -0.5859 -0.5711
  445TIP3    H122826   5.646   0.444   5.402  1.2657 -1.4069  0.7060
  445TIP3    H222827   5.568   0.498   5.521  0.2835 -1.1474 -0.0501
  446TIP3   OH222828   3.258   0.992   4.593 -0.1806 -0.2419 -0.5496
  446TIP3    H122829   3.183   1.050   4.578 -0.0485  0.0151 -0.2496
  446TIP3    H222830   3.263   0.985   4.689  0.0888 -0.3707 -0.5732
  447TIP3   OH222831   2.405   0.513  15.148 -0.0163 -0.4417 -0.4119
  447TIP3    H122832   2.342   0.502  15.219 -0.3682 -0.8036 -0.7712
  447TIP3    H222833   2.490   0.504  15.189 -0.2113 -0.3237  0.0201
  448TIP3   OH222834   6.258   1.127   1.069  0.0996 -0.5614  0.1582
  448TIP3    H122835   6.224   1.118   1.158  1.1019 -3.0526  0.3352
  448TIP3    H222836   6.182   1.114   1.012 -0.6891  1.7828  0.6118
  449TIP3   OH222837   1.824   3.473  13.839 -0.0335 -0.4425 -0.6019
  449TIP3    H122838   1.883   3.504  13.908 -0.9486 -0.3569  0.1508
  449TIP3    H222839   1.805   3.551  13.787  0.0574 -0.3557 -0.5051
  450TIP3   OH222840   5.035   3.155   1.839  0.0710  0.4339  0.2289
  450TIP3    H122841   5.054   3.236   1.887  0.4932 -0.7759  2.1846
  450TIP3    H222842   4.959   3.118   1.884  0.8243 -1.0225  0.3357
  451TIP3   OH222843   5.908   5.656   3.458 -0.0104 -0.3545  0.1525
  451TIP3    H122844   5.896   5.594   3.530  0.2980 -0.6422 -0.0411
  451TIP3    H222845   5.999   5.684   3.466 -0.5083  1.0616  1.0202
  452TIP3   OH222846   1.485   0.024   2.379 -0.0934 -0.2165 -0.2038
  452TIP3    H122847   1.561  -0.034   2.378  0.0057 -0.0837 -0.6904
  452TIP3    H222848   1.504   0.089   2.311 -0.3306  0.2181  0.1499
  453TIP3   OH222849   3.924   1.160  15.021 -0.0091 -0.4439  0.4560
  453TIP3    H122850   3.995   1.207  14.977 -0.9803  0.8655  0.2750
  453TIP3    H222851   3.967   1.083  15.059  1.2205 -0.5063 -1.0016
  454TIP3   OH222852   6.526   1.143   2.298  0.3437  0.7992 -0.0805
  454TIP3    H122853   6.525   1.236   2.278  1.3858  1.3577  2.2439
  454TIP3    H222854   6.552   1.139   2.390  2.3460 -1.8682 -0.7030
  455TIP3   OH222855   3.947   5.509  14.081 -0.2151  0.2803  0.0109
  455TIP3    H122856   3.882   5.566  14.122  0.7144  1.0204  0.4654
  455TIP3    H222857   4.026   5.562  14.076  0.0480 -0.2350 -1.5812
  456TIP3   OH222858   0.618   4.009   4.204  0.4049 -0.8007 -0.2689
  456TIP3    H122859   0.625   3.990   4.298 -0.8453 -1.8480 -0.3713
  456TIP3    H222860   0.523   4.013   4.188  0.6167 -0.6031 -1.4824
  457TIP3   OH222861   0.432   3.244   0.496  0.1152  0.2369 -0.0645
  457TIP3    H122862   0.465   3.266   0.409  0.6536 -0.8720 -0.1420
  457TIP3    H222863   0.424   3.149   0.496  0.8620  0.1541  1.3644
  458TIP3   OH222864   3.505   0.482  14.618 -0.5342  0.9980 -0.4393
  458TIP3    H122865   3.461   0.505  14.699 -2.6210 -0.9399 -0.9882
  458TIP3    H222866   3.593   0.455  14.645 -1.3498 -0.0413  1.2261
  459TIP3   OH222867   4.176   1.850  15.896  0.3837 -0.6123 -0.0691
  459TIP3    H122868   4.269   1.838  15.913  0.2873  0.0082  0.9411
  459TIP3    H222869   4.169   1.940  15.862  0.0712 -0.4273  0.4857
  460TIP3   OH222870   0.965   3.329   1.360 -0.4063 -0.5398  0.5031
  460TIP3    H122871   1.025   3.322   1.286  1.1153 -1.3796  1.7739
  460TIP3    H222872   0.896   3.388   1.330  0.7515 -0.0187 -1.1950
  461TIP3   OH222873   4.019   4.149  12.973  0.2430  0.6091 -0.1319
  461TIP3    H122874   3.926   4.156  12.995  0.6861  0.3247  1.9615
  461TIP3    H222875   4.022   4.163  12.878 -1.8219  1.5626 -0.0966
  462TIP3   OH222876   3.397   4.718   5.104 -0.3945  0.3102  0.3974
  462TIP3    H122877   3.320   4.662   5.120  0.0987 -1.2483 -2.2362
  462TIP3    H222878   3.457   4.698   5.175  0.0539 -3.1395 -0.8401
  463TIP3   OH222879   4.789   0.605   5.263  0.3389 -0.3794  0.2592
  463TIP3    H122880   4.741   0.555   5.328 -2.0036  0.9329 -0.4138
  463TIP3    H222881   4.849   0.660   5.313  1.5203 -2.3812  1.0851
  464TIP3   OH222882   3.203   0.435   1.211  0.0800 -0.3004 -0.4491
  464TIP3    H122883   3.184   0.349   1.248 -1.1884 -0.0069 -0.4039
  464TIP3    H222884   3.157   0.496   1.267  1.0603  0.4249 -0.4283
  465TIP3   OH222885   0.552   5.361  16.677  0.5600 -0.0596 -0.0151
  465TIP3    H122886   0.476   5.321  16.718 -0.3179  2.1169  0.5430
  465TIP3    H222887   0.615   5.373  16.748  0.2449  0.8574  0.1241
  466TIP3   OH222888   2.068   6.099   5.699 -0.2003  0.3298 -0.6716
  466TIP3    H122889   2.025   6.171   5.651 -0.3755  3.1064  3.3936
  466TIP3    H222890   1.996   6.048   5.735 -0.0755  0.6842  0.0773
  467TIP3   OH222891   3.336   2.618  11.488 -0.1016  0.3726  0.1768
  467TIP3    H122892   3.428   2.637  11.468 -0.1367  0.4486  0.0873
  467TIP3    H222893   3.316   2.675  11.563 -0.5079  1.4632 -0.7463
  468TIP3   OH222894   3.684   0.211   4.442  0.1198 -0.0759 -0.5369
  468TIP3    H122895   3.757   0.255   4.399 -0.9070  1.1177 -1.0816
  468TIP3    H222896   3.629   0.282   4.475  0.2093 -0.9486  1.6380
  469TIP3   OH222897   6.146   1.060  16.079 -0.3628  0.4425  0.3619
  469TIP3    H122898   6.172   1.105  16.159  2.1775 -1.3462  0.6139
  469TIP3    H222899   6.210   1.089  16.013  0.2165 -1.3805  0.0936
  470TIP3   OH222900   5.778   0.409   3.359 -0.7923  0.1123 -0.1619
  470TIP3    H122901   5.689   0.411   3.393 -1.0398 -2.4483 -0.5731
  470TIP3    H222902   5.793   0.497   3.326 -3.6268  0.2584 -1.1863
  471TIP3   OH222903   3.471   1.375  15.570  0.5705 -0.8019  0.6353
  471TIP3    H122904   3.445   1.343  15.657 -0.9876 -0.8158  0.1783
  471TIP3    H222905   3.429   1.314  15.509  2.0108 -1.0505 -0.1408
  472TIP3   OH222906   6.313   4.052  10.798  0.2608 -0.7575  0.3542
  472TIP3    H122907   6.317   4.120  10.731 -1.5666 -2.8367 -1.9851
  472TIP3    H222908   6.256   4.089  10.866  2.1082  1.3646  0.7968
  473TIP3   OH222909   6.105   0.675   6.168  0.2813 -0.3783  0.1581
  473TIP3    H122910   6.052   0.714   6.238  0.5047  0.6300 -0.2277
  473TIP3    H222911   6.180   0.733   6.159  2.1071 -2.4808  1.5407
  474TIP3   OH222912   0.710   2.214   3.558  0.1480  0.0043  0.4036
  474TIP3    H122913   0.773   2.279   3.527  1.5151 -0.5178  2.0398
  474TIP3    H222914   0.737   2.195   3.648 -2.7762  0.2888  1.3940
  475TIP3   OH222915   0.630   5.236  15.976  0.0343  0.2026 -0.4155
  475TIP3    H122916   0.702   5.297  15.968  0.6578 -0.0960  2.4646
  475TIP3    H222917   0.663   5.166  16.033 -1.4981 -1.5331 -1.5734
  476TIP3   OH222918   3.377   3.127   2.853  0.0881 -0.5709 -0.0773
  476TIP3    H122919   3.465   3.159   2.870  1.2997 -2.7179 -1.9135
  476TIP3    H222920   3.363   3.059   2.919  0.5242 -1.3963 -0.8072
  477TIP3   OH222921   6.732   5.425  16.896  0.4575 -0.4347 -0.1881
  477TIP3    H122922   6.825   5.448  16.896  0.7734 -1.6580  0.0340
  477TIP3    H222923   6.713   5.403  16.988 -1.2327  4.3001  0.7616
  478TIP3   OH222924   6.094   4.682  12.821 -0.0128  0.7406  0.3196
  478TIP3    H122925   6.075   4.623  12.894  0.8152 -0.2517 -0.2429
  478TIP3    H222926   6.020   4.672  12.761  0.3837 -0.1711 -0.0355
  479TIP3   OH222927   5.769   4.765  13.390  0.0327  0.4445  0.2206
  479TIP3    H122928   5.831   4.797  13.324  0.7135  0.8488  1.0480
  479TIP3    H222929   5.699   4.830  13.391  0.0074  0.4238 -0.1231
  480TIP3   OH222930   6.489   0.751  12.058 -0.1241 -0.1521  0.3262
  480TIP3    H122931   6.423   0.754  11.989 -2.4050  0.4072  2.4836
  480TIP3    H222932   6.528   0.664  12.050 -0.8264 -0.3496 -1.1925
  481TIP3   OH222933   5.888   4.194  17.180  0.3180  0.4479  0.1937
  481TIP3    H122934   5.886   4.098  17.177  1.1801  0.4605 -1.9912
  481TIP3    H222935   5.910   4.215  17.271 -1.4520 -1.3786  1.0925
  482TIP3   OH222936   0.226   5.555  14.120  0.0163 -0.6623  0.0161
  482TIP3    H122937   0.310   5.541  14.077  1.0908 -1.7219  2.3541
  482TIP3    H222938   0.243   5.534  14.212 -1.6529  3.4717  1.3851
  483TIP3   OH222939   2.586   5.298   1.423  0.0138  0.4835  0.4303
  483TIP3    H122940   2.491   5.300   1.440  0.0643  1.3986  0.6750
  483TIP3    H222941   2.601   5.374   1.366  0.4125 -0.4104 -0.6745
  484TIP3   OH222942   5.673   3.994  14.153 -0.2024  0.0527 -0.2359
  484TIP3    H122943   5.741   4.058  14.131 -0.7002  0.2631 -1.1890
  484TIP3    H222944   5.591   4.037  14.130 -0.5816 -0.6902 -0.2908
  485TIP3   OH222945   4.699   3.515   0.303  0.3157 -0.1925 -0.2070
  485TIP3    H122946   4.640   3.558   0.364  0.3290 -1.0346  0.4187
  485TIP3    H222947   4.674   3.549   0.217 -0.8877 -0.3178  0.0792
  486TIP3   OH222948   0.128   4.707   1.831 -0.7071  0.0302  0.4618
  486TIP3    H122949   0.087   4.629   1.795 -2.1857  0.3299  1.4876
  486TIP3    H222950   0.064   4.777   1.815 -0.5526  0.5196  1.9689
  487TIP3   OH222951   3.341   0.635  15.321  0.0385 -0.1609 -0.7699
  487TIP3    H122952   3.284   0.689  15.375  1.2044  0.4921 -0.1699
  487TIP3    H222953   3.289   0.558  15.300 -1.7571  1.3061 -1.8607
  488TIP3   OH222954   1.833   2.881  11.314  0.0969  0.8917  0.0834
  488TIP3    H122955   1.832   2.976  11.328 -2.6813  1.3776 -2.8043
  488TIP3    H222956   1.860   2.871  11.222  3.7682 -1.3442  1.3094
  489TIP3   OH222957   5.197   6.425   4.683  0.3083 -0.8323 -0.5949
  489TIP3    H122958   5.263   6.437   4.615  0.2171  0.5020 -0.4535
  489TIP3    H222959   5.241   6.374   4.751  0.9947 -0.4784 -0.7766
  490TIP3   OH222960   3.382   5.619  14.057 -0.0736 -0.4232 -0.1179
  490TIP3    H122961   3.426   5.682  14.114 -0.6676 -0.0823 -0.0275
  490TIP3    H222962   3.384   5.537  14.106  2.4351 -0.9477 -1.0793
  491TIP3   OH222963   5.278   3.857  17.163 -0.0683  0.1696 -0.5695
  491TIP3    H122964   5.335   3.917  17.114 -0.0469  2.7674  2.4412
  491TIP3    H222965   5.337   3.811  17.222 -0.8177  1.9707  1.6781
  492TIP3   OH222966   2.962   6.804   5.332 -0.2887 -0.2845  0.0932
  492TIP3    H122967   2.977   6.891   5.369  0.6590  0.5478 -2.1714
  492TIP3    H222968   3.049   6.775   5.303 -0.4189 -2.4160  1.6817
  493TIP3   OH222969   6.081   6.039   4.162 -0.1509  0.0411  0.0068
  493TIP3    H122970   6.175   6.051   4.156 -0.0020 -1.5493 -1.0923
  493TIP3    H222971   6.044   6.119   4.123  0.7306  0.7978  0.7152
  494TIP3   OH222972   2.998   0.187   4.390  0.1294 -0.7073 -0.3508
  494TIP3    H122973   3.077   0.233   4.418 -1.9540  1.5237  2.1952
  494TIP3    H222974   3.026   0.098   4.372  3.1738  0.0048  0.6770
  495TIP3   OH222975   2.587   3.364   1.884 -0.1960 -0.4099 -0.9563
  495TIP3    H122976   2.680   3.352   1.864  0.1740 -0.7302  0.8423
  495TIP3    H222977   2.541   3.315   1.816  0.8158  2.4622 -3.8377
  496TIP3   OH222978   1.133   2.895  14.784 -0.3718  0.1501  0.1324
  496TIP3    H122979   1.138   2.855  14.870  1.3311  0.8250  0.3825
  496TIP3    H222980   1.071   2.842  14.735  0.8093 -1.9621  0.8838
  497TIP3   OH222981   0.328   0.335   0.783 -0.5567 -0.4033 -0.0834
  497TIP3    H122982   0.350   0.332   0.689  1.0025  0.5076  0.2291
  497TIP3    H222983   0.413   0.329   0.827 -1.2740 -0.6658  1.2749
  498TIP3   OH222984   0.584   1.098  12.173 -0.2129  0.2215  0.7883
  498TIP3    H122985   0.615   1.065  12.258  2.2811  0.5228  0.0226
  498TIP3    H222986   0.647   1.063  12.110 -2.3993 -0.5129 -1.0448
  499TIP3   OH222987   5.903   4.748  13.106 -0.1262 -0.6315  0.4525
  499TIP3    H122988   5.951   4.669  13.081  0.5402 -0.1368  0.1536
  499TIP3    H222989   5.816   4.737  13.068  0.3543 -0.6519 -0.6440
  500TIP3   OH222990   0.630   6.230  14.720 -0.2251 -0.6839 -0.2950
  500TIP3    H122991   0.620   6.163  14.652  0.7988 -0.5504 -0.5760
  500TIP3    H222992   0.718   6.217  14.754 -0.2474  0.1283  0.0773
  501TIP3   OH222993   5.993   1.628   3.629  0.3825 -0.7630 -0.6503
  501TIP3    H122994   6.023   1.660   3.714 -1.2365 -0.9483  0.0051
  501TIP3    H222995   6.023   1.694   3.566  1.0182 -0.2972  0.1311
  502TIP3   OH222996   5.743   0.284   2.286 -0.1342  0.7865  0.5849
  502TIP3    H122997   5.775   0.257   2.199 -1.9035 -0.9889  0.4573
  502TIP3    H222998   5.648   0.276   2.280 -0.4296  2.8797  1.9918
  503TIP3   OH222999   4.565   4.658  17.053 -1.1299 -0.4883  0.1576
  503TIP3    H123000   4.592   4.679  17.143  0.0503  0.7879 -0.4713
  503TIP3    H223001   4.539   4.742  17.016  0.3977 -0.6591 -1.3470
  504TIP3   OH223002   1.189   1.954   6.335  0.1539  0.5908 -0.4602
  504TIP3    H123003   1.139   1.894   6.390 -1.7267  1.7343 -0.8758
  504TIP3    H223004   1.180   1.919   6.247  1.4970 -0.1146 -0.3372
  505TIP3   OH223005   5.212   2.009   5.230  0.5608 -0.3923 -0.2175
  505TIP3    H123006   5.140   2.017   5.168 -0.1175  0.0289  0.6130
  505TIP3    H223007   5.284   2.058   5.190  0.9987 -2.3981 -1.9367
  506TIP3   OH223008   1.430   6.483   3.582  0.1250 -0.4026  0.2604
  506TIP3    H123009   1.421   6.388   3.590  0.9478 -0.3129  2.7633
  506TIP3    H223010   1.524   6.498   3.572  0.0236  0.1724  0.0982
  507TIP3   OH223011   0.581   5.114  16.305  0.1420 -0.1697  0.3203
  507TIP3    H123012   0.492   5.148  16.315  0.0198 -0.7305  1.2394
  507TIP3    H223013   0.578   5.028  16.346  1.2564  0.0326  0.8391
  508TIP3   OH223014   2.706   3.127   0.986 -0.1171  0.0940 -0.3578
  508TIP3    H123015   2.747   3.040   0.993  0.1129  0.2124 -0.2439
  508TIP3    H223016   2.747   3.165   0.908 -0.5926 -0.1011 -0.7047
  509TIP3   OH223017   0.965   6.081  14.079  0.2681  0.4593 -0.0318
  509TIP3    H123018   0.997   6.095  14.168  0.5173  1.9304 -0.3498
  509TIP3    H223019   0.991   6.159  14.031 -2.0313  0.7939 -0.8088
  510TIP3   OH223020   4.532   6.050  13.643 -0.1793 -0.2764  0.4782
  510TIP3    H123021   4.470   6.045  13.715 -0.6563  0.2511  0.1064
  510TIP3    H223022   4.617   6.032  13.683 -0.3784  0.4872  1.2554
  511TIP3   OH223023   1.580   6.102   1.471 -0.4120 -0.4841  0.2571
  511TIP3    H123024   1.646   6.045   1.510 -0.4295 -0.6472  0.0502
  511TIP3    H223025   1.623   6.188   1.467 -0.1424 -0.6323 -0.0500
  512TIP3   OH223026   2.827   2.117  12.247 -0.4578  0.0845  0.0176
  512TIP3    H123027   2.812   2.083  12.159  0.4109  1.2975 -0.5981
  512TIP3    H223028   2.899   2.064  12.281  2.0493  2.3898 -1.5766
  513TIP3   OH223029   2.516   0.122  16.212 -0.5128  0.6514 -0.4992
  513TIP3    H123030   2.567   0.173  16.275 -1.0714  0.9072 -0.2513
  513TIP3    H223031   2.571   0.120  16.134  0.7442 -0.7269  0.3817
  514TIP3   OH223032   2.189   2.212  11.478  0.0450  0.4497 -0.3688
  514TIP3    H123033   2.224   2.196  11.565  1.8507  0.2259 -1.1263
  514TIP3    H223034   2.143   2.131  11.456  0.1084  0.2821  0.1126
  515TIP3   OH223035   3.752   4.093  13.710  0.5452 -0.5154 -0.4834
  515TIP3    H123036   3.691   4.142  13.655  1.4287  2.0168  0.7328
  515TIP3    H223037   3.744   4.003  13.679 -0.2697  0.5427 -3.5628
  516TIP3   OH223038   3.314   0.669   3.344 -0.3862  0.8844 -0.2503
  516TIP3    H123039   3.334   0.689   3.252 -0.6070 -0.7821 -0.6757
  516TIP3    H223040   3.380   0.717   3.394  2.3697 -1.4632 -1.4881
  517TIP3   OH223041   2.471   4.696   1.791 -0.1640  0.3885  0.3166
  517TIP3    H123042   2.526   4.638   1.738  0.6206  1.3159  0.0987
  517TIP3    H223043   2.403   4.727   1.731  0.1597  0.6870  0.1039
  518TIP3   OH223044   1.023   4.632   3.859 -0.0364 -0.2221  0.3691
  518TIP3    H123045   0.962   4.578   3.909  1.0397 -1.7556  0.0416
  518TIP3    H223046   1.094   4.651   3.921  0.4562 -0.6865 -0.0464
  519TIP3   OH223047   2.916   6.600  16.718 -0.1489  0.2997 -0.2185
  519TIP3    H123048   2.871   6.588  16.802 -0.3498  0.1380 -0.3496
  519TIP3    H223049   2.996   6.548  16.726 -0.6283 -0.4893 -0.4826
  520TIP3   OH223050   1.373   5.400   6.479 -0.3347  0.2360 -0.0311
  520TIP3    H123051   1.350   5.343   6.552 -3.1649  0.0845 -0.9885
  520TIP3    H223052   1.377   5.488   6.517 -0.6589  0.0073  0.5244
  521TIP3   OH223053   1.522   3.941   1.016 -0.8460 -0.2247 -0.6852
  521TIP3    H123054   1.610   3.922   1.048 -0.5945  0.1146 -1.1655
  521TIP3    H223055   1.464   3.899   1.079 -0.3629  0.6427  0.3439
  522TIP3   OH223056   4.784   0.985  16.274  0.0827  0.1551  0.2001
  522TIP3    H123057   4.799   0.959  16.183 -0.1382  3.0279 -0.7106
  522TIP3    H223058   4.866   0.962  16.318  0.1628 -1.3537 -0.7038
  523TIP3   OH223059   1.554   6.312   4.110  0.3092 -0.1069  0.3541
  523TIP3    H123060   1.591   6.370   4.044 -0.3657 -0.1806 -0.0893
  523TIP3    H223061   1.482   6.362   4.149 -0.9013 -0.9960 -0.7038
  524TIP3   OH223062   0.521   6.514  12.290  0.3001  0.1182 -0.0278
  524TIP3    H123063   0.587   6.476  12.348  1.0922 -1.7236 -2.0809
  524TIP3    H223064   0.440   6.511  12.341  1.2060 -0.2584  1.4387
  525TIP3   OH223065   4.477   5.977  14.716 -0.0316  0.3949 -0.0566
  525TIP3    H123066   4.532   6.020  14.650  0.0909  1.8088  0.9554
  525TIP3    H223067   4.476   6.038  14.790 -1.9614 -0.1751  0.4099
  526TIP3   OH223068   4.470   6.224   2.722 -0.0744  0.3638 -0.0207
  526TIP3    H123069   4.493   6.276   2.646  0.2422  0.6019  0.2374
  526TIP3    H223070   4.546   6.230   2.780 -0.8263  1.2905  0.9048
  527TIP3   OH223071   5.955   6.511   3.250  0.0183  0.3098  0.1661
  527TIP3    H123072   6.027   6.574   3.256 -0.1810  0.3621  2.3721
  527TIP3    H223073   5.891   6.552   3.192  0.9345  1.0861 -0.3092
  528TIP3   OH223074   4.797   4.116  11.479 -0.2416 -0.1306 -0.8403
  528TIP3    H123075   4.732   4.177  11.511 -0.6393 -0.2019 -1.5237
  528TIP3    H223076   4.794   4.124  11.384 -0.1689 -1.0733 -0.9261
  529TIP3   OH223077   1.637   6.342  13.934  0.4305 -0.0038 -0.2403
  529TIP3    H123078   1.650   6.436  13.933  0.8763 -0.0589  0.1279
  529TIP3    H223079   1.724   6.305  13.922  0.4402 -0.3655  0.8338
  530TIP3   OH223080   2.806   4.839   3.350 -0.2558 -0.0053  0.6384
  530TIP3    H123081   2.795   4.934   3.351  0.3077  0.0930 -1.2836
  530TIP3    H223082   2.728   4.807   3.306  0.5512 -0.2875 -0.5863
  531TIP3   OH223083   2.936   0.513  12.292 -0.3406  0.4559  0.0202
  531TIP3    H123084   2.871   0.496  12.360  0.5148 -1.1945  0.4412
  531TIP3    H223085   2.932   0.437  12.235  2.0170 -0.2213  0.6962
  532TIP3   OH223086   4.766   6.329   3.849 -1.0379 -0.3792 -0.3298
  532TIP3    H123087   4.755   6.285   3.933 -0.0647 -0.4060 -0.2160
  532TIP3    H223088   4.794   6.418   3.871 -0.4333 -0.4910 -0.6278
  533TIP3   OH223089   3.420   3.591   2.605 -0.1696  0.0998  0.0938
  533TIP3    H123090   3.375   3.606   2.522  0.4647  0.9643 -0.1004
  533TIP3    H223091   3.421   3.496   2.615 -1.0825  0.0286 -0.4208
  534TIP3   OH223092   0.798   5.740   3.293 -0.0537  0.1757 -0.1358
  534TIP3    H123093   0.856   5.799   3.341 -1.5906  0.8644  0.8931
  534TIP3    H223094   0.810   5.655   3.337 -0.4202  0.4920  0.5851
  535TIP3   OH223095   5.004   6.142   3.291 -0.4560 -0.2220  0.0384
  535TIP3    H123096   4.922   6.188   3.270 -1.4421 -1.9618 -0.0537
  535TIP3    H223097   5.031   6.179   3.375 -1.2467  0.5218 -0.0279
  536TIP3   OH223098   6.810   0.467   0.233 -0.0877  0.2005 -0.2023
  536TIP3    H123099   6.833   0.374   0.226  0.0343  0.1549  0.6995
  536TIP3    H223100   6.769   0.474   0.319 -2.6233  0.4604 -1.4028
  537TIP3   OH223101   5.898   6.243  11.484 -0.3472 -0.3627 -0.4444
  537TIP3    H123102   5.927   6.276  11.399 -1.0128 -0.1935 -0.6132
  537TIP3    H223103   5.945   6.161  11.495  0.1735 -0.1035 -0.7159
  538TIP3   OH223104   3.210   5.577  16.621  0.0007 -0.5113 -0.5286
  538TIP3    H123105   3.243   5.495  16.659 -3.2042 -1.4817  0.3424
  538TIP3    H223106   3.160   5.618  16.691 -1.2636  0.4841 -1.9702
  539TIP3   OH223107   4.748   4.493  15.918 -0.0678  0.2212  0.1012
  539TIP3    H123108   4.834   4.528  15.891  0.1916 -0.0294  0.5946
  539TIP3    H223109   4.736   4.526  16.007  0.7882 -2.0055  1.0940
  540TIP3   OH223110   4.434   2.155  11.749  0.6585 -0.1788 -0.3467
  540TIP3    H123111   4.389   2.109  11.820  0.9663 -0.2410 -0.1916
  540TIP3    H223112   4.494   2.215  11.794  1.8660 -1.2153 -0.5499
  541TIP3   OH223113   5.627   3.501   3.114  0.1564 -0.2825  0.2686
  541TIP3    H123114   5.547   3.488   3.166  0.3117  1.5070  0.9813
  541TIP3    H223115   5.626   3.594   3.092  1.8797 -0.3221  0.0007
  542TIP3   OH223116   4.549   2.717  13.938 -0.2516 -0.0019  0.6865
  542TIP3    H123117   4.603   2.655  13.987  0.9029  1.9338  1.8998
  542TIP3    H223118   4.490   2.754  14.002 -0.1772  0.9807  0.1966
  543TIP3   OH223119   4.772   3.211   3.433 -0.1513  0.3739  0.2607
  543TIP3    H123120   4.761   3.254   3.348  0.6299  0.6404  0.2917
  543TIP3    H223121   4.829   3.137   3.416  0.2249  0.5836  0.6047
  544TIP3   OH223122   4.295   2.179   2.660 -0.0499  0.1525 -0.0492
  544TIP3    H123123   4.276   2.271   2.679  2.5154  0.6077  0.5845
  544TIP3    H223124   4.254   2.130   2.731 -1.8356  0.7526 -0.6498
  545TIP3   OH223125   4.034   5.064  11.991 -0.2738  0.2815 -0.5215
  545TIP3    H123126   4.076   5.082  11.907  0.6791  1.0461  0.1100
  545TIP3    H223127   3.965   5.130  11.999 -0.2817  0.2878 -0.6521
  546TIP3   OH223128   0.544   0.715   1.006  0.0380 -0.3448  0.4366
  546TIP3    H123129   0.502   0.705   0.920 -0.0005 -1.8746  0.6152
  546TIP3    H223130   0.610   0.646   1.009  0.7752  0.3868  1.2115
  547TIP3   OH223131   3.793   3.240   3.276 -0.1890  0.1858  0.3324
  547TIP3    H123132   3.715   3.221   3.223 -2.0290  0.5649  2.8078
  547TIP3    H223133   3.802   3.163   3.332 -0.5950  1.4187  2.1385
  548TIP3   OH223134   4.803   1.304   0.788 -0.4368 -0.0056  0.1662
  548TIP3    H123135   4.798   1.393   0.751  0.6852 -0.0091 -0.0136
  548TIP3    H223136   4.729   1.299   0.848 -0.7332  0.9271 -0.1098
  549TIP3   OH223137   4.542   1.231  15.865 -0.7048 -0.2706 -0.0556
  549TIP3    H123138   4.477   1.161  15.862  0.6388 -1.5053 -0.9756
  549TIP3    H223139   4.491   1.310  15.886 -1.9073 -1.8954  3.6523
  550TIP3   OH223140   6.615   0.124  12.486 -0.7153 -0.2616 -0.0121
  550TIP3    H123141   6.661   0.074  12.553  1.3612  1.3268 -0.2316
  550TIP3    H223142   6.573   0.196  12.534 -0.0982  0.2721 -0.2655
  551TIP3   OH223143   0.178   4.594  16.868  0.2596  0.5962  0.0876
  551TIP3    H123144   0.161   4.688  16.879  3.4974  1.3553 -0.9922
  551TIP3    H223145   0.268   4.582  16.898  0.1703 -2.0228 -0.6185
  552TIP3   OH223146   2.796   4.110   0.820 -0.4372  0.3188 -0.2259
  552TIP3    H123147   2.741   4.145   0.751 -0.7749  1.1204  0.4437
  552TIP3    H223148   2.744   4.041   0.861 -0.8275  0.8681  0.2067
  553TIP3   OH223149   6.034   3.731  11.933 -0.1914  0.6062 -0.4241
  553TIP3    H123150   6.109   3.739  11.874  0.7136  0.1867  0.6308
  553TIP3    H223151   5.980   3.663  11.894  1.3196 -0.9703  0.1505
  554TIP3   OH223152   0.458   6.742   4.989  0.0081  0.5597 -0.3661
  554TIP3    H123153   0.527   6.722   4.925  0.6287  1.4571  0.0009
  554TIP3    H223154   0.474   6.680   5.061  2.1469  2.5135  0.9328
  555TIP3   OH223155   0.242   1.030  16.636  0.0290  0.2114  0.3210
  555TIP3    H123156   0.289   1.078  16.704 -0.2760  0.9044  0.0444
  555TIP3    H223157   0.242   1.089  16.560 -1.9207  0.5348  0.5436
  556TIP3   OH223158   3.338   3.720   5.298  0.2468  0.1551 -0.7623
  556TIP3    H123159   3.367   3.675   5.378 -0.5863  0.8636 -0.0502
  556TIP3    H223160   3.362   3.811   5.313 -2.0431  0.6990 -0.2878
  557TIP3   OH223161   1.269   5.488   3.522 -0.2636 -0.3573  0.1023
  557TIP3    H123162   1.335   5.423   3.544  0.5166  0.2416 -0.4387
  557TIP3    H223163   1.230   5.457   3.441 -0.1836 -0.3606  0.0659
  558TIP3   OH223164   6.427   2.355   3.517 -0.7260 -0.0045 -0.2463
  558TIP3    H123165   6.362   2.293   3.483  0.1136 -0.5719 -0.8568
  558TIP3    H223166   6.500   2.300   3.546  0.1606  0.7054 -1.0817
  559TIP3   OH223167   5.110   5.312   4.216 -0.5166  0.1985  0.2433
  559TIP3    H123168   5.036   5.370   4.198  0.2826  1.1524 -0.0065
  559TIP3    H223169   5.185   5.356   4.177  0.2151 -0.6899  0.6290
  560TIP3   OH223170   6.123   1.040  15.015 -0.4149 -0.1285  0.2681
  560TIP3    H123171   6.127   1.087  15.098 -1.1816  0.1602  0.1401
  560TIP3    H223172   6.215   1.029  14.989 -0.0647 -1.9041  2.1097
  561TIP3   OH223173   1.741   0.835  11.640  0.5503  0.3163  0.3998
  561TIP3    H123174   1.787   0.813  11.560 -0.8814 -1.2758 -0.0081
  561TIP3    H223175   1.700   0.920  11.621  1.1917  0.5150 -0.1192
  562TIP3   OH223176   6.286   5.678  13.612  0.0714  0.2105  0.6912
  562TIP3    H123177   6.359   5.734  13.585  0.0564 -0.8893 -1.7092
  562TIP3    H223178   6.218   5.692  13.546  0.8498 -4.1318 -1.2311
  563TIP3   OH223179   3.566   3.042   1.645 -0.3283 -0.1264 -0.2890
  563TIP3    H123180   3.616   3.099   1.704 -0.6437  0.8703 -0.9675
  563TIP3    H223181   3.632   2.998   1.591 -0.1248  0.3349 -0.4202
  564TIP3   OH223182   5.892   0.626   2.108 -0.4079 -0.1197  0.3765
  564TIP3    H123183   5.952   0.577   2.052  0.1366  1.3291 -0.3596
  564TIP3    H223184   5.949   0.689   2.154 -1.1416  0.1285  0.9508
  565TIP3   OH223185   2.306   6.251  10.975 -0.2139 -0.2146  0.2941
  565TIP3    H123186   2.276   6.338  10.949  1.5825  0.7283  1.2847
  565TIP3    H223187   2.401   6.254  10.963  0.0753 -1.4470  2.0500
  566TIP3   OH223188   5.270   5.673  12.290 -0.0399  0.3704  0.1897
  566TIP3    H123189   5.227   5.589  12.276  1.8294 -0.6333  0.3223
  566TIP3    H223190   5.200   5.738  12.280 -1.4511 -1.1751 -0.1455
  567TIP3   OH223191   4.741   4.946   4.922 -0.4889  0.6617 -0.1379
  567TIP3    H123192   4.828   4.906   4.929 -1.7889 -2.1483  0.3293
  567TIP3    H223193   4.710   4.920   4.835 -1.2938  0.7444  0.1222
  568TIP3   OH223194   2.913   4.282  14.635  0.4448  0.0313 -0.2224
  568TIP3    H123195   2.946   4.200  14.671  1.5110  0.9200  0.9028
  568TIP3    H223196   2.969   4.301  14.560  1.9419  1.0465  1.1062
  569TIP3   OH223197   1.494   2.374  13.283  0.1219  0.4572 -0.0370
  569TIP3    H123198   1.561   2.440  13.264  0.4589 -0.5189 -2.4112
  569TIP3    H223199   1.424   2.423  13.325  1.8017  1.7125  1.3752
  570TIP3   OH223200   0.911   4.553   3.440  0.5654  0.0503  0.4347
  570TIP3    H123201   0.942   4.636   3.405  0.1422  0.9215  2.0594
  570TIP3    H223202   0.943   4.487   3.378  0.2786  1.4738 -1.2619
  571TIP3   OH223203   5.386   3.761  16.735 -0.3805  0.1137  0.3857
  571TIP3    H123204   5.379   3.803  16.649 -0.7454 -1.1411 -0.2051
  571TIP3    H223205   5.316   3.695  16.736  1.2329 -1.6285  0.6437
  572TIP3   OH223206   5.177   1.066  10.960 -0.4954  0.6077 -0.2106
  572TIP3    H123207   5.126   1.037  11.036 -1.0384  2.1943  0.0468
  572TIP3    H223208   5.244   0.999  10.949 -1.2260 -0.3095  0.8731
  573TIP3   OH223209   2.062   0.127   5.291 -0.2431  0.4083  0.1373
  573TIP3    H123210   1.988   0.069   5.306 -0.2658  0.8609  1.9135
  573TIP3    H223211   2.135   0.086   5.338  0.7342 -0.2041 -1.8580
  574TIP3   OH223212   6.036   1.702  12.270 -0.2111 -0.7533  0.4647
  574TIP3    H123213   6.124   1.690  12.307 -0.4553 -1.3653  0.8563
  574TIP3    H223214   5.978   1.702  12.347 -0.4785  0.4193  0.2719
  575TIP3   OH223215   6.804   3.734  17.015 -0.1033 -0.1955 -0.3035
  575TIP3    H123216   6.789   3.818  17.058  0.6540  0.0298 -0.4672
  575TIP3    H223217   6.721   3.714  16.971 -0.5539  0.0597  0.4250
  576TIP3   OH223218   0.104   0.010   0.449  0.1287  0.5748  0.0755
  576TIP3    H123219   0.065  -0.076   0.462  2.6735 -0.8310 -1.2246
  576TIP3    H223220   0.161   0.023   0.524  1.9873 -0.1966 -1.1680
  577TIP3   OH223221   1.665   3.013  12.095 -0.1571 -0.5094  0.2687
  577TIP3    H123222   1.581   3.052  12.119 -0.7340 -1.1366 -0.7242
  577TIP3    H223223   1.713   3.084  12.053 -0.8926 -0.6490 -0.8026
  578TIP3   OH223224   1.748   5.726  14.693 -0.3226  0.1467 -0.2748
  578TIP3    H123225   1.814   5.795  14.698 -2.0657  1.9408 -1.3323
  578TIP3    H223226   1.794   5.652  14.655  1.8515  0.3599  1.8399
  579TIP3   OH223227   0.688   0.291  14.889 -0.2411 -0.5441  0.0869
  579TIP3    H123228   0.711   0.379  14.918 -1.0380 -0.3683  0.1940
  579TIP3    H223229   0.623   0.303  14.820  0.3828 -1.0214 -0.5988
  580TIP3   OH223230   1.700   3.759   4.622 -0.7701  0.4914  0.9196
  580TIP3    H123231   1.644   3.698   4.574  0.0928 -0.0474  0.5860
  580TIP3    H223232   1.761   3.792   4.556 -1.3879  1.9299  1.0378
  581TIP3   OH223233   6.550   0.486   5.378 -0.3697 -0.1714 -0.4235
  581TIP3    H123234   6.471   0.540   5.390 -0.1942  0.0340 -0.1919
  581TIP3    H223235   6.619   0.549   5.355 -0.1584 -0.2921 -0.1244
  582TIP3   OH223236   1.433   6.207  11.831 -0.4985 -0.2465  0.4800
  582TIP3    H123237   1.399   6.274  11.772  1.2580  2.0817  2.0006
  582TIP3    H223238   1.523   6.194  11.801 -0.4361 -0.9925  1.0055
  583TIP3   OH223239   4.331   4.636   6.091  0.0844 -0.0531  0.5344
  583TIP3    H123240   4.247   4.604   6.123 -0.3025  1.8715  1.5214
  583TIP3    H223241   4.394   4.570   6.119 -0.7998 -0.3911  1.7508
  584TIP3   OH223242   1.143   1.993   0.476 -0.2593 -0.0590  0.0348
  584TIP3    H123243   1.084   1.917   0.474 -0.0586 -0.2186  0.3361
  584TIP3    H223244   1.215   1.969   0.418  0.0773 -0.3163  0.5599
  585TIP3   OH223245   1.500   2.704  15.668 -0.4278  0.1895 -0.3835
  585TIP3    H123246   1.493   2.616  15.704  1.2536 -0.2654 -1.1630
  585TIP3    H223247   1.533   2.757  15.741 -0.4716 -0.0187 -0.2104
  586TIP3   OH223248   1.343   6.046  16.558 -0.2228 -0.6345  0.4640
  586TIP3    H123249   1.383   5.969  16.598  3.5795  0.9927  0.0764
  586TIP3    H223250   1.357   6.116  16.622 -1.8324  0.1829 -0.0495
  587TIP3   OH223251   0.126   4.026  12.527  0.0839 -0.8217 -0.1464
  587TIP3    H123252   0.208   4.076  12.527 -0.2137 -0.3329  1.0836
  587TIP3    H223253   0.083   4.050  12.609 -1.1422 -1.3294 -0.6379
  588TIP3   OH223254   1.641   3.865   3.831  0.0192  0.3084  0.4515
  588TIP3    H123255   1.652   3.958   3.850  2.0802 -0.5304  3.6859
  588TIP3    H223256   1.559   3.841   3.875 -1.4257  0.9169 -1.8310
  589TIP3   OH223257   3.691   1.798  14.335 -0.2963  0.0049  0.1266
  589TIP3    H123258   3.635   1.870  14.363  0.9744  1.2677 -0.4977
  589TIP3    H223259   3.723   1.825  14.249 -0.0241 -1.4464 -0.2501
  590TIP3   OH223260   6.620   5.524   3.984  0.3455  0.2572 -0.0789
  590TIP3    H123261   6.568   5.600   4.008  1.7648  1.1293  0.3156
  590TIP3    H223262   6.565   5.449   4.006 -1.4723  1.1659 -1.4050
  591TIP3   OH223263   0.734   3.040   6.237  0.7669  0.0163  0.0097
  591TIP3    H123264   0.773   2.967   6.285 -1.1094 -1.0594 -0.0538
  591TIP3    H223265   0.720   3.108   6.303 -2.2233 -1.6176  1.1747
  592TIP3   OH223266   2.562   6.410  12.183 -0.0647 -0.4987  0.6518
  592TIP3    H123267   2.638   6.406  12.125  1.4364 -1.2144  2.6170
  592TIP3    H223268   2.488   6.384  12.128  1.5585 -2.7204 -0.5502
  593TIP3   OH223269   6.171   4.057   0.403  0.2351 -0.0247  0.3072
  593TIP3    H123270   6.136   4.145   0.410  0.7531  0.3899 -1.8455
  593TIP3    H223271   6.118   4.004   0.462 -2.2815  1.0926 -0.8866
  594TIP3   OH223272   3.545   4.310   0.545  0.5581  0.3588  0.2448
  594TIP3    H123273   3.589   4.285   0.626  1.6503  2.1175  0.2110
  594TIP3    H223274   3.471   4.363   0.573 -0.4835 -1.0151  0.1910
  595TIP3   OH223275   3.475   0.914   4.435 -0.3405 -0.2276 -0.1423
  595TIP3    H123276   3.547   0.912   4.497  0.4975 -0.7301 -1.1034
  595TIP3    H223277   3.412   0.975   4.472  0.6562  0.3360  0.6337
  596TIP3   OH223278   4.633   2.802   3.449 -0.1631 -0.3572 -0.7558
  596TIP3    H123279   4.652   2.750   3.527 -1.5402  1.1044  0.5975
  596TIP3    H223280   4.701   2.777   3.386  1.4231 -1.0221  1.1652
  597TIP3   OH223281   6.522   4.800  15.099 -0.4808  0.2581  0.0294
  597TIP3    H123282   6.504   4.786  15.191  1.7127 -1.0395  0.3033
  597TIP3    H223283   6.436   4.808  15.058 -1.4623  1.1720  2.2103
  598TIP3   OH223284   6.768   0.903   3.071 -0.3516 -0.3511 -0.7176
  598TIP3    H123285   6.757   0.937   3.160  0.1010  1.8431 -1.4595
  598TIP3    H223286   6.701   0.836   3.063 -1.3733  0.4444  0.7947
  599TIP3   OH223287   1.657   4.862   5.897 -0.3087 -0.5440 -0.5079
  599TIP3    H123288   1.708   4.818   5.966 -0.3002 -1.5336 -1.1304
  599TIP3    H223289   1.569   4.869   5.934  0.1029  0.4964  0.2790
  600TIP3   OH223290   0.144   3.098  16.492 -0.4281  0.1827  0.0405
  600TIP3    H123291   0.185   3.014  16.516  1.3812  0.7543 -0.9545
  600TIP3    H223292   0.092   3.078  16.414 -0.7058 -0.1968  0.3207
  601TIP3   OH223293   4.857   1.390  14.506 -0.6493  0.1480  0.2113
  601TIP3    H123294   4.790   1.330  14.474 -1.3191  0.3565  1.1908
  601TIP3    H223295   4.810   1.450  14.564  0.3447  0.4112  0.7552
  602TIP3   OH223296   1.457   5.466   0.870 -0.1335  0.3417  0.1780
  602TIP3    H123297   1.400   5.441   0.797 -0.3054  1.9033 -0.2525
  602TIP3    H223298   1.534   5.410   0.861 -0.8875 -0.6647 -0.1912
  603TIP3   OH223299   5.650   2.015  14.598  0.3347 -0.0913 -0.0204
  603TIP3    H123300   5.666   1.951  14.667  0.7977  1.2036  1.0907
  603TIP3    H223301   5.574   2.066  14.629  1.4119  1.4103  0.2283
  604TIP3   OH223302   1.580   0.998   5.272 -0.3505 -0.2560  0.1595
  604TIP3    H123303   1.492   0.986   5.308 -0.5037 -1.3011 -0.5283
  604TIP3    H223304   1.638   0.992   5.349 -0.8369 -0.0871  0.5433
  605TIP3   OH223305   5.387   2.574  16.655  0.1266 -0.3110 -0.4461
  605TIP3    H123306   5.425   2.547  16.739  0.5448 -0.8245 -0.7981
  605TIP3    H223307   5.420   2.510  16.593 -1.2977 -0.7370 -0.7677
  606TIP3   OH223308   0.949   4.419   0.544  0.7811  0.5972  0.1578
  606TIP3    H123309   0.945   4.441   0.451  0.4896 -1.3953 -0.3198
  606TIP3    H223310   1.016   4.478   0.580 -0.2310  2.4867 -0.9714
  607TIP3   OH223311   3.107   0.334  16.375  0.5831 -0.3615  0.5343
  607TIP3    H123312   3.166   0.356  16.446  0.5207  0.0002  0.4791
  607TIP3    H223313   3.056   0.414  16.361 -0.4924 -0.9347  1.1441
  608TIP3   OH223314   3.166   3.764   0.910  0.4280 -0.3659  0.1320
  608TIP3    H123315   3.141   3.674   0.889 -1.4395  0.8269 -3.1164
  608TIP3    H223316   3.084   3.814   0.903  1.7387  1.8488  0.2459
  609TIP3   OH223317   1.231   2.118  17.035  0.4303 -0.2574 -0.5822
  609TIP3    H123318   1.275   2.146  17.116  0.6684 -0.6052 -0.5910
  609TIP3    H223319   1.144   2.158  17.041  0.9623  0.9558 -0.8651
  610TIP3   OH223320   0.744   1.130   6.742 -0.1576  0.1465  0.2208
  610TIP3    H123321   0.777   1.145   6.653 -0.8983 -0.8446 -0.2385
  610TIP3    H223322   0.745   1.216   6.783 -1.9342  1.0235 -1.4915
  611TIP3   OH223323   2.581   5.184   1.876 -0.2267  0.2868 -0.1129
  611TIP3    H123324   2.502   5.138   1.848  1.5374 -3.6127  0.9370
  611TIP3    H223325   2.629   5.202   1.795 -0.3398 -0.9838 -0.4831
  612TIP3   OH223326   2.323   6.358   2.443  0.0393  0.1331 -0.0839
  612TIP3    H123327   2.418   6.352   2.434  0.2262  1.0655  1.1228
  612TIP3    H223328   2.299   6.278   2.491 -0.0090 -0.9420 -1.8626
  613TIP3   OH223329   1.003   2.300   3.550  1.1463 -0.6609 -0.2146
  613TIP3    H123330   1.082   2.248   3.534  1.3052 -0.8764  1.1744
  613TIP3    H223331   1.020   2.343   3.634 -0.8120 -1.8956  0.8500
  614TIP3   OH223332   4.190   4.117  17.161  0.6103  0.1005 -0.4651
  614TIP3    H123333   4.138   4.101  17.240  1.5650  0.3512  0.2220
  614TIP3    H223334   4.228   4.204  17.176  1.1883 -0.0655 -0.9863
  615TIP3   OH223335   5.360   1.424   4.585 -0.0700 -0.6644 -0.5836
  615TIP3    H123336   5.420   1.451   4.654  0.7997 -3.4656 -0.1934
  615TIP3    H223337   5.282   1.392   4.632 -1.4772  1.9042 -1.0615
  616TIP3   OH223338   2.406   1.215   1.989  0.2583  0.3192  0.3025
  616TIP3    H123339   2.480   1.275   1.999  1.0603 -0.6263  0.1317
  616TIP3    H223340   2.405   1.165   2.071  1.1383 -1.1235 -0.5392
  617TIP3   OH223341   6.462   2.659  13.405  0.5554  0.3004  0.7789
  617TIP3    H123342   6.378   2.650  13.359  0.5736  1.0051  0.6005
  617TIP3    H223343   6.488   2.569  13.426  0.3108  0.0053 -0.1631
  618TIP3   OH223344   4.825   4.247   0.170  0.0443  0.0664  0.1973
  618TIP3    H123345   4.768   4.190   0.222 -0.8331  0.8908  0.1586
  618TIP3    H223346   4.907   4.250   0.220 -0.8940  1.1021  1.7450
  619TIP3   OH223347   5.524   3.474   0.404 -0.2934  0.4067  0.0860
  619TIP3    H123348   5.547   3.406   0.468  0.1535 -0.1131 -0.6195
  619TIP3    H223349   5.550   3.556   0.446 -1.8048  0.2593  1.3925
  620TIP3   OH223350   6.624   3.839   4.033 -0.3446  0.3037  0.4793
  620TIP3    H123351   6.640   3.829   4.127 -0.2781  0.2290  0.4601
  620TIP3    H223352   6.711   3.845   3.995 -0.3921  3.9508  0.7938
  621TIP3   OH223353   4.003   0.832   0.437 -0.2260 -0.2120 -0.0305
  621TIP3    H123354   4.031   0.923   0.441  0.7180 -0.5046  0.1029
  621TIP3    H223355   4.061   0.791   0.373 -0.4935 -0.7676  0.0780
  622TIP3   OH223356   5.532   5.419  14.015 -0.2526 -0.2010  0.7298
  622TIP3    H123357   5.556   5.483  14.082 -2.0023  0.0585  1.1372
  622TIP3    H223358   5.534   5.468  13.933 -1.7334  0.4350  1.0576
  623TIP3   OH223359   1.277   0.978  14.876  0.4995 -0.2474  0.0579
  623TIP3    H123360   1.371   0.995  14.863  0.7415 -1.0926  0.7128
  623TIP3    H223361   1.238   1.065  14.880  1.2889  0.1153  0.0259
  624TIP3   OH223362   6.330   5.637   0.483  0.5947  0.0970  0.4872
  624TIP3    H123363   6.336   5.616   0.576 -1.3302 -0.7496  0.4618
  624TIP3    H223364   6.401   5.588   0.443  1.3673  0.3789  1.5057
  625TIP3   OH223365   6.027   5.045   5.645  0.0206  0.7048 -0.1578
  625TIP3    H123366   5.961   5.019   5.709 -0.7473  0.8932 -0.8547
  625TIP3    H223367   6.110   5.021   5.685 -0.4708  0.4379  0.7264
  626TIP3   OH223368   0.431   4.235   6.166 -0.1379 -0.0498 -0.1617
  626TIP3    H123369   0.360   4.281   6.121  1.0374  1.4434 -0.5692
  626TIP3    H223370   0.388   4.165   6.215 -1.4174 -2.1962 -4.1286
  627TIP3   OH223371   2.807   5.382   2.291  0.2995 -0.5253  0.0365
  627TIP3    H123372   2.722   5.426   2.299  0.2772 -0.0084 -2.5465
  627TIP3    H223373   2.840   5.378   2.380 -0.5907  2.9816  0.6123
  628TIP3   OH223374   0.527   2.464  13.925  0.1147  0.3230 -0.1249
  628TIP3    H123375   0.498   2.432  13.839  0.0292  0.3071 -0.0899
  628TIP3    H223376   0.453   2.445  13.983  0.0956  0.5096 -0.0886
  629TIP3   OH223377   3.179   3.851   1.177 -1.0669  0.2222 -0.0735
  629TIP3    H123378   3.263   3.807   1.167 -1.1522  0.0131  0.1338
  629TIP3    H223379   3.141   3.814   1.256 -1.3193  0.3754 -0.1201
  630TIP3   OH223380   5.088   1.246   2.007  0.3860  0.4602 -0.4327
  630TIP3    H123381   5.075   1.231   2.101 -2.4801 -3.8372 -1.3973
  630TIP3    H223382   5.176   1.212   1.990  1.1696  1.8419  0.7966
  631TIP3   OH223383   0.215   4.677  16.209 -0.1294  0.1195 -0.1559
  631TIP3    H123384   0.139   4.723  16.244  0.2237  0.1273  0.6257
  631TIP3    H223385   0.182   4.629  16.134 -0.8762  0.2351  0.0933
  632TIP3   OH223386   1.354   1.876  13.517 -0.0743 -0.0184  0.5661
  632TIP3    H123387   1.324   1.902  13.430 -2.4039 -0.0726  1.2920
  632TIP3    H223388   1.372   1.783  13.510  0.9099  0.2265 -0.1543
  633TIP3   OH223389   1.182   3.743  12.321 -0.4265 -0.1158  0.0206
  633TIP3    H123390   1.254   3.782  12.370 -0.4353  0.5029 -0.4497
  633TIP3    H223391   1.179   3.652  12.350  0.2618 -0.0279  0.3618
  634TIP3   OH223392   6.148   0.713  10.295 -0.3473 -0.0373 -0.3678
  634TIP3    H123393   6.069   0.660  10.309  0.6275 -0.7911  2.7491
  634TIP3    H223394   6.195   0.669  10.225 -0.9667 -1.6201  0.1985
  635TIP3   OH223395   2.853   0.708  16.280 -0.3016 -0.0033  0.5851
  635TIP3    H123396   2.837   0.629  16.228 -0.6972  0.8043 -0.5197
  635TIP3    H223397   2.895   0.675  16.360 -1.5100 -1.4534  0.6514
  636TIP3   OH223398   0.392   2.265  12.806 -0.4049  0.4677 -0.1870
  636TIP3    H123399   0.402   2.348  12.759 -0.4626  1.3643  1.3357
  636TIP3    H223400   0.472   2.256  12.857 -0.0530 -0.8302 -0.9462
  637TIP3   OH223401   1.137   4.668   4.799  0.0492 -0.6859 -0.1248
  637TIP3    H123402   1.107   4.755   4.774 -0.4316 -1.0672 -0.8682
  637TIP3    H223403   1.229   4.681   4.823  0.7628 -0.4343 -2.8185
  638TIP3   OH223404   6.351   4.016  11.678 -0.9792  0.1712  0.1405
  638TIP3    H123405   6.279   4.061  11.721  0.6599  1.3286  1.7977
  638TIP3    H223406   6.411   3.993  11.749  0.4057 -0.5347 -1.2101
  639TIP3   OH223407   0.141   5.581   6.650 -0.4821  0.1161 -0.2348
  639TIP3    H123408   0.152   5.674   6.628 -0.0922  0.1549  0.0942
  639TIP3    H223409   0.168   5.534   6.571 -0.1682  0.2758 -0.2263
  640TIP3   OH223410   0.308   1.709   2.820 -0.1286 -0.0477 -0.1169
  640TIP3    H123411   0.245   1.721   2.892  0.6118  1.8202  0.2493
  640TIP3    H223412   0.391   1.741   2.855  0.8720 -1.6909 -0.8955
  641TIP3   OH223413   5.515   0.862  16.739 -0.3095 -0.6854 -0.0146
  641TIP3    H123414   5.594   0.812  16.718 -0.7125 -1.9551  1.3926
  641TIP3    H223415   5.468   0.868  16.656  0.1793 -1.8943 -0.3991
  642TIP3   OH223416   0.652   3.683   5.917  0.6875  0.5036 -0.5385
  642TIP3    H123417   0.605   3.741   5.977  0.6521  0.9360 -0.9883
  642TIP3    H223418   0.734   3.663   5.963  0.7986  1.0885 -0.4872
  643TIP3   OH223419   5.653   6.161   2.787  0.8512 -0.1719  0.0700
  643TIP3    H123420   5.684   6.252   2.789  0.7386 -0.1430  0.4683
  643TIP3    H223421   5.657   6.132   2.878 -2.1521  0.4485  0.4539
  644TIP3   OH223422   1.208   6.271   0.519  0.2384 -0.4868 -0.1383
  644TIP3    H123423   1.259   6.239   0.445 -0.3539 -0.8115 -0.4117
  644TIP3    H223424   1.150   6.337   0.481  1.0451  0.5042  0.3184
  645TIP3   OH223425   1.627   3.230   1.906  0.3852  0.0995 -0.6478
  645TIP3    H123426   1.612   3.325   1.902  0.6126  0.0968 -1.5058
  645TIP3    H223427   1.697   3.214   1.843 -0.0298 -0.7246 -0.9054
  646TIP3   OH223428   1.689   3.005   1.297 -0.2240  0.5371  0.4127
  646TIP3    H123429   1.679   2.966   1.210  0.8571  1.1968 -0.0225
  646TIP3    H223430   1.639   2.948   1.355 -0.8127 -0.0081 -0.6176
  647TIP3   OH223431   6.572   3.529  14.515  0.4980  0.5101 -0.1562
  647TIP3    H123432   6.598   3.491  14.431 -0.4696  0.4860 -0.4432
  647TIP3    H223433   6.655   3.553  14.556  1.1375 -1.9298  0.0521
  648TIP3   OH223434   1.233   2.647   4.090 -0.2341 -0.0930 -0.0978
  648TIP3    H123435   1.154   2.696   4.068 -0.3804 -0.5860 -0.6653
  648TIP3    H223436   1.303   2.713   4.089 -0.5202  0.2089 -0.2877
  649TIP3   OH223437   3.236   6.058   1.665 -0.2999 -0.0070 -0.4584
  649TIP3    H123438   3.300   6.128   1.680  0.5799 -0.5837 -1.3947
  649TIP3    H223439   3.216   6.024   1.752  1.3584 -0.4024 -0.2123
  650TIP3   OH223440   5.338   6.200  15.991 -0.3801 -0.3089 -0.8322
  650TIP3    H123441   5.389   6.278  16.013  0.8641 -0.6608 -2.3775
  650TIP3    H223442   5.403   6.137  15.960 -1.4757 -1.6741 -0.4158
  651TIP3   OH223443   4.806   2.448  14.722  0.0752 -0.4901 -0.1876
  651TIP3    H123444   4.734   2.391  14.696 -0.3794 -0.6514  1.4093
  651TIP3    H223445   4.767   2.510  14.783  0.8603  0.7015 -0.8810
  652TIP3   OH223446   5.105   3.967  12.970 -0.6496 -0.6688 -0.3414
  652TIP3    H123447   5.073   4.035  12.911  0.7592  1.9853  1.8464
  652TIP3    H223448   5.047   3.972  13.046  2.4347  1.6448  2.0164
  653TIP3   OH223449   4.863   5.328  15.507  0.0236  0.3501  0.3523
  653TIP3    H123450   4.866   5.254  15.446  1.7849 -0.2445  1.1557
  653TIP3    H223451   4.858   5.405  15.450  1.2025 -0.2237 -0.5342
  654TIP3   OH223452   2.194   2.820   5.548  0.0938  0.0822  0.0854
  654TIP3    H123453   2.099   2.818   5.535  0.1029 -1.0461  0.1271
  654TIP3    H223454   2.223   2.732   5.523  1.3144  0.8536 -1.2730
  655TIP3   OH223455   2.761   0.573  15.614  0.1831  0.4128  0.5320
  655TIP3    H123456   2.684   0.622  15.585  1.4930  1.0185 -2.1219
  655TIP3    H223457   2.824   0.583  15.542  2.5801 -0.4173  2.4536
  656TIP3   OH223458   3.235   4.241  15.398  0.2936 -0.3167 -0.2666
  656TIP3    H123459   3.294   4.202  15.463  1.3771  0.2688 -0.9024
  656TIP3    H223460   3.222   4.331  15.428  0.4824 -0.1629 -0.6504
  657TIP3   OH223461   2.628   5.713   4.299 -0.2107  0.1163 -0.1294
  657TIP3    H123462   2.534   5.723   4.289 -0.0746  1.0594 -0.5579
  657TIP3    H223463   2.660   5.699   4.210  0.1782  1.0066 -0.1419
  658TIP3   OH223464   6.048   3.124   2.483 -0.3519  0.1322  0.1734
  658TIP3    H123465   6.078   3.214   2.475 -1.4700  0.4105 -1.0095
  658TIP3    H223466   5.986   3.112   2.411 -0.8987 -1.2985  0.8492
  659TIP3   OH223467   1.352   3.365  13.491  0.0754  0.2480 -0.3161
  659TIP3    H123468   1.281   3.302  13.494 -0.2983  0.6365 -0.9780
  659TIP3    H223469   1.309   3.450  13.480  0.5513  0.6736  0.9488
  660TIP3   OH223470   4.407   3.946  14.487 -0.6841 -0.1241 -0.2159
  660TIP3    H123471   4.362   3.916  14.566 -0.6654 -0.7167 -0.4225
  660TIP3    H223472   4.356   3.908  14.415 -0.5433  0.1862 -0.4837
  661TIP3   OH223473   3.838   2.516  14.152  0.6665  0.0322  0.0693
  661TIP3    H123474   3.831   2.432  14.196  0.8861 -0.5357 -0.9677
  661TIP3    H223475   3.930   2.521  14.124  0.7107  0.7135  0.3104
  662TIP3   OH223476   5.594   1.605   5.193 -0.0900  0.1500 -0.8654
  662TIP3    H123477   5.597   1.626   5.287 -0.2788 -1.0706 -0.5754
  662TIP3    H223478   5.500   1.601   5.173 -0.1562 -3.2867 -0.2181
  663TIP3   OH223479   6.602   0.987   1.148 -0.3713  0.1103  0.1847
  663TIP3    H123480   6.623   0.897   1.175  1.9741  0.7575  0.5938
  663TIP3    H223481   6.634   1.042   1.220 -1.7800  1.2964 -0.0685
  664TIP3   OH223482   1.893   6.470  14.628 -0.3481 -0.0917  0.0157
  664TIP3    H123483   1.953   6.433  14.693  0.7826  2.3011  0.4065
  664TIP3    H223484   1.816   6.498  14.678 -0.3806 -0.1709  0.0085
  665TIP3   OH223485   4.920   6.183  11.299 -0.1055  0.0094  0.3386
  665TIP3    H123486   4.960   6.266  11.273 -1.4483  0.0987 -1.5256
  665TIP3    H223487   4.979   6.149  11.367  1.6151  1.4377 -0.3861
  666TIP3   OH223488   4.090   5.421   2.159  0.9582  1.1204 -0.5209
  666TIP3    H123489   4.146   5.494   2.186 -1.2599  1.7687  2.5386
  666TIP3    H223490   4.069   5.375   2.241  0.8171 -1.8689 -2.1773
  667TIP3   OH223491   6.583   1.398  12.552  0.1248 -0.6493  0.1228
  667TIP3    H123492   6.654   1.343  12.521  1.0783  1.3898 -1.4179
  667TIP3    H223493   6.534   1.421  12.473  0.5240  1.7538  0.5237
  668TIP3   OH223494   6.680   4.869  14.085  0.0254 -0.1306  0.2379
  668TIP3    H123495   6.591   4.835  14.084 -0.3318  0.8002 -1.1176
  668TIP3    H223496   6.711   4.853  14.174 -0.4744 -3.0419 -0.0711
  669TIP3   OH223497   6.562   3.401  14.891  0.1144 -0.2535  0.1838
  669TIP3    H123498   6.466   3.401  14.888  0.1569  0.2132 -1.7464
  669TIP3    H223499   6.587   3.320  14.847  0.6315  0.5506 -1.0176
  670TIP3   OH223500   2.730   6.423  16.878  0.0597 -0.1002 -0.1215
  670TIP3    H123501   2.698   6.372  16.952 -0.6669  1.0312  0.3650
  670TIP3    H223502   2.760   6.358  16.814 -2.4966 -1.1935 -0.2718
  671TIP3   OH223503   1.570   0.231   5.327  0.0781 -0.0312  0.4457
  671TIP3    H123504   1.592   0.315   5.366  1.4684 -0.4624  0.6093
  671TIP3    H223505   1.535   0.253   5.241  2.5353  0.6080 -0.4185
  672TIP3   OH223506   3.053   0.632   3.001  0.3936 -0.2189 -0.1314
  672TIP3    H123507   2.964   0.635   3.036  0.6686 -1.1095  0.6789
  672TIP3    H223508   3.074   0.723   2.980  0.0993  0.2973  1.7356
  673TIP3   OH223509   3.770   1.647   6.059  0.4098 -0.2625  0.0344
  673TIP3    H123510   3.828   1.609   5.993  0.0786 -1.6724  0.5524
  673TIP3    H223511   3.810   1.624   6.143 -0.2219 -0.1491  0.3703
  674TIP3   OH223512   4.251   6.112   0.073  0.0554 -0.1700 -0.2135
  674TIP3    H123513   4.316   6.106   0.003  0.0517  0.1033 -0.2416
  674TIP3    H223514   4.170   6.079   0.034  0.2413 -0.7714 -0.0939
  675TIP3   OH223515   6.496   2.212  11.248  0.2028 -0.2660 -0.9083
  675TIP3    H123516   6.486   2.119  11.270 -0.7050 -0.0082 -0.1987
  675TIP3    H223517   6.440   2.257  11.311 -0.2916  0.6832 -2.0222
  676TIP3   OH223518   5.954   1.822   2.692 -0.0774 -0.5444  0.1244
  676TIP3    H123519   5.895   1.894   2.670 -0.8564 -0.6285  1.7960
  676TIP3    H223520   6.021   1.824   2.624 -0.9285  0.7961 -0.7070
  677TIP3   OH223521   1.951   6.142  16.506 -0.4771 -0.2606 -0.0831
  677TIP3    H123522   1.859   6.120  16.498 -0.7688  1.0812 -0.5914
  677TIP3    H223523   1.954   6.237  16.498  1.0636 -0.3822 -1.3782
  678TIP3   OH223524   5.643   4.742   6.186 -0.3625 -0.1855 -0.1032
  678TIP3    H123525   5.635   4.742   6.091  0.5920  0.6382 -0.1950
  678TIP3    H223526   5.571   4.688   6.217 -1.6226  0.8341 -1.2235
  679TIP3   OH223527   6.103   6.028  13.768  0.1979  0.5066 -0.1871
  679TIP3    H123528   6.125   5.953  13.823 -1.5699  0.8326  1.0414
  679TIP3    H223529   6.090   6.099  13.830  0.0096  1.3569 -1.1931
  680TIP3   OH223530   4.102   5.050   3.915  0.7392  0.3346  0.4356
  680TIP3    H123531   4.159   5.073   3.988 -0.2910 -2.0849  2.0746
  680TIP3    H223532   4.062   5.133   3.888  2.8717  1.6112  1.0719
  681TIP3   OH223533   0.392   1.594   3.361  0.1945  0.4848  0.4687
  681TIP3    H123534   0.318   1.537   3.383 -1.0458  2.0901  0.5262
  681TIP3    H223535   0.433   1.551   3.285 -2.3913  0.9180 -1.2514
  682TIP3   OH223536   0.954   5.272   0.383 -0.0800 -0.9017 -0.0538
  682TIP3    H123537   0.960   5.232   0.470 -0.6978  1.7216  1.2676
  682TIP3    H223538   1.044   5.275   0.352  0.5343  0.7454  1.7742
  683TIP3   OH223539   3.033   3.663   3.679 -0.3496 -0.2865  0.4474
  683TIP3    H123540   3.057   3.588   3.626  1.0007 -0.8056  1.7747
  683TIP3    H223541   3.025   3.735   3.616  0.7513 -0.9997 -0.5295
  684TIP3   OH223542   4.621   4.640  10.213 -0.6508 -0.6483  0.0531
  684TIP3    H123543   4.600   4.715  10.267  0.5832  0.7331 -1.3149
  684TIP3    H223544   4.552   4.637  10.146  0.5062  0.6569 -1.2361
  685TIP3   OH223545   2.053   2.336  11.189  0.2150  0.1581  0.3095
  685TIP3    H123546   2.088   2.422  11.165 -1.6294  0.6211 -0.8210
  685TIP3    H223547   1.962   2.354  11.216 -0.2033 -1.4346  0.0258
  686TIP3   OH223548   3.619   2.026   4.476  0.5950  0.1858 -0.0448
  686TIP3    H123549   3.679   2.098   4.455  0.3721  0.5582  0.5939
  686TIP3    H223550   3.577   2.052   4.558 -1.1388  0.3643 -0.9630
  687TIP3   OH223551   3.316   5.633   4.519 -0.4044  0.1682  0.4463
  687TIP3    H123552   3.382   5.605   4.582  0.9870  0.7705 -0.7046
  687TIP3    H223553   3.249   5.676   4.572  0.2279 -0.2801  1.6237
  688TIP3   OH223554   6.764   5.868  15.856  0.7897 -0.2942  0.6495
  688TIP3    H123555   6.699   5.935  15.880  0.0798 -1.3543  1.7391
  688TIP3    H223556   6.712   5.798  15.817  1.4941 -0.3671 -0.1617
  689TIP3   OH223557   6.677   3.820   3.039 -0.2966 -0.1770  0.7484
  689TIP3    H123558   6.701   3.906   3.004  0.4912 -0.3834  0.7766
  689TIP3    H223559   6.599   3.836   3.092 -0.0317  0.5518  0.9147
  690TIP3   OH223560   3.234   5.039   2.676  0.4725 -0.4210  0.3369
  690TIP3    H123561   3.271   4.979   2.742  1.3145  0.0317  0.2922
  690TIP3    H223562   3.249   5.126   2.713 -1.6604 -0.2595  0.8739
  691TIP3   OH223563   6.264   3.186  12.971  0.1387 -0.1372  0.2440
  691TIP3    H123564   6.319   3.158  12.898 -2.5308 -0.9682 -1.4933
  691TIP3    H223565   6.278   3.119  13.038  0.9401 -0.5435 -0.3217
  692TIP3   OH223566   5.457   1.977  15.630 -0.2089 -0.0006 -0.0813
  692TIP3    H123567   5.468   2.038  15.703  0.7688 -0.4342  0.1434
  692TIP3    H223568   5.394   1.912  15.662 -0.1169  0.0575  0.2204
  693TIP3   OH223569   5.464   1.287   4.392  0.2160  0.9936 -0.6054
  693TIP3    H123570   5.421   1.345   4.455  1.0045  0.8677  0.0638
  693TIP3    H223571   5.552   1.323   4.383  0.7978 -0.2394  0.0162
  694TIP3   OH223572   3.693   6.079   0.245 -0.1915 -0.9015  0.0569
  694TIP3    H123573   3.656   6.149   0.191  0.5779 -0.6388 -0.1357
  694TIP3    H223574   3.630   6.007   0.237 -2.1401  0.5136  2.0607
  695TIP3   OH223575   1.957   2.233  14.089  0.2550 -0.0162  0.4994
  695TIP3    H123576   1.984   2.267  14.004  1.1010 -0.2114  0.6826
  695TIP3    H223577   2.039   2.202  14.129 -0.3935 -1.5784  0.6356
  696TIP3   OH223578   4.813   5.024  17.152  0.0107 -0.1495 -0.4910
  696TIP3    H123579   4.837   4.989  17.066 -1.6105 -2.8803  0.1163
  696TIP3    H223580   4.752   5.096  17.132  0.5733  0.0202 -1.6470
  697TIP3   OH223581   5.950   5.096  16.116  0.3044  0.6025  0.3874
  697TIP3    H123582   5.906   5.052  16.188  0.6681 -0.6670 -0.1441
  697TIP3    H223583   5.947   5.033  16.044  0.5237  1.5906 -0.5075
  698TIP3   OH223584   2.597   2.802   3.736  0.3985 -0.1533  0.6361
  698TIP3    H123585   2.606   2.848   3.819 -1.1775 -2.5535  2.2058
  698TIP3    H223586   2.515   2.835   3.699  0.6223  0.2276  0.4757
  699TIP3   OH223587   2.721   1.245  10.899 -0.3311  0.1093 -0.0773
  699TIP3    H123588   2.695   1.177  10.837  2.0064 -0.1903 -0.7682
  699TIP3    H223589   2.650   1.309  10.896 -1.8819 -1.5763 -0.4885
  700TIP3   OH223590   0.429   0.074   3.321  0.2234  0.8556  0.0075
  700TIP3    H123591   0.388   0.036   3.398 -0.2347  0.6948 -0.3096
  700TIP3    H223592   0.356   0.090   3.261  0.8248 -1.3547 -1.3824
  701TIP3   OH223593   0.563   0.135  17.027  0.4905  0.0295  0.5115
  701TIP3    H123594   0.566   0.120  17.121 -1.9713 -1.5090  0.3752
  701TIP3    H223595   0.601   0.056  16.988 -1.5145 -0.7815  0.1455
  702TIP3   OH223596   1.306   1.125   3.876 -0.1994  0.1427 -0.0612
  702TIP3    H123597   1.235   1.073   3.837  0.4669 -1.9405  1.3914
  702TIP3    H223598   1.386   1.078   3.854  0.4684  0.8235  0.8457
  703TIP3   OH223599   0.613   6.549  15.634  0.3657  0.4515  0.3644
  703TIP3    H123600   0.581   6.459  15.626 -0.5014  0.7480  0.4747
  703TIP3    H223601   0.538   6.603  15.612  0.3317  1.1852  2.1640
  704TIP3   OH223602   3.289   1.307  16.283  0.1701 -0.1271 -0.5688
  704TIP3    H123603   3.306   1.388  16.331 -0.0936  0.5311 -1.5663
  704TIP3    H223604   3.198   1.313  16.256  0.8042  0.4011 -2.7445
  705TIP3   OH223605   2.803   0.961   2.683  0.3392 -0.5579  0.5589
  705TIP3    H123606   2.719   0.914   2.677 -1.2667  2.2275  0.3399
  705TIP3    H223607   2.799   1.007   2.767  1.5539 -0.2088  0.4389
  706TIP3   OH223608   3.386   2.742   5.948 -0.3147 -0.0572  0.4328
  706TIP3    H123609   3.412   2.707   6.033 -2.0010  2.3927  2.0493
  706TIP3    H223610   3.416   2.833   5.950 -3.9882  1.2333  0.1459
  707TIP3   OH223611   5.289   3.692   4.588  0.4420  0.1570 -0.2303
  707TIP3    H123612   5.293   3.632   4.663  1.0177 -0.6293 -0.8861
  707TIP3    H223613   5.294   3.635   4.511  0.4758  1.0090 -0.8674
  708TIP3   OH223614   5.573   1.594   2.834  0.2141 -0.1983 -0.4590
  708TIP3    H123615   5.504   1.597   2.900  0.2607 -2.9610 -0.2231
  708TIP3    H223616   5.649   1.559   2.880  0.9140  0.0574 -1.4152
  709TIP3   OH223617   5.398   0.276   4.077 -0.0320  0.2494  0.2623
  709TIP3    H123618   5.455   0.345   4.111  1.0538 -0.0265 -0.9711
  709TIP3    H223619   5.457   0.208   4.047 -1.0531 -0.5576  0.0358
  710TIP3   OH223620   4.755   3.290   0.749  0.0824 -0.1951 -0.2365
  710TIP3    H123621   4.711   3.360   0.701  0.0630 -0.5572 -0.7492
  710TIP3    H223622   4.842   3.326   0.768  0.4024 -0.3843 -1.3250
  711TIP3   OH223623   3.765   4.992  14.758  0.2171  0.1820 -0.1998
  711TIP3    H123624   3.725   5.058  14.701 -0.3376  0.2269  0.2340
  711TIP3    H223625   3.690   4.946  14.797  0.5727  0.6178  1.0393
  712TIP3   OH223626   4.104   4.096   5.504 -0.0237  0.2517 -0.6918
  712TIP3    H123627   4.061   4.158   5.563  0.3678 -0.8560  0.7858
  712TIP3    H223628   4.055   4.103   5.422  0.7232  3.3707 -0.9438
  713TIP3   OH223629   5.896   6.798   3.442  0.0849 -0.6280  0.2188
  713TIP3    H123630   5.924   6.873   3.389  0.6330 -0.8518  0.1821
  713TIP3    H223631   5.833   6.834   3.504  0.1325 -0.1903  0.0132
  714TIP3   OH223632   2.505   5.214  10.897  0.3103  0.1866  0.3128
  714TIP3    H123633   2.530   5.215  10.805  0.2389 -0.5803  0.2872
  714TIP3    H223634   2.409   5.210  10.896  0.0995  3.4852  0.4070
  715TIP3   OH223635   6.089   2.496  14.141 -0.0912 -0.3706  0.4321
  715TIP3    H123636   5.995   2.494  14.156 -0.2368  0.0217 -0.4089
  715TIP3    H223637   6.110   2.590  14.133  0.6104 -0.3625  2.1027
  716TIP3   OH223638   4.525   5.425  14.366  0.0780  0.0602 -0.3834
  716TIP3    H123639   4.558   5.446  14.279  1.0091 -0.2844 -0.1153
  716TIP3    H223640   4.497   5.333  14.360 -1.1588  0.4450 -0.7019
  717TIP3   OH223641   0.092   4.908  15.695 -0.0312 -0.4972  0.1728
  717TIP3    H123642   0.063   4.945  15.612 -0.8974 -0.2352  0.5860
  717TIP3    H223643   0.064   4.816  15.691  0.1562 -0.5491  0.0656
  718TIP3   OH223644   5.261   1.245   4.190 -0.0511 -0.0725  0.0565
  718TIP3    H123645   5.300   1.229   4.276  0.6264  0.0197 -0.2323
  718TIP3    H223646   5.282   1.167   4.139 -0.1896  0.0080 -0.1246
  719TIP3   OH223647   0.473   4.351  17.179  0.2740 -0.4478 -0.1762
  719TIP3    H123648   0.404   4.309  17.230 -0.1452  0.3091 -0.1124
  719TIP3    H223649   0.549   4.294  17.190  0.0715 -0.5045  0.9720
  720TIP3   OH223650   3.433   4.265   1.134  0.3633 -0.3961 -0.0158
  720TIP3    H123651   3.397   4.220   1.210 -2.1707  2.7295  0.7464
  720TIP3    H223652   3.387   4.227   1.059  0.4630 -1.1900  0.3309
  721TIP3   OH223653   1.502   4.532   1.103  0.0713  0.6829  0.1919
  721TIP3    H123654   1.408   4.513   1.112  0.2958 -1.0565 -0.8907
  721TIP3    H223655   1.524   4.501   1.015  1.6861  0.9674  0.4841
  722TIP3   OH223656   2.774   0.204   0.608 -0.1464 -0.0522  0.2564
  722TIP3    H123657   2.730   0.256   0.674 -0.5584  2.7516 -2.1164
  722TIP3    H223658   2.867   0.221   0.622 -0.3281  2.8515 -1.5872
  723TIP3   OH223659   1.602   6.637   0.185  0.1576 -0.2377 -0.4072
  723TIP3    H123660   1.509   6.657   0.178  0.3405  1.1081  0.6984
  723TIP3    H223661   1.605   6.543   0.203 -1.0604 -0.0703  0.8138
  724TIP3   OH223662   0.463   6.395  11.878 -0.5296 -0.2095 -0.1000
  724TIP3    H123663   0.474   6.423  11.788 -0.2667  0.1192  0.0321
  724TIP3    H223664   0.553   6.382  11.910 -0.6257 -0.4826  0.0620
  725TIP3   OH223665   5.961   4.463   0.041  0.0733 -0.1458 -0.5153
  725TIP3    H123666   5.869   4.485   0.056  0.5124  1.1414  0.3112
  725TIP3    H223667   6.005   4.547   0.035  1.0295 -0.7355 -2.1000
  726TIP3   OH223668   0.518   3.650   1.870  0.4449 -0.7640  0.2886
  726TIP3    H123669   0.433   3.670   1.909  1.3980  1.1137  1.4982
  726TIP3    H223670   0.528   3.712   1.799  0.5999 -1.2893 -0.1502
  727TIP3   OH223671   1.649   0.687  16.073 -0.1175 -0.3539  0.4198
  727TIP3    H123672   1.662   0.706  16.166 -0.9058  1.1539  0.2416
  727TIP3    H223673   1.562   0.646  16.070 -2.0271  3.4214 -0.0596
  728TIP3   OH223674   4.127   6.057  14.188  0.0450  0.3806 -0.2432
  728TIP3    H123675   4.183   6.022  14.257  0.6742  2.0184  0.1159
  728TIP3    H223676   4.106   5.982  14.133  0.4631 -0.7339  1.0886
  729TIP3   OH223677   3.544   4.634  12.149  0.2449 -0.3553 -0.1666
  729TIP3    H123678   3.523   4.559  12.094 -0.5146  0.8786 -1.6006
  729TIP3    H223679   3.585   4.697  12.089  0.2022  0.6688  0.8586
  730TIP3   OH223680   1.350   3.996   4.819 -0.2687 -0.1892  0.0123
  730TIP3    H123681   1.311   3.982   4.733 -1.4061 -0.9164  0.6419
  730TIP3    H223682   1.444   3.988   4.804 -0.5255 -1.4523 -0.9451
  731TIP3   OH223683   2.211   5.639   1.129  0.6875 -0.2642  0.2890
  731TIP3    H123684   2.134   5.610   1.178  2.7098  0.3325  3.9323
  731TIP3    H223685   2.210   5.734   1.137  0.8825 -0.1346 -1.1181
  732TIP3   OH223686   2.163   3.935   3.120  0.1719 -0.6319 -0.2193
  732TIP3    H123687   2.069   3.950   3.116  0.4406  1.7012  1.4301
  732TIP3    H223688   2.172   3.840   3.116 -2.4284 -1.0577  2.2837
  733TIP3   OH223689   2.726   5.871   2.259  0.2591 -0.7496  0.0459
  733TIP3    H123690   2.776   5.791   2.244 -0.0543 -0.3733 -3.2148
  733TIP3    H223691   2.634   5.844   2.254  0.0481 -0.9308  3.3270
  734TIP3   OH223692   3.576   4.629  14.615  0.1359 -0.0143 -0.1725
  734TIP3    H123693   3.547   4.660  14.700 -0.8185 -1.9607  0.2542
  734TIP3    H223694   3.670   4.648  14.613 -0.4093  2.7837  0.0472
  735TIP3   OH223695   3.903   1.317  15.850  0.6261  0.0775 -0.1300
  735TIP3    H123696   3.936   1.407  15.864 -2.1131  0.9088  1.2118
  735TIP3    H223697   3.865   1.320  15.762  1.1603  0.0110 -0.3706
  736TIP3   OH223698   4.792   1.048  10.979 -0.3624 -0.3125  0.0356
  736TIP3    H123699   4.850   1.075  10.907 -1.4111 -3.3365 -2.0029
  736TIP3    H223700   4.850   1.047  11.056  1.6162 -0.4151 -1.4054
  737TIP3   OH223701   3.077   0.670   0.590 -0.3731  0.3708  0.2518
  737TIP3    H123702   3.047   0.728   0.660 -0.8934  0.0834  0.2746
  737TIP3    H223703   3.164   0.641   0.617 -1.6011 -1.7765  2.0594
  738TIP3   OH223704   1.968   0.901   1.320  0.1478  0.5253 -0.2201
  738TIP3    H123705   1.875   0.886   1.339  0.2126  0.3638 -0.0307
  738TIP3    H223706   1.968   0.966   1.249 -0.0824  2.1110  1.2008
  739TIP3   OH223707   3.492   5.146   0.943  0.2381 -0.8899 -0.2574
  739TIP3    H123708   3.404   5.151   0.980  0.3675 -0.8974  0.0493
  739TIP3    H223709   3.546   5.107   1.012  1.1804  2.1591  0.8304
  740TIP3   OH223710   2.994   1.747   1.152  0.5235 -0.7542 -0.2585
  740TIP3    H123711   3.051   1.670   1.143  0.1733 -1.0252 -0.1418
  740TIP3    H223712   2.905   1.712   1.145  0.3327 -0.5137  0.9173
  741TIP3   OH223713   6.726   5.566  11.370 -0.5101 -0.0377  0.1792
  741TIP3    H123714   6.737   5.651  11.327 -1.4245  1.4128  2.7066
  741TIP3    H223715   6.675   5.514  11.308 -2.1350  2.1095 -0.3353
  742TIP3   OH223716   6.072   4.613   5.017 -0.6087 -0.5453 -0.1982
  742TIP3    H123717   6.141   4.653   5.070 -0.5442 -1.3026  0.2848
  742TIP3    H223718   6.010   4.576   5.080 -1.9849  0.9881 -0.6180
  743TIP3   OH223719   4.632   2.820  10.418  0.1399  0.0618 -0.1014
  743TIP3    H123720   4.674   2.744  10.378  0.3683 -0.4143  1.0057
  743TIP3    H223721   4.680   2.833  10.500 -2.4561 -1.0469  1.6525
  744TIP3   OH223722   0.532   0.608  14.685  0.0677  0.0900 -0.5059
  744TIP3    H123723   0.568   0.593  14.772 -2.3818  1.5792  0.8143
  744TIP3    H223724   0.468   0.539  14.672 -0.0225  0.2362 -0.8687
  745TIP3   OH223725   0.692   6.026  14.141 -0.2796 -0.2043 -0.0643
  745TIP3    H123726   0.779   6.065  14.130  0.2549 -1.1029  0.8756
  745TIP3    H223727   0.703   5.934  14.119 -1.1359 -0.1992 -0.5342
  746TIP3   OH223728   2.118   3.299  16.932 -0.1635  0.4444 -0.7293
  746TIP3    H123729   2.127   3.287  16.838 -0.6837 -3.0394 -0.4263
  746TIP3    H223730   2.039   3.249  16.955  0.5350  0.3580  1.6609
  747TIP3   OH223731   2.941   2.044  15.716  0.6534 -0.6968 -0.6495
  747TIP3    H123732   3.020   2.079  15.675  1.4763 -1.5372  0.2011
  747TIP3    H223733   2.923   2.104  15.789  0.5184 -0.5331 -0.8148
  748TIP3   OH223734   6.549   0.641  10.683 -0.2225 -0.2716 -0.3224
  748TIP3    H123735   6.549   0.728  10.644  0.8277 -0.5537 -0.9862
  748TIP3    H223736   6.637   0.607  10.665 -0.7518 -1.6262 -0.4228
  749TIP3   OH223737   4.847   0.364   3.130 -0.2966  0.0120  0.0889
  749TIP3    H123738   4.895   0.283   3.116  0.0891  0.4750 -1.3051
  749TIP3    H223739   4.773   0.339   3.185 -0.7036 -1.4551 -1.0960
  750TIP3   OH223740   4.276   1.664  13.638 -0.1975 -0.3505  0.0344
  750TIP3    H123741   4.190   1.666  13.681 -0.1648  0.4638  0.0650
  750TIP3    H223742   4.256   1.658  13.545 -0.2854 -0.3114  0.0499
  751TIP3   OH223743   0.414   0.630   4.089  0.4021 -0.1984 -0.0514
  751TIP3    H123744   0.493   0.651   4.139  0.5627  1.6292 -1.0520
  751TIP3    H223745   0.445   0.570   4.021  0.6755 -0.4912  0.3200
  752TIP3   OH223746   3.121   5.391  16.899  0.3019 -0.2045  0.3658
  752TIP3    H123747   3.032   5.354  16.906  0.1637 -0.1577 -1.0820
  752TIP3    H223748   3.162   5.342  16.828  0.9347  0.8041  0.0288
  753TIP3   OH223749   2.917   1.441  15.726 -0.1409 -0.0074  0.0015
  753TIP3    H123750   2.911   1.537  15.727  0.2201  0.0336 -0.9640
  753TIP3    H223751   3.005   1.423  15.759 -1.2770 -0.1474  3.1239
  754TIP3   OH223752   6.438   0.923  11.537  0.2296  0.0668  0.1279
  754TIP3    H123753   6.410   0.993  11.596 -1.6109 -0.0426 -0.5904
  754TIP3    H223754   6.377   0.928  11.464  0.5681 -1.7873 -0.2931
  755TIP3   OH223755   2.892   1.904   4.153 -0.1301  0.1121 -0.0507
  755TIP3    H123756   2.951   1.828   4.154 -0.0539  0.1486 -0.8792
  755TIP3    H223757   2.892   1.936   4.243 -0.1823 -0.8874  0.3081
  756TIP3   OH223758   5.739   1.940   1.919  0.0641 -0.0336  0.0537
  756TIP3    H123759   5.757   1.909   2.008 -3.7636 -0.4190  0.7577
  756TIP3    H223760   5.736   2.036   1.927 -1.2178 -0.1101  0.5479
  757TIP3   OH223761   0.091   3.807  13.765  0.5632  0.1957  0.7569
  757TIP3    H123762   0.089   3.773  13.854  1.0663 -1.0369  0.2977
  757TIP3    H223763   0.093   3.902  13.777 -2.4176  0.1474  1.9987
  758TIP3   OH223764   4.170   0.895  15.303 -0.0928  0.2484  0.7076
  758TIP3    H123765   4.149   0.836  15.375 -0.4998 -0.6255 -0.1196
  758TIP3    H223766   4.241   0.950  15.336  0.9656 -1.3527  1.1419
  759TIP3   OH223767   1.975   5.737  12.259  0.3894 -1.2764 -0.3385
  759TIP3    H123768   2.026   5.713  12.336 -0.2850 -1.3231  0.1006
  759TIP3    H223769   1.887   5.752  12.293  0.2445 -0.6358 -0.9991
  760TIP3   OH223770   2.343   2.837  13.361  0.4779 -0.6710  0.3190
  760TIP3    H123771   2.254   2.858  13.389  0.7221  0.8595  0.0119
  760TIP3    H223772   2.399   2.871  13.431  1.0356  2.2365 -1.4371
  761TIP3   OH223773   4.238   6.061   4.956  1.4028 -0.3860 -0.2770
  761TIP3    H123774   4.156   6.088   4.999  1.4515 -0.7784  0.0645
  761TIP3    H223775   4.307   6.099   5.011  1.4445  0.8649 -1.1675
  762TIP3   OH223776   5.370   4.398   0.402  0.1487 -0.1756 -0.2563
  762TIP3    H123777   5.384   4.456   0.327  0.0118 -2.1075 -1.8118
  762TIP3    H223778   5.357   4.457   0.476  1.7454  1.7560 -1.4802
  763TIP3   OH223779   2.111   4.829  15.018 -0.0779  0.0569 -0.4726
  763TIP3    H123780   2.079   4.883  15.091 -0.1913 -0.1311 -0.3847
  763TIP3    H223781   2.173   4.886  14.971 -1.5467  0.8915 -1.4306
  764TIP3   OH223782   6.683   2.568   0.545 -0.8081 -0.4531  0.0146
  764TIP3    H123783   6.685   2.492   0.487  0.6675 -0.6979  0.3548
  764TIP3    H223784   6.715   2.534   0.629 -0.9644  0.3571  0.4051
  765TIP3   OH223785   6.298   1.922   1.864 -0.1998  0.3405  0.2277
  765TIP3    H123786   6.273   1.846   1.812  1.7671  0.3539 -0.7838
  765TIP3    H223787   6.253   1.996   1.822  1.2753  0.3345 -1.4142
  766TIP3   OH223788   3.585   4.933   3.787 -0.6257 -0.3119  0.6012
  766TIP3    H123789   3.644   4.927   3.862  0.0127  0.5401  0.1744
  766TIP3    H223790   3.514   4.990   3.818  0.0606  0.7337  0.3057
  767TIP3   OH223791   4.891   5.064  13.758  0.2263 -0.1677 -0.3051
  767TIP3    H123792   4.892   5.038  13.666  0.2408 -0.5647 -0.1919
  767TIP3    H223793   4.915   4.985  13.806  1.7177  0.4078 -0.0534
  768TIP3   OH223794   2.233   3.556  12.649 -0.3451 -0.3622  0.5991
  768TIP3    H123795   2.290   3.564  12.726 -1.0456  1.8180  0.9304
  768TIP3    H223796   2.146   3.578  12.682 -0.8097 -0.3949 -0.6077
  769TIP3   OH223797   3.666   1.042  15.637 -0.1180  0.3500 -0.4523
  769TIP3    H123798   3.717   0.961  15.627  0.5706  0.7349 -0.1152
  769TIP3    H223799   3.607   1.024  15.710  1.2729  0.7569  0.8083
  770TIP3   OH223800   2.837   4.431  15.393 -0.5754  0.2068  0.4197
  770TIP3    H123801   2.868   4.347  15.358 -0.1526  1.1600 -1.6089
  770TIP3    H223802   2.903   4.457  15.457 -0.1168 -0.4770  0.2275
  771TIP3   OH223803   4.354   4.329   4.372  0.4825 -0.7501 -0.1544
  771TIP3    H123804   4.330   4.380   4.449 -1.7623  1.2307 -2.0523
  771TIP3    H223805   4.444   4.354   4.353  0.5554 -0.1291  0.9961
  772TIP3   OH223806   5.808   4.450   3.313 -0.0884  0.3397 -0.0110
  772TIP3    H123807   5.804   4.387   3.241  2.4718  0.5360 -0.3685
  772TIP3    H223808   5.805   4.535   3.270  0.2229  0.4591  0.2027
  773TIP3   OH223809   0.840   0.085  10.514 -0.6124  0.0318  0.0897
  773TIP3    H123810   0.834   0.000  10.471  3.0371 -0.3939  0.2580
  773TIP3    H223811   0.850   0.148  10.442  0.6742 -0.1524  0.0931
  774TIP3   OH223812   4.854   2.306  11.460 -0.2612  0.0133  0.0706
  774TIP3    H123813   4.786   2.241  11.442 -0.7117  0.3543  0.5464
  774TIP3    H223814   4.810   2.373  11.512  0.5724 -0.0323  0.8345
  775TIP3   OH223815   0.297   2.599  15.375  0.0092 -0.5724 -0.1489
  775TIP3    H123816   0.342   2.620  15.457  0.4024  0.1633 -0.5532
  775TIP3    H223817   0.279   2.505  15.382  1.0092 -0.7438  0.3107
  776TIP3   OH223818   5.801   3.845  12.961 -0.2698 -0.1025  0.1991
  776TIP3    H123819   5.737   3.914  12.943 -0.9123 -0.1853  2.0352
  776TIP3    H223820   5.757   3.765  12.932 -0.7888 -0.0869  0.9071
  777TIP3   OH223821   2.543   2.672  13.989  0.0432 -0.0062  0.6320
  777TIP3    H123822   2.610   2.734  14.018 -0.7478  1.0743  0.1367
  777TIP3    H223823   2.503   2.641  14.070  0.6328 -0.1045  0.8924
  778TIP3   OH223824   3.204   1.321  11.106 -0.5228  0.0341  0.2427
  778TIP3    H123825   3.276   1.292  11.162 -2.3420 -1.8696  1.6365
  778TIP3    H223826   3.229   1.410  11.080  2.4063 -0.6491  0.5259
  779TIP3   OH223827   2.532   4.577  11.906 -0.0094  0.1359 -0.2194
  779TIP3    H123828   2.584   4.516  11.854 -1.5344 -2.0478  0.7344
  779TIP3    H223829   2.509   4.528  11.985 -2.1896  1.5614  0.0757
  780TIP3   OH223830   1.249   2.801  16.513 -0.3592  0.3598  0.1082
  780TIP3    H123831   1.241   2.770  16.603  1.5403  2.0732  0.8945
  780TIP3    H223832   1.221   2.892  16.516 -0.4889  0.3693 -1.1057
  781TIP3   OH223833   5.824   6.505   0.576  0.1028 -0.0112  0.2979
  781TIP3    H123834   5.747   6.460   0.542  1.0353 -1.6094  0.2457
  781TIP3    H223835   5.844   6.460   0.658 -1.8588  3.5186  2.8499
  782TIP3   OH223836   1.599   4.552  12.845  0.4070  0.9329 -0.2460
  782TIP3    H123837   1.590   4.581  12.754 -0.5278  0.0836 -0.4466
  782TIP3    H223838   1.693   4.542  12.858  0.4680 -0.8023 -1.7538
  783TIP3   OH223839   0.457   0.579   5.781 -0.7197  0.4017 -0.4675
  783TIP3    H123840   0.506   0.497   5.781 -0.6952  0.4166 -0.3913
  783TIP3    H223841   0.380   0.560   5.835  0.0641  0.9015  0.8566
  784TIP3   OH223842   6.708   3.274  15.536 -0.1563  0.3841  0.3300
  784TIP3    H123843   6.648   3.326  15.588 -2.7299 -1.8491 -0.2904
  784TIP3    H223844   6.795   3.296  15.570 -1.6238 -0.0299  4.7009
  785TIP3   OH223845   6.773   1.971  16.751 -0.2721  0.3538 -0.2437
  785TIP3    H123846   6.787   2.062  16.725 -4.7111  1.4582  0.8711
  785TIP3    H223847   6.799   1.920  16.674  1.3376  2.5974 -1.2384
  786TIP3   OH223848   5.718   0.608   0.280 -0.1042 -0.5698  0.4046
  786TIP3    H123849   5.810   0.595   0.256 -0.6496 -2.0486 -0.9907
  786TIP3    H223850   5.679   0.521   0.273 -2.2710  0.5009 -1.9331
  787TIP3   OH223851   0.817   4.804  14.630  0.3741 -0.1386  0.7633
  787TIP3    H123852   0.799   4.834  14.719 -0.5549 -1.7614  1.1538
  787TIP3    H223853   0.736   4.822  14.582  0.2450 -0.8703  0.7000
  788TIP3   OH223854   4.229   1.334   0.196  0.4451  0.3970  0.4824
  788TIP3    H123855   4.254   1.271   0.264  0.1162 -1.0043 -0.6695
  788TIP3    H223856   4.134   1.324   0.188  0.5869 -0.0723 -0.7629
  789TIP3   OH223857   1.454   1.620   4.863  0.0718  0.2137  0.2177
  789TIP3    H123858   1.433   1.546   4.920 -1.2242 -0.0543 -0.5943
  789TIP3    H223859   1.485   1.580   4.782 -0.3631  0.5576 -0.1215
  790TIP3   OH223860   6.709   5.256   2.836 -0.3154 -0.0246 -0.5730
  790TIP3    H123861   6.760   5.296   2.766  1.7270 -0.5537  0.5813
  790TIP3    H223862   6.709   5.163   2.816  0.0935 -0.1524  0.0040
  791TIP3   OH223863   5.957   3.860  15.402 -0.2064 -0.3285  0.6893
  791TIP3    H123864   6.007   3.938  15.423 -0.5946 -0.4405  2.0955
  791TIP3    H223865   6.016   3.807  15.348  0.9479 -0.1663  1.7758
  792TIP3   OH223866   1.097   2.360  15.341 -0.0397  0.2167  0.0839
  792TIP3    H123867   1.160   2.328  15.407  0.0441 -0.9615 -0.5500
  792TIP3    H223868   1.061   2.281  15.302 -1.2489  0.9022 -0.2078
  793TIP3   OH223869   2.455   4.966  14.373 -0.0290  0.6359  0.2669
  793TIP3    H123870   2.382   4.904  14.373 -0.3728  1.0305  1.8415
  793TIP3    H223871   2.526   4.919  14.329 -0.6558 -0.4344  0.3788
  794TIP3   OH223872   1.985   6.465   1.463 -0.1729  0.2691  0.0815
  794TIP3    H123873   2.022   6.511   1.539  2.0523 -0.3328 -0.5867
  794TIP3    H223874   2.056   6.408   1.433 -1.6220 -0.7938 -1.3883
  795TIP3   OH223875   3.094   3.210   5.397  0.8656 -0.3643 -0.0270
  795TIP3    H123876   3.046   3.290   5.417  1.8939  0.1759  0.3029
  795TIP3    H223877   3.148   3.232   5.321  0.4202 -1.0361 -0.5418
  796TIP3   OH223878   2.977   0.923   5.038 -0.1307  0.2457  0.3427
  796TIP3    H123879   2.892   0.902   5.000 -0.6375  1.5904  0.7131
  796TIP3    H223880   2.973   1.017   5.056  1.3227  0.2630  0.6391
  797TIP3   OH223881   2.156   4.239  16.043 -0.4787 -0.0612  0.0087
  797TIP3    H123882   2.223   4.261  16.108  0.2299 -0.8126 -0.4588
  797TIP3    H223883   2.077   4.223  16.094 -0.5419  1.6785  0.5078
  798TIP3   OH223884   0.308   0.789   6.646 -0.0820  0.3254 -0.3175
  798TIP3    H123885   0.286   0.729   6.575  0.9846  0.0572 -0.4304
  798TIP3    H223886   0.386   0.834   6.615  0.4235  0.1596  0.7157
  799TIP3   OH223887   2.619   5.829   1.823 -0.1170  0.3864 -0.2584
  799TIP3    H123888   2.528   5.806   1.840 -0.6942  3.3102  0.9378
  799TIP3    H223889   2.666   5.745   1.823 -2.6793 -1.0875 -0.2063
  800TIP3   OH223890   4.009   2.409  15.132  0.2916  0.0428 -0.6813
  800TIP3    H123891   3.957   2.348  15.080  0.3059  0.8141 -1.6370
  800TIP3    H223892   4.099   2.397  15.101  0.6385 -1.0615  0.7405
  801TIP3   OH223893   5.543   2.053  12.668  0.1209 -0.1013 -0.2094
  801TIP3    H123894   5.615   2.114  12.681  0.9799 -0.6047 -2.3146
  801TIP3    H223895   5.465   2.101  12.696  0.9844  1.3320 -0.2097
  802TIP3   OH223896   1.582   1.441   3.086 -0.1602  0.1041 -0.3498
  802TIP3    H123897   1.636   1.395   3.150  0.6841 -0.0607 -1.1576
  802TIP3    H223898   1.536   1.508   3.137 -1.5046 -1.7148  0.8482
  803TIP3   OH223899   1.080   4.804  16.246 -0.4846 -0.0813  0.4119
  803TIP3    H123900   1.121   4.888  16.265 -2.3729  0.7230  1.0114
  803TIP3    H223901   1.153   4.747  16.223  1.0018  1.2724  1.6066
  804TIP3   OH223902   1.695   6.514   2.052  0.4174 -0.4821 -0.0865
  804TIP3    H123903   1.710   6.605   2.077 -1.3499  0.2583 -1.6444
  804TIP3    H223904   1.648   6.519   1.969  0.3701 -2.8230 -0.2388
  805TIP3   OH223905   0.593   0.516  13.617  0.3924  0.0567  0.0928
  805TIP3    H123906   0.671   0.529  13.671  0.3676 -0.3725  0.2360
  805TIP3    H223907   0.592   0.590  13.557  0.9460  0.0284  0.0476
  806TIP3   OH223908   2.975   5.395   3.428 -0.5084  0.1796  0.2108
  806TIP3    H123909   3.016   5.481   3.437 -0.9466  0.2500  1.8205
  806TIP3    H223910   3.019   5.341   3.495  0.7443 -1.2414 -1.7094
  807TIP3   OH223911   1.978   2.810  12.524 -0.0620 -0.3124 -0.2526
  807TIP3    H123912   2.054   2.781  12.474 -0.0225  1.1006 -1.0206
  807TIP3    H223913   1.919   2.847  12.458 -0.1307  1.3049  0.7145
  808TIP3   OH223914   2.707   5.315   4.073  0.3124  0.0318 -0.2355
  808TIP3    H123915   2.748   5.256   4.136  1.2873 -1.8925 -2.5766
  808TIP3    H223916   2.657   5.258   4.015  0.6140  1.5664 -2.0883
  809TIP3   OH223917   4.677   6.576  13.934  0.0254  0.0897  0.1666
  809TIP3    H123918   4.694   6.599  13.843 -0.0961 -0.2891  0.0486
  809TIP3    H223919   4.592   6.532  13.932  0.1129 -0.0885  0.4391
  810TIP3   OH223920   4.631   6.211  12.240  0.5052  0.5347  0.4622
  810TIP3    H123921   4.720   6.186  12.212  0.0147 -0.0972 -0.5656
  810TIP3    H223922   4.595   6.260  12.166  0.2613  1.4495  1.1786
  811TIP3   OH223923   6.325   2.176   2.106  0.2998 -0.9347  0.2004
  811TIP3    H123924   6.272   2.111   2.154  0.4325 -1.4639 -0.3640
  811TIP3    H223925   6.280   2.186   2.023  0.3555 -0.3954  0.2367
  812TIP3   OH223926   0.441   5.487  15.804  0.3662  0.1402  0.0028
  812TIP3    H123927   0.523   5.509  15.848  0.8780  0.6435 -1.1570
  812TIP3    H223928   0.459   5.503  15.711 -0.4650 -1.5060 -0.4667
  813TIP3   OH223929   1.292   5.610  12.899 -0.1347  0.4496 -0.2352
  813TIP3    H123930   1.239   5.665  12.957 -0.5597  0.8845 -1.0239
  813TIP3    H223931   1.228   5.556  12.853  0.3464 -1.4739  1.3019
  814TIP3   OH223932   6.665   6.625  15.585  0.1509 -0.2441  0.2562
  814TIP3    H123933   6.588   6.655  15.633 -1.0600 -2.4651 -0.2288
  814TIP3    H223934   6.647   6.649  15.494  1.2165  1.4970  0.4621
  815TIP3   OH223935   1.625   0.158   6.088  0.1761  0.0409 -0.3062
  815TIP3    H123936   1.691   0.208   6.136  0.4189 -0.5188 -0.0502
  815TIP3    H223937   1.542   0.204   6.105  0.2420 -0.2303  0.7466
  816TIP3   OH223938   1.693   5.112  16.863  0.1204 -0.2394 -0.1120
  816TIP3    H123939   1.693   5.020  16.890  2.9233 -0.5569 -1.0784
  816TIP3    H223940   1.643   5.113  16.781  0.4992 -0.9789 -0.3555
  817TIP3   OH223941   1.758   5.942  13.982  0.3034 -0.0360  0.7488
  817TIP3    H123942   1.771   6.036  13.977 -0.8988  0.0994  0.0055
  817TIP3    H223943   1.844   5.907  14.009  0.6188  1.2950  1.4872
  818TIP3   OH223944   1.157   0.942   5.729 -0.1498  0.3820  0.1887
  818TIP3    H123945   1.243   0.902   5.741 -0.3297  0.2796  1.1325
  818TIP3    H223946   1.097   0.888   5.780 -0.9332 -0.0916 -1.1975
  819TIP3   OH223947   0.521   0.934   2.488 -0.1608 -0.4872 -0.2428
  819TIP3    H123948   0.579   0.954   2.414  1.4363 -0.5426  0.9813
  819TIP3    H223949   0.444   0.989   2.474 -0.1131 -0.8814 -2.2231
  820TIP3   OH223950   1.511   1.370  12.184  0.6702 -0.7805  0.4939
  820TIP3    H123951   1.589   1.407  12.225  0.9744 -1.1988  0.2966
  820TIP3    H223952   1.545   1.305  12.122  0.2147 -0.2096 -0.3714
  821TIP3   OH223953   4.991   2.544   4.303  0.7026  0.2798 -0.8571
  821TIP3    H123954   5.066   2.603   4.306 -0.7710  2.1345  0.3628
  821TIP3    H223955   4.919   2.599   4.271 -1.2775 -0.1706  2.6110
  822TIP3   OH223956   4.073   3.282   3.382 -0.7695  0.3189  0.4007
  822TIP3    H123957   3.987   3.267   3.422 -0.9486  1.8258  0.6021
  822TIP3    H223958   4.054   3.309   3.293 -0.4077 -1.8139 -0.3433
  823TIP3   OH223959   0.395   1.775   5.588  0.1911  0.1953 -0.4040
  823TIP3    H123960   0.344   1.717   5.532  0.7066  1.0679 -1.8018
  823TIP3    H223961   0.357   1.764   5.676  0.4750 -2.4454 -0.5804
  824TIP3   OH223962   3.181   1.976   0.171  0.5482 -0.3793 -0.2758
  824TIP3    H123963   3.226   1.946   0.250  0.2970  1.7489  0.7087
  824TIP3    H223964   3.101   1.923   0.167  0.2550 -0.0758  1.2558
  825TIP3   OH223965   2.617   3.388   3.412  0.1721  0.4798 -0.0103
  825TIP3    H123966   2.658   3.418   3.493 -0.3696  0.5083  0.2598
  825TIP3    H223967   2.644   3.452   3.347  0.6243  0.4498  0.1453
  826TIP3   OH223968   3.731   2.246  13.692  0.3034 -0.1888 -0.2345
  826TIP3    H123969   3.721   2.324  13.747  0.9148 -0.1162 -0.2243
  826TIP3    H223970   3.681   2.266  13.613  0.3376  0.1571 -0.1714
  827TIP3   OH223971   1.110   3.276   1.139 -0.7617  0.2897  0.3106
  827TIP3    H123972   1.146   3.298   1.052 -1.4774  0.4096  0.0420
  827TIP3    H223973   1.187   3.269   1.195 -0.3325  0.8337 -0.1996
  828TIP3   OH223974   4.962   5.302  15.079 -0.4118  0.5866  0.3365
  828TIP3    H123975   4.985   5.270  14.992  0.4909 -0.4902  0.9379
  828TIP3    H223976   4.900   5.237  15.113  0.4948  0.1003  1.1065
  829TIP3   OH223977   3.686   4.554   5.091  0.4530  0.0555  0.1462
  829TIP3    H123978   3.607   4.536   5.039 -0.0546  1.1378  0.5351
  829TIP3    H223979   3.749   4.489   5.060 -0.8138 -1.3072  0.3418
  830TIP3   OH223980   3.798   5.853   5.039 -0.0157  0.2892  0.4315
  830TIP3    H123981   3.809   5.893   5.125 -1.0397  0.4899  0.4727
  830TIP3    H223982   3.752   5.771   5.057 -0.0546  0.2366  0.0945
  831TIP3   OH223983   6.149   4.424   2.766 -0.4506  0.0140 -0.3368
  831TIP3    H123984   6.079   4.488   2.776 -0.0558  0.3421  0.3969
  831TIP3    H223985   6.218   4.454   2.825  0.2628 -0.3694 -0.9495
  832TIP3   OH223986   4.415   2.078  15.152  0.0468  0.2074  0.3989
  832TIP3    H123987   4.321   2.084  15.133 -0.2435 -0.8163  1.4223
  832TIP3    H223988   4.453   2.037  15.074 -0.1433  1.7841 -0.5534
  833TIP3   OH223989   4.347   3.966  13.675 -0.0828 -0.4949  0.2366
  833TIP3    H123990   4.362   4.058  13.696 -0.1050 -0.5371  0.4344
  833TIP3    H223991   4.425   3.940  13.625 -0.5179 -0.1107 -0.6511
  834TIP3   OH223992   3.007   6.243  16.973 -0.4183 -0.1119 -0.4889
  834TIP3    H123993   2.938   6.208  16.916 -0.2040 -1.1548 -0.1135
  834TIP3    H223994   2.971   6.235  17.061 -0.6827  1.3526 -0.4581
  835TIP3   OH223995   0.653   3.704   2.521 -0.4332  0.6205  0.3730
  835TIP3    H123996   0.650   3.650   2.600 -0.1550  1.0016  0.6406
  835TIP3    H223997   0.562   3.724   2.502 -0.4187  1.5578  1.2924
  836TIP3   OH223998   2.328   6.052   3.550 -0.1308  0.2352  0.0270
  836TIP3    H123999   2.299   5.977   3.602  1.2068 -1.1397 -1.1432
  836TIP3    H224000   2.413   6.077   3.588  0.8171 -0.7239 -1.3754
  837TIP3   OH224001   5.078   4.109   5.113  0.1566  0.2821 -0.0141
  837TIP3    H124002   5.107   4.115   5.023  1.0101  1.5406  0.3307
  837TIP3    H224003   4.997   4.059   5.109  0.4546 -0.1003 -1.4113
  838TIP3   OH224004   2.675   2.139  13.814 -0.1054  0.0483 -0.6399
  838TIP3    H124005   2.714   2.154  13.728 -0.6294 -0.4028 -0.9559
  838TIP3    H224006   2.694   2.220  13.863  1.2687 -0.1898 -0.7582
  839TIP3   OH224007   6.680   3.172   2.488 -0.4808  0.7089  0.1488
  839TIP3    H124008   6.771   3.196   2.505 -0.5095  1.1142 -0.2401
  839TIP3    H224009   6.664   3.204   2.399 -0.7831 -0.0018 -0.0509
  840TIP3   OH224010   1.710   6.578   6.825  0.1065 -0.0523 -0.5745
  840TIP3    H124011   1.785   6.526   6.796  1.6714  1.7441  0.1886
  840TIP3    H224012   1.671   6.528   6.896  2.3617  0.3947  1.0107
  841TIP3   OH224013   4.360   6.228  14.486 -0.7340 -0.1788  1.1526
  841TIP3    H124014   4.444   6.186  14.502 -0.7138 -0.5227  0.1738
  841TIP3    H224015   4.304   6.158  14.453 -1.0934  0.2857  0.7707
  842TIP3   OH224016   0.122   3.929   0.670  0.5806 -0.1082  0.4126
  842TIP3    H124017   0.053   3.888   0.723  0.8334  0.5669  1.2875
  842TIP3    H224018   0.193   3.866   0.670  0.1712 -0.5652 -0.0091
  843TIP3   OH224019   4.157   0.892  15.041 -0.6599  0.1400 -0.6413
  843TIP3    H124020   4.168   0.872  15.134 -0.2057  0.3156 -0.6556
  843TIP3    H224021   4.234   0.854  14.998  1.1705  3.4718 -0.4265
  844TIP3   OH224022   1.149   5.249   2.368  0.3677 -0.1815 -0.0034
  844TIP3    H124023   1.142   5.299   2.449  0.7436 -2.0050  1.1956
  844TIP3    H224024   1.243   5.239   2.354  0.3154  0.6561 -1.0157
  845TIP3   OH224025   6.636   5.199   5.546 -0.2531  0.1488  0.0408
  845TIP3    H124026   6.631   5.228   5.637 -1.2014 -0.4606  0.1906
  845TIP3    H224027   6.551   5.224   5.508 -0.0539 -0.0497 -0.5452
  846TIP3   OH224028   3.585   1.736  13.208 -0.1848 -0.2824 -0.6823
  846TIP3    H124029   3.656   1.678  13.180  1.3429  0.9371  0.5717
  846TIP3    H224030   3.545   1.690  13.282  1.5373  0.5700  0.8303
  847TIP3   OH224031   2.822   2.226  14.839 -0.0134  0.0939 -0.5624
  847TIP3    H124032   2.852   2.282  14.911  1.2899 -0.5845 -0.5629
  847TIP3    H224033   2.799   2.287  14.769 -1.1390  0.7557  0.3643
  848TIP3   OH224034   5.621   3.986   1.357  0.1588  0.0937  0.3371
  848TIP3    H124035   5.622   4.068   1.307 -0.7222 -0.0122  0.1427
  848TIP3    H224036   5.711   3.953   1.350  1.0378  1.9969  2.0224
  849TIP3   OH224037   6.524   6.565   3.560  0.2224 -0.7036 -0.2107
  849TIP3    H124038   6.444   6.612   3.536 -1.2188 -2.6406  0.6991
  849TIP3    H224039   6.565   6.619   3.627 -0.9888 -0.3465  0.2468
  850TIP3   OH224040   3.326   4.857   4.101  0.3493 -0.8280 -0.2436
  850TIP3    H124041   3.397   4.792   4.096 -0.1679 -1.4521  0.4248
  850TIP3    H224042   3.368   4.934   4.140  1.5831  0.1404 -3.3441
  851TIP3   OH224043   2.399   0.125  12.651  0.1579 -0.2848 -0.3169
  851TIP3    H124044   2.495   0.128  12.655  0.1462 -0.4227  0.1877
  851TIP3    H224045   2.371   0.200  12.703 -0.0089 -0.6817  0.1774
  852TIP3   OH224046   4.579   5.899  16.452  0.4669  0.0078  0.5433
  852TIP3    H124047   4.516   5.895  16.524 -0.5507 -1.8768 -0.4037
  852TIP3    H224048   4.536   5.951  16.384  0.3898 -0.2999  0.3487
  853TIP3   OH224049   4.586   3.147  13.849  0.1637  0.3356 -0.1071
  853TIP3    H124050   4.551   3.234  13.829  1.4160  1.0730  0.8476
  853TIP3    H224051   4.595   3.146  13.944  0.6372 -0.6606 -0.1545
  854TIP3   OH224052   4.060   1.702   4.866 -0.4219  0.1277  0.1028
  854TIP3    H124053   4.078   1.704   4.960  0.9669 -0.0293 -0.1427
  854TIP3    H224054   3.977   1.748   4.856 -0.4180  0.4187  1.3730
  855TIP3   OH224055   4.492   6.192   4.368  0.4663 -0.5936 -0.4366
  855TIP3    H124056   4.487   6.210   4.462  1.0641  1.1837 -0.7250
  855TIP3    H224057   4.574   6.143   4.358  2.0189  1.8517 -0.3769
  856TIP3   OH224058   3.997   4.820  12.112 -0.2719 -0.0633 -0.3492
  856TIP3    H124059   4.046   4.824  12.194  1.2290 -1.0727 -1.1746
  856TIP3    H224060   4.041   4.883  12.055  1.1017 -2.1126 -1.6151
  857TIP3   OH224061   6.428   2.649   6.043 -0.0836 -0.1658  0.2767
  857TIP3    H124062   6.359   2.708   6.072 -0.3011 -0.8980  1.2865
  857TIP3    H224063   6.393   2.562   6.060  0.7021 -0.5600 -0.1137
  858TIP3   OH224064   4.365   4.346   2.089  0.1715 -0.2973  0.0992
  858TIP3    H124065   4.338   4.257   2.111 -1.5991  0.6760  2.0167
  858TIP3    H224066   4.295   4.402   2.122  1.0947  1.8114 -1.3625
  859TIP3   OH224067   4.696   5.504   2.965 -0.2515 -0.0516  0.2868
  859TIP3    H124068   4.688   5.482   2.872 -1.3319  0.8682  0.1447
  859TIP3    H224069   4.637   5.578   2.977  0.4628  0.3313  1.5524
  860TIP3   OH224070   6.498   1.039   1.532 -0.1735 -0.3249 -0.5207
  860TIP3    H124071   6.506   1.085   1.448  1.4925 -0.1787 -0.2973
  860TIP3    H224072   6.588   1.018   1.556 -0.6311 -0.1858  1.3441
  861TIP3   OH224073   1.841   4.983   4.124  0.3677 -0.4016 -0.7354
  861TIP3    H124074   1.826   5.077   4.115 -1.5751 -0.4385  1.5201
  861TIP3    H224075   1.845   4.950   4.034  1.1978  1.8275 -1.5448
  862TIP3   OH224076   0.353   4.023   5.284  0.1075 -0.1699  0.2106
  862TIP3    H124077   0.323   4.114   5.288 -0.5646 -0.4569  1.7469
  862TIP3    H224078   0.274   3.973   5.264  0.3704 -0.4951 -0.0217
  863TIP3   OH224079   3.122   3.487  16.381  0.5828 -0.0580 -0.5085
  863TIP3    H124080   3.152   3.569  16.342  0.3173  0.0327 -0.5226
  863TIP3    H224081   3.062   3.514  16.450  0.3438 -0.2454 -0.6412
  864TIP3   OH224082   1.992   4.853   1.715  0.2546 -0.0377 -0.3359
  864TIP3    H124083   1.997   4.829   1.807 -2.0888  1.0778  0.1065
  864TIP3    H224084   2.083   4.850   1.685  1.1785  0.5993  2.2589
  865TIP3   OH224085   6.255   4.361  16.079  0.6460 -0.1120  0.0494
  865TIP3    H124086   6.348   4.367  16.060  0.7742 -2.1964  0.0012
  865TIP3    H224087   6.238   4.438  16.135  1.7655  1.8774 -2.2442
  866TIP3   OH224088   5.431   0.306  14.451  0.7857  0.0490  0.3728
  866TIP3    H124089   5.453   0.332  14.540  1.4917  1.2928 -0.1466
  866TIP3    H224090   5.428   0.389  14.402  1.9298 -0.7457 -1.0795
  867TIP3   OH224091   4.502   6.761  12.129  0.4687 -0.1057  0.1694
  867TIP3    H124092   4.485   6.719  12.045  0.0488 -2.3584  1.3327
  867TIP3    H224093   4.493   6.855  12.112  0.7598 -0.5032 -2.3561
  868TIP3   OH224094   3.573   5.312  16.181 -0.1097 -0.1608  0.3498
  868TIP3    H124095   3.572   5.219  16.159  1.0721 -0.0687 -0.0774
  868TIP3    H224096   3.581   5.314  16.277 -1.1908 -0.5020  0.4544
  869TIP3   OH224097   3.135   1.281  15.478  0.4672  0.0237  0.2244
  869TIP3    H124098   3.087   1.340  15.420 -1.0255 -1.2927  0.0806
  869TIP3    H224099   3.180   1.220  15.419  0.0646 -0.4583  0.4076
  870TIP3   OH224100   1.360   2.819   0.281  0.2169  0.8812  0.5888
  870TIP3    H124101   1.405   2.783   0.204  0.2477  0.6533  0.7125
  870TIP3    H224102   1.341   2.743   0.335 -0.2335  0.9909  0.5835
  871TIP3   OH224103   6.271   5.512   1.261  0.5588  0.4549  0.1293
  871TIP3    H124104   6.233   5.425   1.275  1.0742 -0.0609 -1.5639
  871TIP3    H224105   6.213   5.572   1.309 -1.6260 -0.4692 -1.3155
  872TIP3   OH224106   4.219   1.845   2.741 -0.1534  0.2559  0.0657
  872TIP3    H124107   4.219   1.934   2.776 -0.9243  0.5369 -0.6292
  872TIP3    H224108   4.162   1.849   2.664 -0.3153 -0.8715  0.1108
  873TIP3   OH224109   2.205   3.273   4.593 -0.4663 -0.1254 -0.4029
  873TIP3    H124110   2.264   3.209   4.632  1.2421 -1.5009 -4.8900
  873TIP3    H224111   2.258   3.353   4.586 -0.8048  0.1533  0.2325
  874TIP3   OH224112   2.829   1.134  15.266  0.1006  0.1400 -0.4319
  874TIP3    H124113   2.910   1.180  15.243  0.9156 -1.2462 -0.3869
  874TIP3    H224114   2.806   1.167  15.353  1.0919 -0.0852 -0.0763
  875TIP3   OH224115   3.087   6.553   2.626  0.5515 -0.1120 -0.4707
  875TIP3    H124116   3.078   6.483   2.563 -2.1676  0.3399 -0.6186
  875TIP3    H224117   3.043   6.628   2.587  0.0204  0.5729  1.3585
  876TIP3   OH224118   2.156   0.326   3.433 -0.1221 -0.1047 -0.3231
  876TIP3    H124119   2.072   0.370   3.447  0.2261  0.7912 -1.0297
  876TIP3    H224120   2.204   0.384   3.375  1.0522 -0.5548  0.1961
  877TIP3   OH224121   6.795   2.679  12.567  0.2812  0.7276  0.6164
  877TIP3    H124122   6.726   2.618  12.593  1.3593 -0.6679  0.2443
  877TIP3    H224123   6.792   2.679  12.471  0.4575  1.0536  0.6103
  878TIP3   OH224124   4.409   6.037  16.287  0.0888  0.0507 -0.4197
  878TIP3    H124125   4.342   6.005  16.347  0.3655  1.5844  0.7069
  878TIP3    H224126   4.360   6.088  16.222  0.2195  1.6038  0.6977
  879TIP3   OH224127   2.093   3.473  10.653 -0.6548  0.8034  0.1242
  879TIP3    H124128   2.186   3.476  10.631 -0.8437  1.0326 -0.6559
  879TIP3    H224129   2.049   3.506  10.575 -1.3974  0.6096  0.4579
  880TIP3   OH224130   1.428   0.566   5.689  0.0481 -0.2319 -0.1613
  880TIP3    H124131   1.341   0.528   5.702  0.2551 -0.3999  0.7552
  880TIP3    H224132   1.462   0.581   5.777  1.3163 -1.0048 -0.4953
  881TIP3   OH224133   6.274   5.928  13.308  0.1780 -0.1666  0.1616
  881TIP3    H124134   6.344   5.907  13.370  2.3011  0.7029 -1.8427
  881TIP3    H224135   6.281   6.023  13.295 -0.7547 -0.2121 -0.7627
  882TIP3   OH224136   2.599   1.210  14.221 -0.0589 -0.2938 -0.3632
  882TIP3    H124137   2.597   1.115  14.210 -2.1971 -0.2153 -0.8305
  882TIP3    H224138   2.584   1.224  14.314  1.1609 -0.4289 -0.1388
  883TIP3   OH224139   4.499   5.246   3.908 -0.6323 -0.0431 -0.4133
  883TIP3    H124140   4.457   5.165   3.937  0.0908 -0.1476  0.3534
  883TIP3    H224141   4.520   5.293   3.989  2.6861 -0.9779 -0.6666
  884TIP3   OH224142   5.706   2.854  16.905 -0.2936 -0.1892 -0.0562
  884TIP3    H124143   5.731   2.789  16.839 -1.4653  0.8735 -1.5615
  884TIP3    H224144   5.734   2.938  16.868  0.0949  0.2976  1.3247
  885TIP3   OH224145   1.418   1.316   0.266  0.5875  0.3548  1.2100
  885TIP3    H124146   1.445   1.229   0.237  0.1167  0.3857  0.6790
  885TIP3    H224147   1.367   1.300   0.346 -2.9504 -0.2312 -1.0350
  886TIP3   OH224148   1.626   1.279  12.635  0.1681 -0.2382  0.9120
  886TIP3    H124149   1.608   1.373  12.632 -2.0942 -0.6565  0.3646
  886TIP3    H224150   1.540   1.238  12.639  1.1023 -2.3186  0.6144
  887TIP3   OH224151   0.614   2.646   0.459 -0.7479  0.1623 -0.6831
  887TIP3    H124152   0.683   2.652   0.394  1.2061 -4.5679  0.7683
  887TIP3    H224153   0.657   2.666   0.542 -1.5814 -0.7642 -0.0192
  888TIP3   OH224154   2.162   1.374  15.608  0.6119 -0.0399  0.2561
  888TIP3    H124155   2.250   1.365  15.643  0.7622 -0.3745 -0.1927
  888TIP3    H224156   2.107   1.393  15.684  1.2470  1.3528  0.3841
  889TIP3   OH224157   1.985   5.066  13.814  0.5493  0.1189 -0.0411
  889TIP3    H124158   1.943   5.041  13.896  1.9637  1.8173  1.2429
  889TIP3    H224159   1.940   5.146  13.787  1.1614  0.4499 -0.0792
  890TIP3   OH224160   4.969   5.267   0.001  0.3019 -0.0887  0.2347
  890TIP3    H124161   4.897   5.329   0.015 -1.7550 -1.5281 -3.2802
  890TIP3    H224162   4.939   5.186   0.041  0.1700 -0.5459 -0.7778
  891TIP3   OH224163   0.621   4.749   2.631 -0.2706 -0.6535  0.0231
  891TIP3    H124164   0.660   4.726   2.715 -0.7581 -0.0811  0.4113
  891TIP3    H224165   0.530   4.721   2.638 -1.1231  2.1507  0.8550
  892TIP3   OH224166   3.346   6.447   4.050  0.3086  0.4830  0.1883
  892TIP3    H124167   3.306   6.462   3.965  0.4153 -0.6112 -0.0559
  892TIP3    H224168   3.415   6.383   4.033 -0.9403 -1.2314  1.4352
  893TIP3   OH224169   6.294   5.806   1.081  0.1204 -0.1462  0.1032
  893TIP3    H124170   6.272   5.738   1.017  0.1718  0.9099 -1.0670
  893TIP3    H224171   6.389   5.800   1.091 -0.0181 -1.0268  0.9084
  894TIP3   OH224172   0.564   1.751  14.187 -0.3949  0.1278 -0.6318
  894TIP3    H124173   0.510   1.673  14.172 -0.5676  0.0040  0.5837
  894TIP3    H224174   0.621   1.756  14.110 -2.1725  0.2932 -1.9598
  895TIP3   OH224175   2.954   4.841  16.169  0.3189 -0.1049  0.0564
  895TIP3    H124176   2.908   4.844  16.253  0.6909 -2.1505  0.3860
  895TIP3    H224177   2.943   4.751  16.139  1.0672  0.3278 -1.5962
  896TIP3   OH224178   2.610   1.816   4.063  0.1762  0.0356 -0.4275
  896TIP3    H124179   2.590   1.731   4.025  2.2726 -0.7697  0.1779
  896TIP3    H224180   2.599   1.805   4.157 -0.2868  0.6435 -0.4059
  897TIP3   OH224181   3.704   4.176   0.333  0.0140 -0.0212 -0.1474
  897TIP3    H124182   3.646   4.106   0.303 -1.7577  2.1722 -2.0721
  897TIP3    H224183   3.652   4.223   0.398 -0.0571  1.3607 -1.1640
  898TIP3   OH224184   2.902   4.197   3.311  0.0938  0.0753  0.0951
  898TIP3    H124185   2.905   4.133   3.239  0.0920 -0.1790  0.3182
  898TIP3    H224186   2.872   4.278   3.270 -1.1762 -0.4034  0.0500
  899TIP3   OH224187   0.048   2.088  13.437  0.2849  0.4715 -0.9996
  899TIP3    H124188  -0.037   2.095  13.395 -0.1814 -0.3115 -0.2109
  899TIP3    H224189   0.107   2.059  13.368 -0.5243 -1.0680 -1.0670
  900TIP3   OH224190   6.760   6.399   0.176  0.5346 -0.0862 -0.0298
  900TIP3    H124191   6.832   6.343   0.205  2.1398  1.4905 -0.8640
  900TIP3    H224192   6.803   6.480   0.148 -1.7015  1.4600  0.9034
  901TIP3   OH224193   0.565   1.201  13.140  0.1385 -0.7881  0.4442
  901TIP3    H124194   0.613   1.145  13.201  1.9163 -2.1405 -2.1034
  901TIP3    H224195   0.617   1.199  13.060 -1.1666  2.4138 -0.5570
  902TIP3   OH224196   0.879   2.185   0.009  0.2085  0.2327 -0.9549
  902TIP3    H124197   0.941   2.156   0.076 -0.5530  0.1472 -0.2868
  902TIP3    H224198   0.793   2.158   0.042 -0.2104  0.5373 -1.7783
  903TIP3   OH224199   3.584   2.047  11.716  0.0096 -0.9135 -0.0347
  903TIP3    H124200   3.637   2.103  11.660  1.0238 -1.6115  0.2239
  903TIP3    H224201   3.495   2.056  11.682 -0.0204  1.6227  0.5922
  904TIP3   OH224202   5.727   1.069   0.531 -0.2815  0.2076 -0.1927
  904TIP3    H124203   5.785   1.136   0.565  0.3985  0.7799 -2.3722
  904TIP3    H224204   5.730   1.081   0.436 -2.3447 -1.0953 -0.4571
  905TIP3   OH224205   5.713   3.943  10.982 -0.1279 -0.4054  0.6550
  905TIP3    H124206   5.805   3.968  10.972 -0.6521  0.9241 -1.1457
  905TIP3    H224207   5.700   3.874  10.916 -0.4687 -0.4642  0.7852
  906TIP3   OH224208   1.810   2.330   0.228 -0.3645 -0.0712  0.4743
  906TIP3    H124209   1.880   2.309   0.166 -0.1155  2.6499 -0.2383
  906TIP3    H224210   1.851   2.321   0.314  0.8843  1.5267  0.0666
  907TIP3   OH224211   1.628   1.339   4.680  0.1070 -0.2884 -0.5170
  907TIP3    H124212   1.690   1.404   4.647 -1.6192  2.0226  0.7282
  907TIP3    H224213   1.671   1.302   4.757  0.8670 -0.2801 -0.9288
  908TIP3   OH224214   3.448   1.823  12.480 -0.1160 -0.0279 -0.1947
  908TIP3    H124215   3.378   1.856  12.537  0.1836  1.7330 -0.7999
  908TIP3    H224216   3.410   1.826  12.392  1.0408  1.9624 -0.6605
  909TIP3   OH224217   5.447   3.966  11.931  0.4491 -0.5898 -0.4580
  909TIP3    H124218   5.485   3.888  11.972  0.2869  1.0523  2.9821
  909TIP3    H224219   5.363   3.978  11.975 -0.4362  0.4292 -2.3443
  910TIP3   OH224220   3.970   3.638   2.160 -0.0304  0.7015  0.1848
  910TIP3    H124221   4.018   3.651   2.078 -0.0596 -1.2742 -0.1747
  910TIP3    H224222   3.908   3.710   2.164  0.2202  1.0169 -1.3566
  911TIP3   OH224223   3.773   6.493  16.561  0.7054  0.2834  0.1879
  911TIP3    H124224   3.841   6.468  16.499  1.7249  0.8724  1.0473
  911TIP3    H224225   3.715   6.551  16.512 -0.0181 -1.3424 -0.9666
  912TIP3   OH224226   2.753   0.909   6.124 -0.3576  0.4794 -0.4228
  912TIP3    H124227   2.837   0.866   6.113 -0.6134  0.0422 -0.6902
  912TIP3    H224228   2.770   0.981   6.184  0.0678 -0.0302  0.0752
  913TIP3   OH224229   3.677   6.619   5.632  0.6666 -0.3711  0.5910
  913TIP3    H124230   3.764   6.616   5.671  1.8122  3.1690 -1.4769
  913TIP3    H224231   3.629   6.682   5.686  0.6254  0.6161 -0.5848
  914TIP3   OH224232   1.786   5.241   4.010 -0.2391  0.2506 -0.1709
  914TIP3    H124233   1.785   5.235   3.914  0.9475  1.4473 -0.2720
  914TIP3    H224234   1.864   5.292   4.030 -1.6651  1.9315  1.3084
  915TIP3   OH224235   5.535   2.825  15.417  0.0991  0.2130 -0.2062
  915TIP3    H124236   5.444   2.798  15.402  0.6057 -1.0268 -1.2234
  915TIP3    H224237   5.547   2.817  15.512 -0.6279 -0.4159 -0.1577
  916TIP3   OH224238   0.849   4.328   4.692  0.3425 -0.5196 -0.6096
  916TIP3    H124239   0.808   4.267   4.753  0.7052  0.3277  0.4851
  916TIP3    H224240   0.782   4.395   4.676  0.6528 -0.1110 -0.2254
  917TIP3   OH224241   5.601   3.706   5.025 -0.1947 -0.6423 -0.1489
  917TIP3    H124242   5.658   3.704   4.948 -1.0803  1.4168 -0.9025
  917TIP3    H224243   5.648   3.657   5.092  0.2121 -3.2167 -2.2428
  918TIP3   OH224244   6.182   5.201   0.802 -0.0142 -0.2756  0.6132
  918TIP3    H124245   6.125   5.274   0.778  1.4600  0.5764 -0.3128
  918TIP3    H224246   6.166   5.134   0.735  1.1731  0.5519 -0.5110
  919TIP3   OH224247   4.191   4.563  12.085  0.2297  0.5152 -0.5263
  919TIP3    H124248   4.208   4.540  11.994  1.0670  0.6216 -0.4024
  919TIP3    H224249   4.111   4.515  12.107 -0.1288  0.6955 -1.3909
  920TIP3   OH224250   0.580   4.901   0.757  0.5257 -0.3787  0.1944
  920TIP3    H124251   0.555   4.988   0.727  2.1811 -0.1773 -0.6498
  920TIP3    H224252   0.497   4.857   0.775 -0.4236  0.3565 -2.2422
  921TIP3   OH224253   0.669   5.586   4.435  0.1651 -0.3099 -0.0142
  921TIP3    H124254   0.717   5.658   4.475 -0.8130  0.3231  0.0256
  921TIP3    H224255   0.728   5.510   4.444  0.8436  0.2928  0.6847
  922TIP3   OH224256   2.458   4.302  17.186  0.2789 -0.4291 -0.2705
  922TIP3    H124257   2.399   4.280  17.113  0.0570 -0.5011 -0.0731
  922TIP3    H224258   2.528   4.352  17.146  0.4966 -1.0267 -0.6398
  923TIP3   OH224259   2.526   4.359  11.034 -0.4075  0.2030  0.1011
  923TIP3    H124260   2.433   4.348  11.049 -0.3697 -0.9500 -0.4322
  923TIP3    H224261   2.533   4.384  10.941 -0.1142 -0.8731 -0.1681
  924TIP3   OH224262   2.074   2.852  13.419 -0.1612 -0.1229 -0.1449
  924TIP3    H124263   2.066   2.784  13.485  0.0804 -0.7168 -0.7179
  924TIP3    H224264   2.029   2.816  13.342 -1.9758  1.2865  0.2327
  925TIP3   OH224265   6.762   0.461  12.287  0.1714 -0.8136 -0.1495
  925TIP3    H124266   6.716   0.441  12.368 -1.3287 -1.8091 -1.2319
  925TIP3    H224267   6.748   0.554  12.274  0.0805 -0.7280  0.5218
  926TIP3   OH224268   1.084   1.478   1.000 -0.4822 -0.2714 -0.5818
  926TIP3    H124269   0.996   1.482   1.036  0.0509  0.8091  0.6676
  926TIP3    H224270   1.141   1.480   1.077  0.6424 -0.4272 -1.3934
  927TIP3   OH224271   2.758   6.588  16.453 -0.3776  0.3687  0.7442
  927TIP3    H124272   2.708   6.669  16.460 -2.5673 -0.8636  0.0075
  927TIP3    H224273   2.819   6.590  16.527 -0.4212  2.6529  0.7395
  928TIP3   OH224274   5.461   0.984   5.666 -0.6225 -0.2520 -0.1804
  928TIP3    H124275   5.490   1.036   5.741 -2.1116 -0.4301  0.5167
  928TIP3    H224276   5.538   0.932   5.643  0.6296  1.5997 -0.3477
  929TIP3   OH224277   5.743   3.068  16.065 -0.0524  0.0691 -0.6660
  929TIP3    H124278   5.673   3.044  16.005 -1.4491 -1.9778  1.6876
  929TIP3    H224279   5.807   2.997  16.055 -0.0445  0.0047 -0.1473
  930TIP3   OH224280   6.431   3.247   4.074 -0.0995 -0.0715  0.0121
  930TIP3    H124281   6.521   3.245   4.106 -0.0131  3.7143  0.2855
  930TIP3    H224282   6.378   3.218   4.148  0.7548 -0.3076  0.5324
  931TIP3   OH224283   5.283   3.684   2.034 -0.1270  0.5395  0.2523
  931TIP3    H124284   5.308   3.601   1.994  2.0368  0.2756  2.0555
  931TIP3    H224285   5.332   3.750   1.986  0.0702  0.5353  0.4494
  932TIP3   OH224286   5.288   5.524  16.815 -0.3689 -0.4588  0.3508
  932TIP3    H124287   5.248   5.440  16.795  0.1741 -0.7313  0.3919
  932TIP3    H224288   5.323   5.555  16.731 -1.1653  0.0482  0.2025
  933TIP3   OH224289   6.473   6.538   4.398 -0.5022  0.6857 -0.3373
  933TIP3    H124290   6.403   6.526   4.463 -1.4340 -0.2605 -1.4957
  933TIP3    H224291   6.548   6.566   4.450 -1.2832  0.1430  1.1434
  934TIP3   OH224292   6.223   2.173   1.771 -0.2456 -0.1978 -0.2848
  934TIP3    H124293   6.201   2.255   1.815  0.3798  1.1406 -2.4254
  934TIP3    H224294   6.308   2.189   1.731 -0.1490 -1.8776 -0.7846
  935TIP3   OH224295   5.257   0.603  13.268 -0.1247 -0.1931 -0.2437
  935TIP3    H124296   5.313   0.681  13.264  0.8815 -0.9020 -0.0662
  935TIP3    H224297   5.192   0.624  13.336  0.4725  0.2723  0.1907
  936TIP3   OH224298   4.322   2.522  14.189 -0.4834 -0.0897  0.0955
  936TIP3    H124299   4.260   2.553  14.123 -0.2119  0.5303  0.1314
  936TIP3    H224300   4.388   2.475  14.140 -1.5534 -1.7102  0.1553
  937TIP3   OH224301   3.692   5.219   2.416  0.3693 -0.2248 -0.2889
  937TIP3    H124302   3.780   5.233   2.383  0.5669 -0.0587  0.2943
  937TIP3    H224303   3.660   5.307   2.437  0.4476 -0.3624  0.4428
  938TIP3   OH224304   5.341   3.437  16.290 -0.4337  0.2024 -0.1245
  938TIP3    H124305   5.330   3.516  16.237 -1.2356 -0.8638 -1.5885
  938TIP3    H224306   5.433   3.440  16.319 -0.6507  2.0130  0.4507
  939TIP3   OH224307   3.054   4.831   4.054 -0.1267 -0.2018 -0.4197
  939TIP3    H124308   2.984   4.804   4.115  0.3849  0.6236  0.5571
  939TIP3    H224309   3.134   4.799   4.094  0.1416 -0.3343 -1.0633
  940TIP3   OH224310   5.813   2.049  17.074  0.1832  0.4263  0.0652
  940TIP3    H124311   5.798   1.966  17.028 -1.9662 -0.0198  1.4956
  940TIP3    H224312   5.810   2.115  17.005 -0.8072 -0.4361 -0.7360
  941TIP3   OH224313   0.115   2.433   4.505  0.4628 -0.2218  0.1763
  941TIP3    H124314   0.114   2.432   4.410 -0.3012  3.3352  0.0773
  941TIP3    H224315   0.208   2.437   4.529  0.5866  0.8945 -0.4843
  942TIP3   OH224316   1.716   1.311  11.990  0.2914 -0.0739  0.3796
  942TIP3    H124317   1.784   1.245  11.981  0.5918  0.5030 -1.8364
  942TIP3    H224318   1.759   1.384  12.034  0.7631 -0.2152  0.1541
  943TIP3   OH224319   0.888   5.286   2.059 -0.0878  0.3931  0.4647
  943TIP3    H124320   0.867   5.371   2.099  0.0755 -0.4135  2.2726
  943TIP3    H224321   0.803   5.242   2.050  0.0241  0.0277  1.1793
  944TIP3   OH224322   3.181   6.435  12.429 -0.2934  0.0464 -0.0309
  944TIP3    H124323   3.129   6.493  12.485 -0.9574 -2.3189  1.9403
  944TIP3    H224324   3.116   6.390  12.374  0.3540  2.3139 -2.7285
  945TIP3   OH224325   0.072   6.195  12.362  0.1571 -0.4094 -0.0933
  945TIP3    H124326   0.002   6.187  12.427 -0.0917  1.2191 -0.1447
  945TIP3    H224327   0.069   6.286  12.334  2.1463 -0.3639 -0.2644
  946TIP3   OH224328   2.910   3.493  12.046  0.0301  0.0238 -0.1310
  946TIP3    H124329   2.963   3.522  11.972 -0.9719  1.7433 -0.1850
  946TIP3    H224330   2.967   3.505  12.122  0.4385 -0.1013 -0.4140
  947TIP3   OH224331   3.766   1.891  15.740 -0.0603  0.2755 -0.4710
  947TIP3    H124332   3.799   1.842  15.665 -1.6084 -1.4747 -0.0478
  947TIP3    H224333   3.702   1.832  15.781 -0.0824  1.6568  1.5502
  948TIP3   OH224334   5.841   1.182  15.117  0.1757 -0.1795  0.1585
  948TIP3    H124335   5.815   1.211  15.030  0.0397  2.0933  0.9203
  948TIP3    H224336   5.936   1.171  15.111  0.6174  2.8952  0.4598
  949TIP3   OH224337   1.824   0.019   1.569  0.2314  0.2621 -0.6903
  949TIP3    H124338   1.791  -0.055   1.519  0.9992  0.4091 -1.4433
  949TIP3    H224339   1.906   0.043   1.525 -0.1998  1.8021 -0.7039
  950TIP3   OH224340   1.724   6.616  12.351 -0.1100 -0.8396  0.0629
  950TIP3    H124341   1.658   6.643  12.414 -1.4606 -0.9487 -1.2908
  950TIP3    H224342   1.704   6.665  12.272 -0.0499 -2.6587 -1.1054
  951TIP3   OH224343   6.296   1.971  14.407  0.1443 -0.3329  0.6727
  951TIP3    H124344   6.332   1.882  14.404 -0.8269 -0.7499  1.1169
  951TIP3    H224345   6.294   1.994  14.499  0.2729  0.0969  0.5681
  952TIP3   OH224346   5.390   5.995   5.991  0.1560  0.7218  0.2999
  952TIP3    H124347   5.392   6.090   5.983  0.9815  0.6218 -0.9159
  952TIP3    H224348   5.467   5.973   6.043  0.7818  0.6274 -0.6523
  953TIP3   OH224349   4.445   2.304  11.200  0.2837  0.3736  0.3183
  953TIP3    H124350   4.428   2.274  11.289  1.1109  1.1863  0.7576
  953TIP3    H224351   4.416   2.231  11.144  2.3404 -1.2793  1.3616
  954TIP3   OH224352   3.715   3.911  14.368  0.1735 -0.0221 -0.4585
  954TIP3    H124353   3.783   3.972  14.396 -0.5888  0.1888  0.9962
  954TIP3    H224354   3.670   3.954  14.296  0.3656  0.6569 -0.1699
  955TIP3   OH224355   5.205   2.295  13.064 -0.5279  0.1322 -0.1443
  955TIP3    H124356   5.149   2.334  13.132  0.5377  1.0862  0.2037
  955TIP3    H224357   5.175   2.204  13.058 -2.0596  0.6003  0.0889
  956TIP3   OH224358   1.710   4.214  12.195 -0.1858 -0.1885 -0.3923
  956TIP3    H124359   1.731   4.307  12.186 -2.2244  0.3000 -0.2888
  956TIP3    H224360   1.634   4.212  12.253 -1.1143 -1.7995 -1.6036
  957TIP3   OH224361   3.043   0.578  13.035 -0.4468  0.3267  0.8330
  957TIP3    H124362   3.107   0.523  12.990 -1.7092 -1.4061  1.1059
  957TIP3    H224363   3.048   0.662  12.990  2.1368  0.2851  0.9741
  958TIP3   OH224364   6.592   5.412   1.399 -0.0448 -0.2547 -0.6974
  958TIP3    H124365   6.512   5.463   1.414  0.3116 -0.0578  0.5947
  958TIP3    H224366   6.633   5.406   1.485 -0.2395 -3.0141 -0.7417
  959TIP3   OH224367   1.983   6.785   2.980  0.0689  0.5859 -0.3342
  959TIP3    H124368   2.056   6.800   3.040  1.2542 -0.6098 -1.4253
  959TIP3    H224369   1.904   6.801   3.032  1.0735 -0.3010  1.5054
  960TIP3   OH224370   3.302   1.712  11.585 -0.0419 -0.2228  0.5417
  960TIP3    H124371   3.242   1.673  11.648 -0.2412 -0.3929  0.2480
  960TIP3    H224372   3.381   1.659  11.590  0.0567 -0.0440  0.8739
  961TIP3   OH224373   3.004   1.220   1.345 -0.2400 -0.2044  0.5650
  961TIP3    H124374   3.039   1.165   1.415 -2.0898 -0.2150  1.5023
  961TIP3    H224375   3.049   1.304   1.354  0.9186 -0.8119  0.5553
  962TIP3   OH224376   5.783   0.692   4.117  0.1117  0.0433 -0.2741
  962TIP3    H124377   5.826   0.696   4.202  0.3888  0.0498 -0.4127
  962TIP3    H224378   5.792   0.781   4.081 -0.1140  0.0737 -0.2567
  963TIP3   OH224379   1.794   0.449   6.010 -0.0124  0.3155 -0.2920
  963TIP3    H124380   1.862   0.469   6.074  1.0423 -1.3630 -0.8616
  963TIP3    H224381   1.712   0.473   6.054  0.9081  2.0860  0.5031
  964TIP3   OH224382   1.214   5.829  14.992  0.2703  0.0648  0.2483
  964TIP3    H124383   1.135   5.872  14.959 -0.0721 -0.0254  0.9552
  964TIP3    H224384   1.228   5.757  14.930 -1.5628 -1.3776  1.4416
  965TIP3   OH224385   1.540   4.484   6.648 -0.3142 -0.5202 -0.8568
  965TIP3    H124386   1.633   4.494   6.624 -0.9107  1.5694 -2.4350
  965TIP3    H224387   1.498   4.562   6.611 -2.3356 -0.3045  1.7984
  966TIP3   OH224388   4.108   6.277   0.773  0.3933  0.4676 -0.1384
  966TIP3    H124389   4.173   6.249   0.709 -0.1778  0.1573 -0.5876
  966TIP3    H224390   4.039   6.317   0.721 -0.3932 -0.4007  0.2267
  967TIP3   OH224391   6.092   2.838   2.149 -0.1444  0.3511 -0.2454
  967TIP3    H124392   6.138   2.767   2.195 -0.5194 -0.4622 -1.1137
  967TIP3    H224393   6.162   2.888   2.106  0.0068 -0.4394 -0.9399
  968TIP3   OH224394   0.219   4.847  16.653  0.1415 -0.3516  0.3488
  968TIP3    H124395   0.231   4.934  16.615 -1.0558  0.1323  1.0317
  968TIP3    H224396   0.135   4.852  16.699  1.3891 -1.0285  2.7975
  969TIP3   OH224397   5.575   1.877  14.004  0.4130  0.2020 -0.3508
  969TIP3    H124398   5.523   1.957  14.014 -2.6756 -1.5647 -1.7268
  969TIP3    H224399   5.628   1.893  13.925  2.3423  2.1659  1.2790
  970TIP3   OH224400   0.882   6.579   3.299 -0.3455  0.3772 -0.3822
  970TIP3    H124401   0.968   6.584   3.258 -0.4461 -0.0130 -0.6526
  970TIP3    H224402   0.825   6.543   3.230  0.3024 -4.2533  1.3060
  971TIP3   OH224403   0.689   1.873  13.222  0.0110 -0.3062  0.2815
  971TIP3    H124404   0.627   1.944  13.204 -1.1144 -1.0325  1.2175
  971TIP3    H224405   0.716   1.888  13.312  1.1972 -0.0226 -0.1059
  972TIP3   OH224406   0.178   3.575   5.734  0.2243 -0.4484 -0.3557
  972TIP3    H124407   0.176   3.598   5.827 -0.4101  1.9905 -0.9346
  972TIP3    H224408   0.234   3.642   5.694  0.7963 -1.7065 -1.6727
  973TIP3   OH224409   1.878   1.255   1.487 -0.3468 -0.2667 -0.4376
  973TIP3    H124410   1.905   1.282   1.399  0.1909  0.3936 -0.0709
  973TIP3    H224411   1.957   1.214   1.524 -0.7030 -0.9410 -0.4224
  974TIP3   OH224412   3.295   5.468  13.424 -0.1713  0.1309 -0.1674
  974TIP3    H124413   3.292   5.407  13.499  1.5143 -0.9133 -0.9028
  974TIP3    H224414   3.248   5.422  13.354  0.1867  0.1291 -0.4088
  975TIP3   OH224415   1.941   2.369  15.458 -0.0363  0.5120  0.1909
  975TIP3    H124416   1.859   2.376  15.506  0.2332  0.6084  0.6481
  975TIP3    H224417   2.009   2.382  15.525  0.4289 -2.4950  0.3449
  976TIP3   OH224418   6.448   6.327   4.050  0.3093 -0.5518  0.2839
  976TIP3    H124419   6.486   6.243   4.077 -0.2617 -0.1121  2.6364
  976TIP3    H224420   6.388   6.349   4.122 -1.3953  0.6784 -1.4794
  977TIP3   OH224421   0.570   4.742  16.871 -0.1190 -0.1627  0.2404
  977TIP3    H124422   0.593   4.834  16.866  0.2477 -0.2340  0.5395
  977TIP3    H224423   0.653   4.698  16.889  0.0604 -0.7508 -1.9155
  978TIP3   OH224424   4.367   2.209   0.074 -0.4877  0.3628 -0.5051
  978TIP3    H124425   4.371   2.213   0.170 -1.4355 -0.4206 -0.4173
  978TIP3    H224426   4.422   2.134   0.051  0.3651  1.0288 -0.6269
  979TIP3   OH224427   1.523   6.228  11.275  0.5951 -0.0862  0.0663
  979TIP3    H124428   1.535   6.225  11.180 -0.0398  1.3580 -0.0798
  979TIP3    H224429   1.584   6.295  11.305 -0.4977  0.7636  0.4348
  980TIP3   OH224430   3.842   5.157  15.425  0.1476 -0.6934  0.5613
  980TIP3    H124431   3.849   5.067  15.456 -1.5426 -0.4262  1.8151
  980TIP3    H224432   3.870   5.211  15.498 -0.1194 -0.1663  0.2875
  981TIP3   OH224433   1.908   2.430   3.648  0.0251  0.3620 -0.3669
  981TIP3    H124434   1.921   2.518   3.684  1.2336  0.0848 -0.0917
  981TIP3    H224435   1.975   2.423   3.579 -0.7684  0.0505 -1.1053
  982TIP3   OH224436   4.372   0.321  15.287 -0.4546 -0.5103  0.2404
  982TIP3    H124437   4.451   0.372  15.306 -0.0798 -1.7849  2.2973
  982TIP3    H224438   4.300   0.384  15.295  0.1565  0.1219  0.8933
  983TIP3   OH224439   2.694   4.895   0.886  0.5376 -0.0088 -0.3830
  983TIP3    H124440   2.614   4.879   0.936  0.7905 -1.7971 -0.5016
  983TIP3    H224441   2.763   4.905   0.951  0.6149 -0.8535 -0.3314
  984TIP3   OH224442   5.315   2.730  16.053  0.0692  0.0368  0.2014
  984TIP3    H124443   5.373   2.679  15.997  1.9637 -0.0635  2.2189
  984TIP3    H224444   5.296   2.809  16.002  0.4109 -0.7918 -1.2433
  985TIP3   OH224445   0.847   3.791   3.209 -0.3679  0.1225  0.4160
  985TIP3    H124446   0.809   3.799   3.296  1.5225  0.5972  1.2187
  985TIP3    H224447   0.844   3.880   3.173 -0.6731  0.0215  0.1819
  986TIP3   OH224448   5.463   4.990  16.511  0.3719  0.2955 -0.3495
  986TIP3    H124449   5.429   5.069  16.470 -0.0845 -0.2506 -1.0244
  986TIP3    H224450   5.424   4.918  16.462  2.4174 -0.3492 -1.1247
  987TIP3   OH224451   5.245   1.682  15.312 -0.4054  0.4244 -0.2758
  987TIP3    H124452   5.203   1.767  15.321 -1.7698 -0.0102 -2.2356
  987TIP3    H224453   5.294   1.687  15.230 -0.8261 -0.8047 -0.6148
  988TIP3   OH224454   6.159   5.056   4.695  0.5161  0.3199 -0.2828
  988TIP3    H124455   6.238   5.109   4.682 -0.9008  2.4296 -0.6807
  988TIP3    H224456   6.175   5.010   4.778  2.1153  0.8047 -0.2987
  989TIP3   OH224457   4.516   5.234  12.185 -0.0233  0.7555 -0.0784
  989TIP3    H124458   4.431   5.230  12.229  0.1795 -2.0025  0.1898
  989TIP3    H224459   4.511   5.167  12.117  1.9443  0.5086 -0.0294
  990TIP3   OH224460   1.862   5.137   0.699  0.3571 -0.2211 -0.2850
  990TIP3    H124461   1.956   5.154   0.694  0.5009 -1.2246 -0.9669
  990TIP3    H224462   1.826   5.178   0.620  0.2855 -0.3219 -0.3039
  991TIP3   OH224463   4.579   3.786   2.306  0.7773  0.3289 -0.0289
  991TIP3    H124464   4.658   3.837   2.324  1.5486 -1.4771  1.9827
  991TIP3    H224465   4.532   3.836   2.239  3.1513  1.9199 -0.5586
  992TIP3   OH224466   4.655   6.697  15.061 -0.0865  0.8044  0.2738
  992TIP3    H124467   4.742   6.660  15.047 -1.6493 -2.1044 -2.3021
  992TIP3    H224468   4.652   6.774  15.004  0.2745  0.0132 -0.8266
  993TIP3   OH224469   1.502   4.998  14.121 -0.0388 -0.2878 -0.6055
  993TIP3    H124470   1.411   5.008  14.149  0.3813 -0.6430  0.9325
  993TIP3    H224471   1.523   5.080  14.077 -0.8721  0.0921 -0.2970
  994TIP3   OH224472   2.271   4.911   0.655  0.1340  0.0880 -0.1877
  994TIP3    H124473   2.230   4.989   0.693  1.0247  0.9634 -1.0306
  994TIP3    H224474   2.353   4.942   0.617 -0.0256 -1.0591 -1.5110
  995TIP3   OH224475   4.470   5.001   2.016 -0.1891 -0.2669  0.0116
  995TIP3    H124476   4.495   4.922   1.967  1.0287  0.1305 -0.0150
  995TIP3    H224477   4.429   4.968   2.096  1.2792 -0.9401  0.4970
  996TIP3   OH224478   5.430   0.056  11.701 -0.3218  0.1297  0.6005
  996TIP3    H124479   5.364   0.126  11.700 -0.4409  0.0130 -0.0600
  996TIP3    H224480   5.498   0.088  11.760  0.2280  1.3804 -0.6844
  997TIP3   OH224481   5.864   1.252   0.710  0.1808  0.9083  0.1260
  997TIP3    H124482   5.832   1.284   0.794  2.2441 -0.2239  1.3941
  997TIP3    H224483   5.895   1.330   0.665 -1.4784  1.6000  0.1578
  998TIP3   OH224484   6.396   5.349  12.779 -0.0739  0.5097 -0.0573
  998TIP3    H124485   6.457   5.403  12.829  0.9626 -1.6732  1.1036
  998TIP3    H224486   6.451   5.281  12.740 -1.6799 -1.2070  0.5919
  999TIP3   OH224487   2.825   0.344  12.995 -0.3404  0.0538 -0.0224
  999TIP3    H124488   2.913   0.321  12.966 -0.2887 -2.2856  1.8361
  999TIP3    H224489   2.771   0.268  12.973 -1.9593  1.5161 -1.2623
 1000TIP3   OH224490   2.447   0.104  16.595 -0.1803 -0.6959  0.1069
 1000TIP3    H124491   2.438   0.142  16.683  1.8641  1.6743 -0.6270
 1000TIP3    H224492   2.385   0.152  16.541 -2.5683 -3.2344  0.5255
 1001TIP3   OH224493   4.756   2.670   0.263  0.1037 -0.5567  0.0431
 1001TIP3    H124494   4.761   2.578   0.290  0.2935 -0.3411  0.7658
 1001TIP3    H224495   4.667   2.679   0.227 -0.2958 -0.7652  0.9505
 1002TIP3   OH224496   0.001   4.172  16.816 -0.1731  0.0128  0.5828
 1002TIP3    H124497   0.097   4.173  16.820  0.0627 -1.6068 -2.4522
 1002TIP3    H224498  -0.021   4.080  16.800 -2.0497  0.7167 -1.1481
 1003TIP3   OH224499   1.187   6.778  12.666  0.2014  0.1143 -0.1063
 1003TIP3    H124500   1.211   6.715  12.735  1.2516 -0.7973 -1.2839
 1003TIP3    H224501   1.170   6.859  12.714  3.3070  0.1515  1.0512
 1004TIP3   OH224502   2.665   3.500  16.733 -0.2488  0.3510 -0.2722
 1004TIP3    H124503   2.652   3.551  16.813 -1.4720 -2.5264  1.4738
 1004TIP3    H224504   2.598   3.532  16.672 -1.9375 -0.1212  1.2961
 1005TIP3   OH224505   3.898   3.749  11.834 -0.1151 -0.1186  0.1104
 1005TIP3    H124506   3.882   3.838  11.804  2.3513  0.0127 -0.9028
 1005TIP3    H224507   3.880   3.752  11.928  0.8564  1.6834  0.2537
 1006TIP3   OH224508   1.035   0.700   6.202 -0.3964 -0.6337  0.3412
 1006TIP3    H124509   1.059   0.649   6.279  1.1346  2.1924  1.8241
 1006TIP3    H224510   0.980   0.770   6.236  2.0022  1.8838 -0.7581
 1007TIP3   OH224511   0.565   2.046  12.492 -0.1886  0.1548 -0.1682
 1007TIP3    H124512   0.541   2.099  12.415 -1.5341  1.9523  1.4455
 1007TIP3    H224513   0.648   2.085  12.522 -0.2364  0.1680 -0.0559
 1008TIP3   OH224514   2.669   0.326  14.788  0.3680 -0.0175 -0.8020
 1008TIP3    H124515   2.601   0.290  14.846  0.8838  0.0069 -0.1723
 1008TIP3    H224516   2.636   0.413  14.764  1.1504  0.8957  1.2564
 1009TIP3   OH224517   5.461   2.734  12.588 -0.0753  0.2802 -0.0602
 1009TIP3    H124518   5.541   2.732  12.642 -1.8227 -2.2871  2.5770
 1009TIP3    H224519   5.456   2.824  12.557  2.6559  1.0651  1.5668
 1010TIP3   OH224520   5.459   0.142  12.231  1.1337 -0.3313  0.5469
 1010TIP3    H124521   5.482   0.189  12.151  0.0292 -1.4162 -0.4270
 1010TIP3    H224522   5.484   0.202  12.302  2.3095  0.5526 -0.5862
 1011TIP3   OH224523   4.813   4.208  13.363 -0.0368 -0.0841 -0.1907
 1011TIP3    H124524   4.837   4.188  13.453  0.1380 -0.6354 -0.3597
 1011TIP3    H224525   4.789   4.301  13.365  1.5542  0.3414  0.0942
 1012TIP3   OH224526   5.820   4.449   4.490 -0.2647  0.0222  0.6359
 1012TIP3    H124527   5.750   4.406   4.440 -0.5186  1.0901  0.0349
 1012TIP3    H224528   5.900   4.404   4.463 -0.8011 -1.7721  1.9604
 1013TIP3   OH224529   1.419   4.281  11.661  0.4192 -0.2653  0.4174
 1013TIP3    H124530   1.417   4.186  11.671 -0.6120 -0.4302 -1.1027
 1013TIP3    H224531   1.327   4.306  11.654  0.6914  0.8334  0.7259
 1014TIP3   OH224532   3.743   3.985  13.200 -0.8631 -0.0057  0.6533
 1014TIP3    H124533   3.729   3.894  13.174 -1.4424 -0.3026  2.0123
 1014TIP3    H224534   3.752   3.982  13.295 -0.4350  1.3012  0.6600
 1015TIP3   OH224535   5.547   2.387   1.637  0.1163 -0.4795  0.0494
 1015TIP3    H124536   5.461   2.358   1.610 -0.4103  1.2638 -0.2257
 1015TIP3    H224537   5.540   2.400   1.732  0.1558 -0.6227  0.0714
 1016TIP3   OH224538   4.118   0.039  12.067 -0.4300 -0.5354  0.4518
 1016TIP3    H124539   4.029   0.006  12.055 -0.5659 -0.1706  0.4494
 1016TIP3    H224540   4.126   0.053  12.161 -0.4953 -0.2365  0.4144
 1017TIP3   OH224541   4.447   6.326   3.806  0.2566  0.3084 -0.7992
 1017TIP3    H124542   4.462   6.266   3.879 -0.2852  1.2514  0.0973
 1017TIP3    H224543   4.431   6.268   3.731 -0.0704 -0.6709  0.0092
 1018TIP3   OH224544   5.271   1.939   5.620 -0.2814  0.1875 -0.1812
 1018TIP3    H124545   5.187   1.905   5.650 -0.4604 -0.2432 -1.1416
 1018TIP3    H224546   5.305   1.988   5.694 -0.6478 -0.9607  0.7570
 1019TIP3   OH224547   6.086   5.497  11.519 -0.5596 -0.2699 -0.3791
 1019TIP3    H124548   6.138   5.481  11.440 -1.2699 -0.4243 -0.8191
 1019TIP3    H224549   6.069   5.591  11.518  1.9585  0.2653  1.1795
 1020TIP3   OH224550   0.991   3.671   2.145  0.5151  0.3296  0.6823
 1020TIP3    H124551   1.031   3.756   2.124 -0.9049  0.0402 -3.7240
 1020TIP3    H224552   0.902   3.693   2.174  1.2235  0.4689  2.8974
 1021TIP3   OH224553   2.034   2.799  10.742 -0.5551 -0.1085 -0.0859
 1021TIP3    H124554   2.059   2.890  10.727 -1.1305  0.4255  2.0183
 1021TIP3    H224555   1.942   2.804  10.768  0.1061 -0.9895  2.6359
 1022TIP3   OH224556   3.234   4.726  12.511  0.0552 -0.1530  0.1971
 1022TIP3    H124557   3.213   4.784  12.437 -2.3443 -0.6588  0.4229
 1022TIP3    H224558   3.244   4.786  12.585  0.3309  0.1990 -0.1254
 1023TIP3   OH224559   0.474   5.905   2.025 -0.0449  0.2610 -0.3111
 1023TIP3    H124560   0.487   5.814   1.996  0.1283  0.4433 -0.8185
 1023TIP3    H224561   0.395   5.933   1.978 -0.0609  0.3917 -0.2032
 1024TIP3   OH224562   5.105   6.369  12.278 -0.0009  0.1305 -0.0088
 1024TIP3    H124563   5.048   6.445  12.287 -0.3849  0.1481 -2.3098
 1024TIP3    H224564   5.107   6.351  12.184  2.1610 -1.1234  0.2293
 1025TIP3   OH224565   4.007   3.335  15.148  0.2525 -0.2076 -0.0651
 1025TIP3    H124566   3.937   3.391  15.180  0.3032 -0.5230  0.6061
 1025TIP3    H224567   3.983   3.316  15.057 -1.0585 -1.1453  0.4655
 1026TIP3   OH224568   5.510   1.906   1.691  0.0738  0.1965  0.1800
 1026TIP3    H124569   5.579   1.881   1.630  0.2219  0.4284  0.2551
 1026TIP3    H224570   5.551   1.900   1.777  1.2374  4.3479  0.0077
 1027TIP3   OH224571   6.132   6.131   4.556 -0.2649  0.4875  0.6253
 1027TIP3    H124572   6.127   6.119   4.651  0.1257  0.4770  0.6436
 1027TIP3    H224573   6.142   6.226   4.545  0.2460  0.4360  0.6180
 1028TIP3   OH224574   2.615   2.949  16.997 -0.2623  0.1684  1.2001
 1028TIP3    H124575   2.589   3.040  17.008 -0.7404  0.2134 -0.1447
 1028TIP3    H224576   2.708   2.954  16.974 -0.7970  0.4921 -1.0550
 1029TIP3   OH224577   0.255   1.688  11.404 -0.4815 -0.4538 -0.1969
 1029TIP3    H124578   0.213   1.610  11.369  0.7090 -2.1477  2.0510
 1029TIP3    H224579   0.345   1.684  11.371 -1.0817  1.3933 -2.2199
 1030TIP3   OH224580   6.556   3.062   5.653  0.6112 -0.0150  0.5090
 1030TIP3    H124581   6.520   3.031   5.737 -0.6378  2.0216  0.7651
 1030TIP3    H224582   6.495   3.027   5.588  2.1262 -2.4270  0.3171
 1031TIP3   OH224583   1.851   4.423   0.209  0.2419  0.0468 -0.2582
 1031TIP3    H124584   1.816   4.371   0.282  0.2148  1.1630  0.5408
 1031TIP3    H224585   1.779   4.428   0.147  0.0138 -0.2958 -0.0225
 1032TIP3   OH224586   5.145   3.517   4.955 -0.1165  0.5888 -0.4040
 1032TIP3    H124587   5.096   3.444   4.994  1.7018  0.4169  1.6700
 1032TIP3    H224588   5.078   3.575   4.920 -1.6673 -1.1908 -0.4823
 1033TIP3   OH224589   0.624   0.228   1.752 -0.2277 -0.7194  0.0159
 1033TIP3    H124590   0.661   0.162   1.811 -0.6870 -2.9095 -2.0200
 1033TIP3    H224591   0.530   0.227   1.770 -0.2642 -0.8060 -0.1742
 1034TIP3   OH224592   2.632   1.855   6.717  0.1102  0.0785  0.1951
 1034TIP3    H124593   2.560   1.906   6.680 -1.1467 -1.2882  0.6904
 1034TIP3    H224594   2.661   1.799   6.645  2.1228  2.1295 -0.6262
 1035TIP3   OH224595   1.499   0.029   3.635  0.3033  0.3181  0.1565
 1035TIP3    H124596   1.421   0.007   3.585 -0.1427  1.9040  0.1481
 1035TIP3    H224597   1.490  -0.021   3.716 -0.4251  0.0401 -0.0930
 1036TIP3   OH224598   6.394   2.051   5.840  0.5037  0.3602  0.9027
 1036TIP3    H124599   6.403   2.140   5.874  0.9418  1.4082 -1.8357
 1036TIP3    H224600   6.300   2.039   5.826  0.6486  1.3468 -1.0811
 1037TIP3   OH224601   6.531   3.510  16.524  0.1202 -0.1365  0.2099
 1037TIP3    H124602   6.496   3.599  16.515  2.5467  1.0461  1.9387
 1037TIP3    H224603   6.493   3.478  16.606  1.0009  0.1630  0.7378
 1038TIP3   OH224604   4.701   6.686  13.649 -0.1477 -0.1056 -0.0674
 1038TIP3    H124605   4.616   6.667  13.611  0.0296 -2.2005  0.5502
 1038TIP3    H224606   4.717   6.778  13.626 -1.4671 -0.3924 -2.2379
 1039TIP3   OH224607   3.768   3.454  11.757 -0.0781 -0.0877  0.3437
 1039TIP3    H124608   3.842   3.412  11.801  0.4980  0.0432 -0.4847
 1039TIP3    H224609   3.792   3.547  11.755  0.1324 -0.1611 -0.6814
 1040TIP3   OH224610   0.539   6.610  11.399  0.2230 -0.2482 -0.4760
 1040TIP3    H124611   0.452   6.601  11.437 -0.4164  0.7957 -1.6539
 1040TIP3    H224612   0.585   6.530  11.426  0.0657  0.7409  3.0994
 1041TIP3   OH224613   4.659   6.706   0.139  0.0282 -0.2379  0.9182
 1041TIP3    H124614   4.658   6.755   0.221  0.4780  0.3644  0.5665
 1041TIP3    H224615   4.687   6.618   0.165  0.7645  0.1093  1.3276
 1042TIP3   OH224616   1.741   4.754  12.344  0.5293 -0.0258  0.2703
 1042TIP3    H124617   1.760   4.734  12.252  1.5179  0.5500  0.3379
 1042TIP3    H224618   1.716   4.847  12.343  2.5667  0.5450  0.8489
 1043TIP3   OH224619   2.118   3.935   3.425 -0.0684  0.0152 -0.1076
 1043TIP3    H124620   2.052   3.911   3.360 -2.2275  1.5341  1.4593
 1043TIP3    H224621   2.140   4.026   3.405  1.9103 -0.5963 -0.8715
 1044TIP3   OH224622   0.987   5.553  11.589 -0.0574 -0.1190 -0.1586
 1044TIP3    H124623   0.976   5.580  11.498 -1.6080  0.4046  0.1758
 1044TIP3    H224624   1.066   5.599  11.618 -0.3873  0.8578 -0.7960
 1045TIP3   OH224625   6.246   4.008  14.308  0.8111 -0.7383 -0.6807
 1045TIP3    H124626   6.294   4.038  14.232 -0.2791 -2.6264 -2.1526
 1045TIP3    H224627   6.154   4.016  14.283  0.4639 -2.6227 -0.0935
 1046TIP3   OH224628   5.125   2.330   6.141  0.2852 -0.4754 -1.1204
 1046TIP3    H124629   5.210   2.336   6.096  1.7658  0.1333  1.6557
 1046TIP3    H224630   5.093   2.420   6.144  0.8013 -0.3274  0.1503
 1047TIP3   OH224631   2.413   0.396   4.824 -0.5493  0.8270 -0.0956
 1047TIP3    H124632   2.442   0.449   4.899  0.0298  0.4067 -0.0205
 1047TIP3    H224633   2.322   0.373   4.844  0.1482 -0.7750  1.3216
 1048TIP3   OH224634   1.039   0.380  12.208 -0.5116 -0.4288  0.0126
 1048TIP3    H124635   1.072   0.470  12.214  1.9957 -1.3939  1.4236
 1048TIP3    H224636   0.991   0.366  12.289 -0.1791 -0.6278  0.1761
 1049TIP3   OH224637   2.951   0.016  12.941  0.0956  0.2419  0.1227
 1049TIP3    H124638   2.872   0.054  12.903 -0.0595 -0.8299 -0.6519
 1049TIP3    H224639   2.969   0.069  13.019 -0.2384  1.7523 -0.8150
 1050TIP3   OH224640   1.936   4.387   1.086  0.2023  0.1031 -0.3148
 1050TIP3    H124641   2.001   4.319   1.069 -0.6317 -0.4110 -1.5376
 1050TIP3    H224642   1.957   4.457   1.024 -1.2018 -0.6401 -1.6937
 1051TIP3   OH224643   0.271   6.737  14.579 -0.1570 -0.4488 -0.8726
 1051TIP3    H124644   0.256   6.682  14.656 -1.8643  0.3525 -0.6318
 1051TIP3    H224645   0.273   6.675  14.506 -2.4651 -0.8394 -0.6471
 1052TIP3   OH224646   3.404   2.972   2.626  0.7886 -0.1936 -0.3844
 1052TIP3    H124647   3.309   2.985   2.615  0.9811  0.5060 -1.3066
 1052TIP3    H224648   3.427   3.024   2.703  0.4858 -0.0798 -0.3714
 1053TIP3   OH224649   4.523   3.273   5.368  0.1604  0.0126  0.2208
 1053TIP3    H124650   4.520   3.324   5.288 -1.6244  0.0902  0.3138
 1053TIP3    H224651   4.596   3.212   5.356  2.4568  2.6574  0.1888
 1054TIP3   OH224652   2.851   6.299  13.388 -0.6153  0.2352 -0.0845
 1054TIP3    H124653   2.849   6.288  13.292 -2.1146 -0.6752  0.0225
 1054TIP3    H224654   2.850   6.209  13.421  0.9358  0.5402  0.7862
 1055TIP3   OH224655   1.069   0.724  12.446 -0.2937  0.4845 -0.0391
 1055TIP3    H124656   1.096   0.634  12.463 -1.7736 -0.0437 -0.3731
 1055TIP3    H224657   1.003   0.716  12.376 -0.6950  1.7853  0.1772
 1056TIP3   OH224658   1.712   6.811   2.082  0.0146  0.0876 -0.0038
 1056TIP3    H124659   1.696   6.902   2.058  0.7513  0.0147 -0.7703
 1056TIP3    H224660   1.781   6.815   2.149 -1.6897  0.2545  1.8071
 1057TIP3   OH224661   4.338   2.405  10.834  0.1491 -0.2168 -0.0406
 1057TIP3    H124662   4.408   2.353  10.795  0.8499  0.5482  0.1578
 1057TIP3    H224663   4.258   2.358  10.814  0.6610 -0.7298 -0.8958
 1058TIP3   OH224664   2.151   3.199  12.859 -0.2078  0.2348 -0.0357
 1058TIP3    H124665   2.077   3.250  12.829 -1.2643 -1.4785 -0.4076
 1058TIP3    H224666   2.176   3.145  12.784 -0.1051 -0.9222  0.8157
 1059TIP3   OH224667   2.760   3.553   0.965  0.0573  0.0077 -0.1402
 1059TIP3    H124668   2.698   3.498   0.918  0.7453  0.0453 -1.1220
 1059TIP3    H224669   2.817   3.492   1.011  0.6267 -0.1074 -0.9793
 1060TIP3   OH224670   3.176   0.413  11.670  0.7275  0.0693 -0.1234
 1060TIP3    H124671   3.164   0.422  11.575 -0.0589  0.4910  0.0140
 1060TIP3    H224672   3.171   0.319  11.685  0.6330  0.0150 -0.4737
 1061TIP3   OH224673   6.283   5.534   0.729  0.3776  0.3285 -0.2732
 1061TIP3    H124674   6.286   5.542   0.824 -1.8792  1.3042 -0.2571
 1061TIP3    H224675   6.219   5.464   0.713  1.8078 -0.8472 -1.0689
 1062TIP3   OH224676   1.750   6.721   2.473  0.0496  0.4466  0.2711
 1062TIP3    H124677   1.831   6.683   2.438  0.5956  1.0048  0.9092
 1062TIP3    H224678   1.780   6.790   2.532 -0.9129  1.4505 -0.4014
 1063TIP3   OH224679   6.554   1.541   4.749 -0.3219  0.0915 -0.1112
 1063TIP3    H124680   6.599   1.493   4.679 -2.2303 -0.1855 -1.1729
 1063TIP3    H224681   6.608   1.618   4.763  1.0704 -0.7665 -0.6132
 1064TIP3   OH224682   6.151   2.095   5.096 -0.0982  0.1637 -0.1251
 1064TIP3    H124683   6.163   2.081   5.190 -0.4173  0.2735 -0.0682
 1064TIP3    H224684   6.121   2.186   5.089 -1.0405 -0.1487 -0.2553
 1065TIP3   OH224685   3.208   2.194  15.741  0.0631  0.0349  0.3613
 1065TIP3    H124686   3.220   2.271  15.797 -0.2928 -0.4575  1.1147
 1065TIP3    H224687   3.267   2.209  15.667 -1.0317  1.7164 -0.2012
 1066TIP3   OH224688   4.813   3.009  13.400  0.1851 -0.6699 -0.2057
 1066TIP3    H124689   4.786   3.096  13.429  0.4961 -1.4846  2.7065
 1066TIP3    H224690   4.736   2.972  13.357  0.0416  1.0142 -1.4130
 1067TIP3   OH224691   2.018   2.325   4.322 -0.0739 -0.3723 -0.0454
 1067TIP3    H124692   1.939   2.326   4.376 -0.1319 -0.4301 -0.1300
 1067TIP3    H224693   2.032   2.233   4.300 -0.7485 -0.2253 -1.1514
 1068TIP3   OH224694   4.322   4.097   4.740  0.1493 -0.2725  0.0122
 1068TIP3    H124695   4.407   4.120   4.701 -0.4353  1.5036 -0.2374
 1068TIP3    H224696   4.263   4.089   4.666 -0.0546 -0.8513  0.2367
 1069TIP3   OH224697   2.296   4.004  15.384 -0.2870 -0.6844  0.3560
 1069TIP3    H124698   2.312   4.097  15.401  1.9898 -1.4383  2.6752
 1069TIP3    H224699   2.270   4.001  15.292 -2.6678  2.4824  0.8213
 1070TIP3   OH224700   0.631   0.792   3.468  0.0491  0.1340 -0.4771
 1070TIP3    H124701   0.561   0.752   3.416 -1.0544  0.6406  0.5796
 1070TIP3    H224702   0.664   0.721   3.523 -0.8587  0.2937  0.2924
 1071TIP3   OH224703   5.970   5.354  15.845  0.3907 -0.3835  0.2906
 1071TIP3    H124704   5.979   5.396  15.760  0.3465 -1.6901 -0.3683
 1071TIP3    H224705   6.011   5.268  15.834 -2.5747 -1.8800  0.5943
 1072TIP3   OH224706   6.725   0.739   1.167  0.3995  0.0740  0.5331
 1072TIP3    H124707   6.782   0.688   1.225  0.7624  1.4631  1.4489
 1072TIP3    H224708   6.719   0.688   1.087 -0.9006 -2.3870  2.1273
 1073TIP3   OH224709   1.199   4.205   0.780 -0.3205  0.1006 -0.3524
 1073TIP3    H124710   1.181   4.112   0.762 -3.1942  0.1778  1.6707
 1073TIP3    H224711   1.292   4.207   0.803  0.0571 -2.0882 -1.4775
 1074TIP3   OH224712   5.697   6.573  10.377  0.5744 -0.6681  0.4016
 1074TIP3    H124713   5.679   6.667  10.371 -0.5114 -0.8745  0.2223
 1074TIP3    H224714   5.755   6.564  10.452  0.7672  0.1636  0.3555
 1075TIP3   OH224715   5.613   4.993   3.347  0.5891  0.0341  0.2799
 1075TIP3    H124716   5.519   5.008   3.339  0.3487 -1.6240 -0.1257
 1075TIP3    H224717   5.629   4.993   3.442  0.5525  2.3536  0.3233
 1076TIP3   OH224718   0.732   6.756   2.199 -0.1130  0.0341 -0.3321
 1076TIP3    H124719   0.748   6.732   2.290  0.0756 -1.7880 -0.8213
 1076TIP3    H224720   0.815   6.794   2.169  0.4053 -0.9898 -0.2341
 1077TIP3   OH224721   2.283   6.461   3.414 -0.1230 -0.0542 -0.0757
 1077TIP3    H124722   2.331   6.379   3.427  1.2494  0.8531  0.6589
 1077TIP3    H224723   2.303   6.513   3.492 -1.6795  0.6512 -0.1279
 1078TIP3   OH224724   0.352   1.544   4.722  0.8023  0.0561 -0.2106
 1078TIP3    H124725   0.336   1.635   4.695  3.5692  1.3787  2.4627
 1078TIP3    H224726   0.436   1.521   4.681  1.4510 -0.3698  1.3509
 1079TIP3   OH224727   1.968   1.660   0.947 -0.1423 -0.3538  0.8219
 1079TIP3    H124728   2.059   1.672   0.922 -0.5790 -0.5417 -0.9166
 1079TIP3    H224729   1.941   1.746   0.980  0.3580 -0.0062  0.3367
 1080TIP3   OH224730   3.624   2.033   5.516  0.1119 -0.3583  0.0438
 1080TIP3    H124731   3.591   2.099   5.577 -0.2996  0.1032 -0.6775
 1080TIP3    H224732   3.718   2.048   5.512  0.1650 -0.5032  0.7007
 1081TIP3   OH224733   2.997   3.775   5.339 -0.0037 -0.2767  0.0891
 1081TIP3    H124734   3.067   3.710   5.341  0.3884  0.0940 -1.3786
 1081TIP3    H224735   3.041   3.859   5.329 -0.6624 -0.0761 -1.2454
 1082TIP3   OH224736   3.026   1.291   4.179  0.6298 -0.0433  0.4116
 1082TIP3    H124737   3.070   1.320   4.099  1.3034  0.5549  0.9811
 1082TIP3    H224738   3.064   1.346   4.248 -1.1306  0.5950  0.9087
 1083TIP3   OH224739   5.397   5.499   2.706 -0.6838  0.0014  0.0716
 1083TIP3    H124740   5.352   5.534   2.783 -1.1116  1.2944 -0.7527
 1083TIP3    H224741   5.335   5.513   2.634  1.1364  2.0618 -1.1452
 1084TIP3   OH224742   1.682   1.108  16.697 -0.4787  0.4667 -0.1506
 1084TIP3    H124743   1.613   1.045  16.680 -0.4164  0.5151 -0.5835
 1084TIP3    H224744   1.722   1.078  16.779  1.3737 -1.6836 -1.7946
 1085TIP3   OH224745   6.589   6.394  10.628 -0.1780  0.6143 -0.7109
 1085TIP3    H124746   6.591   6.462  10.561  1.4267 -0.8462 -2.2046
 1085TIP3    H224747   6.665   6.414  10.684 -0.0030  0.3655 -0.8547
 1086TIP3   OH224748   2.106   2.687   1.392 -0.3358 -0.4270  0.6544
 1086TIP3    H124749   2.016   2.689   1.361  0.2067 -0.1802 -0.9847
 1086TIP3    H224750   2.109   2.616   1.455 -1.3420 -1.4123 -0.3815
 1087TIP3   OH224751   3.001   1.494  12.959 -0.2731 -0.4540 -0.0334
 1087TIP3    H124752   3.009   1.576  12.910 -0.4054 -0.1340  0.4735
 1087TIP3    H224753   2.942   1.440  12.907  1.1424 -0.8842 -1.2412
 1088TIP3   OH224754   4.686   0.960  17.147  0.4468 -0.0590 -0.1846
 1088TIP3    H124755   4.780   0.943  17.146  0.4761  0.1462 -1.0721
 1088TIP3    H224756   4.673   1.030  17.083  0.1813  2.5816  2.6568
 1089TIP3   OH224757   6.648   5.525  14.324  0.1545  0.7467  0.4516
 1089TIP3    H124758   6.664   5.493  14.413  0.0550 -0.3780  0.0707
 1089TIP3    H224759   6.652   5.620  14.332  0.3603  0.6482  1.6211
 1090TIP3   OH224760   3.092   3.863  14.926 -0.2179  0.1020 -0.0741
 1090TIP3    H124761   3.121   3.901  15.010  1.6573 -0.6028 -0.3838
 1090TIP3    H224762   3.125   3.773  14.928 -1.2874 -0.3235 -1.0371
 1091TIP3   OH224763   5.725   3.151  12.060  0.2149  0.0329 -0.6299
 1091TIP3    H124764   5.685   3.068  12.032  0.0450  0.1569 -0.7597
 1091TIP3    H224765   5.660   3.191  12.118  0.2460  0.1310 -0.6616
 1092TIP3   OH224766   4.364   4.625   2.579  0.3617 -0.1686 -0.1501
 1092TIP3    H124767   4.453   4.660   2.589  0.0236  0.7400 -0.2516
 1092TIP3    H224768   4.371   4.534   2.607  1.2078  0.0519  0.3856
 1093TIP3   OH224769   3.088   6.666   1.282 -0.4414  0.1792  0.0354
 1093TIP3    H124770   2.998   6.680   1.309 -0.2551 -1.2149  1.3918
 1093TIP3    H224771   3.124   6.603   1.345  1.7743  1.4663  0.1365
 1094TIP3   OH224772   5.548   4.177  15.070 -0.1874 -0.2857 -0.2002
 1094TIP3    H124773   5.584   4.252  15.022  0.0067 -0.6004 -0.5546
 1094TIP3    H224774   5.533   4.111  15.002  0.1674 -0.7683  0.1883
 1095TIP3   OH224775   1.700   0.801   5.133 -1.1198 -0.0204  0.3803
 1095TIP3    H124776   1.783   0.773   5.170 -0.2294  1.8721 -0.1282
 1095TIP3    H224777   1.676   0.878   5.185 -2.8786 -0.9177  0.9429
 1096TIP3   OH224778   3.078   1.250  13.492  0.1872 -0.0629  0.1990
 1096TIP3    H124779   3.029   1.314  13.439 -0.1176  0.4873  1.1371
 1096TIP3    H224780   3.018   1.176  13.502  0.6916 -0.6895 -1.2388
 1097TIP3   OH224781   5.190   4.259   4.188  0.2201 -0.1535  0.1330
 1097TIP3    H124782   5.273   4.227   4.223  0.0911 -2.2795 -1.3946
 1097TIP3    H224783   5.215   4.315   4.114  0.2918 -1.3399 -0.7538
 1098TIP3   OH224784   2.953   4.353  16.764 -0.3354 -0.4086 -0.2725
 1098TIP3    H124785   2.917   4.422  16.820 -1.0337  1.6678 -3.1028
 1098TIP3    H224786   3.044   4.345  16.791 -0.2467  1.6360  0.1812
 1099TIP3   OH224787   5.629   6.214  14.317 -0.2872  0.5430 -0.2855
 1099TIP3    H124788   5.534   6.201  14.318  0.0255 -2.0849 -0.1449
 1099TIP3    H224789   5.664   6.136  14.361  1.9567  1.3088 -0.6503
 1100TIP3   OH224790   3.222   3.074  12.440 -0.5804 -0.2346  0.0025
 1100TIP3    H124791   3.138   3.047  12.404 -0.7086  0.3518 -0.1422
 1100TIP3    H224792   3.282   3.003  12.418 -1.0227 -0.6186  0.0421
 1101TIP3   OH224793   4.408   2.997  15.622  0.0953 -0.4661 -0.9510
 1101TIP3    H124794   4.443   2.993  15.711 -0.9294  0.8620 -0.4704
 1101TIP3    H224795   4.366   2.912  15.609 -0.6614 -0.2908  0.2351
 1102TIP3   OH224796   4.835   1.088   3.693  0.3514 -0.1194  0.3919
 1102TIP3    H124797   4.825   1.058   3.784  1.2877  2.3857  1.3500
 1102TIP3    H224798   4.928   1.075   3.674  0.6685  1.6879  0.6531
 1103TIP3   OH224799   5.815   5.704   1.997  0.4656  0.4356 -0.3239
 1103TIP3    H124800   5.807   5.609   2.003  2.2863  0.2205 -0.9062
 1103TIP3    H224801   5.730   5.734   1.966 -0.8231 -0.7840  1.9290
 1104TIP3   OH224802   5.758   5.893  15.617 -0.1769  0.0831 -0.3030
 1104TIP3    H124803   5.837   5.944  15.631 -0.3287 -0.3290  2.2407
 1104TIP3    H224804   5.751   5.837  15.695 -1.7056 -1.5563 -1.5619
 1105TIP3   OH224805   5.806   2.575   1.194 -0.3456  0.0850  0.3415
 1105TIP3    H124806   5.784   2.492   1.151 -2.5737  0.2427  1.0806
 1105TIP3    H224807   5.788   2.559   1.287  1.6237  0.6421  0.8495
 1106TIP3   OH224808   4.359   4.137   3.014 -0.1275  0.1085 -0.3934
 1106TIP3    H124809   4.318   4.210   2.968  0.0340 -0.8108 -2.0332
 1106TIP3    H224810   4.411   4.179   3.083 -0.7621  1.4815 -0.7225
 1107TIP3   OH224811   4.879   4.322  15.553 -0.3613  0.1629 -0.3679
 1107TIP3    H124812   4.895   4.234  15.521  1.1755  0.4442 -0.3953
 1107TIP3    H224813   4.886   4.315  15.648 -1.5109  0.0131 -0.2849
 1108TIP3   OH224814   6.412   2.521  14.378  0.5115  0.0998  0.5876
 1108TIP3    H124815   6.402   2.459  14.306 -0.0686  0.6037  0.2371
 1108TIP3    H224816   6.506   2.542  14.378  0.5303  0.0230  0.0464
 1109TIP3   OH224817   1.533   2.502  16.946  0.1021  0.7663  0.1983
 1109TIP3    H124818   1.491   2.474  16.865 -2.1191  1.0666  1.2255
 1109TIP3    H224819   1.609   2.553  16.916  0.0848 -0.2501 -1.6759
 1110TIP3   OH224820   0.811   4.334  13.375  0.2287  0.3601  0.0491
 1110TIP3    H124821   0.740   4.270  13.383 -0.3835  0.9376 -0.6989
 1110TIP3    H224822   0.842   4.347  13.465 -0.8788  0.4023  0.4305
 1111TIP3   OH224823   1.234   3.580   2.907  0.0624 -0.0810 -0.1934
 1111TIP3    H124824   1.204   3.603   2.995  0.6865 -0.1979  0.0521
 1111TIP3    H224825   1.251   3.486   2.911  0.7142  0.0284 -0.2504
 1112TIP3   OH224826   6.237   1.692   1.693  0.2531 -0.0820 -0.4540
 1112TIP3    H124827   6.310   1.646   1.734  0.9608 -0.3084 -1.9173
 1112TIP3    H224828   6.187   1.623   1.649 -0.3160  0.1924 -0.2475
 1113TIP3   OH224829   6.152   1.810   2.453  0.2330 -0.0443  0.0569
 1113TIP3    H124830   6.239   1.844   2.476  0.2548 -0.1963  0.1965
 1113TIP3    H224831   6.125   1.863   2.378 -0.2057  1.0259  0.9712
 1114TIP3   OH224832   2.897   2.804  17.022 -0.1469  0.3546  0.8281
 1114TIP3    H124833   2.909   2.798  16.927 -1.0416 -0.2236  0.7394
 1114TIP3    H224834   2.967   2.750  17.059 -0.8118 -0.8145  0.4247
 1115TIP3   OH224835   2.128   0.432  11.052  0.1840 -0.1491 -0.4779
 1115TIP3    H124836   2.106   0.468  10.967  0.5335 -0.5512 -0.7436
 1115TIP3    H224837   2.224   0.432  11.055  0.1732  1.2316  0.5064
 1116TIP3   OH224838   5.426   5.948  16.989 -0.1522  0.5487  0.3125
 1116TIP3    H124839   5.362   5.878  17.001  1.5382 -0.9286  0.8626
 1116TIP3    H224840   5.425   5.995  17.072 -2.0683  1.8718 -0.4270
 1117TIP3   OH224841   4.368   2.492  16.604  0.9657  0.6257 -0.0772
 1117TIP3    H124842   4.288   2.449  16.636 -0.0903  0.4594 -2.8176
 1117TIP3    H224843   4.438   2.455  16.659 -0.5070 -1.1333  0.6901
 1118TIP3   OH224844   5.561   6.339   5.406 -0.4818  0.1120 -0.3563
 1118TIP3    H124845   5.593   6.422   5.442 -0.4813 -0.1986  0.3467
 1118TIP3    H224846   5.478   6.324   5.451  1.6680 -2.5908  2.9222
 1119TIP3   OH224847   6.652   5.201  10.717  0.0695 -0.6413 -0.4607
 1119TIP3    H124848   6.711   5.142  10.764 -1.5362 -0.6624  1.5576
 1119TIP3    H224849   6.702   5.281  10.705  0.3489 -0.4921  1.6414
 1120TIP3   OH224850   3.878   1.239   0.096  0.3333 -0.0605  0.1179
 1120TIP3    H124851   3.837   1.153   0.084 -1.6037  0.6384  1.6127
 1120TIP3    H224852   3.888   1.248   0.191  1.3700  1.0001 -0.0826
 1121TIP3   OH224853   0.382   4.159   3.336  0.9269  0.7179  0.0631
 1121TIP3    H124854   0.440   4.119   3.270  0.5650  1.2703 -0.5925
 1121TIP3    H224855   0.376   4.093   3.405  3.7145  1.3131  0.9542
 1122TIP3   OH224856   6.643   0.858  15.760  0.4743 -0.3785  0.3881
 1122TIP3    H124857   6.593   0.849  15.841  0.3947  1.8597  0.6121
 1122TIP3    H224858   6.735   0.848  15.786  0.5134  1.2449  0.9268
 1123TIP3   OH224859   3.454   3.650  11.201 -0.1325 -0.1413 -0.3987
 1123TIP3    H124860   3.389   3.720  11.214  1.6417  1.8654 -1.8624
 1123TIP3    H224861   3.434   3.614  11.115  0.6079  0.3949 -0.7968
 1124TIP3   OH224862   3.072   5.031   6.667  0.2572  0.1620  0.6036
 1124TIP3    H124863   2.999   5.018   6.606  1.2568 -1.8436 -0.2213
 1124TIP3    H224864   3.135   5.083   6.617 -0.4818  1.7096  1.2422
 1125TIP3   OH224865   4.196   5.161   4.814 -0.2095  0.1124 -0.0166
 1125TIP3    H124866   4.165   5.072   4.797  1.4485 -0.7578  1.4075
 1125TIP3    H224867   4.200   5.167   4.909  1.2288  1.1839 -0.1340
 1126TIP3   OH224868   0.118   0.736  15.571 -0.0340 -0.0795  0.0382
 1126TIP3    H124869   0.056   0.664  15.575  1.7360 -1.5401  2.3890
 1126TIP3    H224870   0.105   0.784  15.653  0.9953  0.3969 -0.0631
 1127TIP3   OH224871   4.453   6.614   2.485 -0.6407 -0.0799 -0.0889
 1127TIP3    H124872   4.486   6.698   2.455  1.2668 -0.4395  0.9138
 1127TIP3    H224873   4.371   6.602   2.437  1.0884  0.4573 -3.3850
 1128TIP3   OH224874   3.816   1.565  12.405 -0.0639 -0.2463  0.2593
 1128TIP3    H124875   3.818   1.543  12.498 -1.3208  0.5880  0.4983
 1128TIP3    H224876   3.724   1.555  12.380 -0.2491  2.2909 -0.1885
 1129TIP3   OH224877   1.632   3.342   2.256  0.8123 -0.2441  0.0098
 1129TIP3    H124878   1.679   3.259   2.265  0.4201 -0.3717  0.9078
 1129TIP3    H224879   1.540   3.319   2.263  0.7221  0.3373  0.8387
 1130TIP3   OH224880   2.942   3.374  12.703 -0.2624  0.0172 -0.1635
 1130TIP3    H124881   2.902   3.436  12.765  1.1215  1.5174 -0.7464
 1130TIP3    H224882   2.920   3.409  12.617 -0.8536 -1.2209 -0.5303
 1131TIP3   OH224883   3.045   5.690   4.133 -0.1530  0.2804 -0.0118
 1131TIP3    H124884   3.014   5.730   4.051  1.8002 -0.1223 -0.9888
 1131TIP3    H224885   3.140   5.682   4.121 -0.2625 -3.1473  0.7887
 1132TIP3   OH224886   2.766   3.009  15.063  0.3923 -0.2614 -0.5739
 1132TIP3    H124887   2.759   2.941  14.996 -1.6545  0.8815 -1.5518
 1132TIP3    H224888   2.717   3.083  15.028  0.4198  0.8435  1.6155
 1133TIP3   OH224889   2.349   4.078   0.649  0.5695 -0.7138 -0.1430
 1133TIP3    H124890   2.440   4.057   0.632  1.0580  0.9603  0.3608
 1133TIP3    H224891   2.343   4.084   0.745 -0.1588 -1.1852 -0.1500
 1134TIP3   OH224892   5.529   4.289   0.734  0.1497  0.6492  0.1569
 1134TIP3    H124893   5.562   4.379   0.736 -0.5615  0.8897  1.3432
 1134TIP3    H224894   5.435   4.297   0.750 -0.1242 -0.2135 -0.9612
 1135TIP3   OH224895   1.354   0.497  13.774 -0.0153 -0.0677  0.5821
 1135TIP3    H124896   1.425   0.542  13.820  1.0354 -0.0580 -0.9890
 1135TIP3    H224897   1.301   0.458  13.843  0.6889  1.1709  1.8515
 1136TIP3   OH224898   1.849   2.587   3.244  0.2178  0.1069 -0.5112
 1136TIP3    H124899   1.844   2.677   3.274  3.6089 -0.0079  0.5470
 1136TIP3    H224900   1.926   2.584   3.188  0.4373 -2.2310 -0.1513
 1137TIP3   OH224901   6.156   4.806   0.476 -0.1056  0.1781 -0.5617
 1137TIP3    H124902   6.218   4.733   0.481  1.6663  1.4854 -2.4879
 1137TIP3    H224903   6.090   4.786   0.542 -0.8511 -4.2219 -2.4791
 1138TIP3   OH224904   0.341   6.514  13.938 -0.0921  0.8477  0.2606
 1138TIP3    H124905   0.296   6.542  14.017  0.4121 -2.1898  1.6991
 1138TIP3    H224906   0.293   6.436  13.910  2.2238 -0.5127 -0.0554
 1139TIP3   OH224907   4.170   3.589  15.311  0.2997 -0.7182  0.1334
 1139TIP3    H124908   4.102   3.542  15.360  0.7757 -2.1251 -0.5373
 1139TIP3    H224909   4.243   3.528  15.306 -0.3482 -1.2966 -3.7620
 1140TIP3   OH224910   5.435   6.279  15.508 -0.2465  0.2152 -0.4930
 1140TIP3    H124911   5.429   6.340  15.582 -0.0945 -1.0186  0.5565
 1140TIP3    H224912   5.435   6.192  15.549 -0.2630 -0.4849 -1.9563
 1141TIP3   OH224913   6.692   2.118  16.054 -0.2145 -0.3610  0.3330
 1141TIP3    H124914   6.718   2.177  16.125  1.6388 -0.4372 -0.2446
 1141TIP3    H224915   6.708   2.031  16.089  0.4516 -0.4063 -0.0824
 1142TIP3   OH224916   1.303   4.403  15.675 -0.2908  0.8750  0.1833
 1142TIP3    H124917   1.391   4.369  15.687 -0.1595  1.8636  2.3257
 1142TIP3    H224918   1.282   4.444  15.759 -2.1031  2.2000 -0.8897
 1143TIP3   OH224919   2.484   4.183   3.423 -0.0905 -0.5698  0.2358
 1143TIP3    H124920   2.572   4.221   3.425 -1.2799  2.2866  2.8092
 1143TIP3    H224921   2.426   4.257   3.405 -2.0392 -2.3876 -1.3474
 1144TIP3   OH224922   3.899   6.686   1.449  0.0513 -0.0231 -0.9334
 1144TIP3    H124923   3.942   6.763   1.413 -0.2585  0.5864 -0.0349
 1144TIP3    H224924   3.853   6.719   1.527 -0.1757 -1.0892 -0.6072
 1145TIP3   OH224925   6.180   5.760  13.127  0.7814 -0.1710 -0.1030
 1145TIP3    H124926   6.086   5.766  13.113  0.9263  0.6105 -0.7783
 1145TIP3    H224927   6.203   5.838  13.177  1.0444 -0.4385  0.1985
 1146TIP3   OH224928   3.397   0.672  13.845 -0.7330 -0.5238 -0.3930
 1146TIP3    H124929   3.339   0.664  13.769 -1.1160  2.1290 -0.4144
 1146TIP3    H224930   3.384   0.762  13.875  2.0947 -0.4410  0.6424
 1147TIP3   OH224931   0.759   3.225   0.340 -0.0075 -0.5433  0.1985
 1147TIP3    H124932   0.798   3.158   0.396  3.5860 -0.4518 -2.0549
 1147TIP3    H224933   0.809   3.304   0.359 -0.0570 -0.0444 -1.6901
 1148TIP3   OH224934   4.226   6.499  16.811 -0.4071  0.6618  0.3527
 1148TIP3    H124935   4.170   6.577  16.816 -1.3091  0.0177  0.4207
 1148TIP3    H224936   4.181   6.433  16.864  0.4802  0.1623  0.5092
 1149TIP3   OH224937   3.675   4.649   0.728  0.0451  0.2384 -0.0678
 1149TIP3    H124938   3.686   4.635   0.822 -0.8779 -1.4588 -0.2081
 1149TIP3    H224939   3.615   4.723   0.722  0.3880  0.5863  0.6642
 1150TIP3   OH224940   5.512   3.989  16.975 -0.4463  0.1132  0.4049
 1150TIP3    H124941   5.512   3.893  16.977  0.6193  0.0820 -0.8318
 1150TIP3    H224942   5.569   4.012  16.902 -0.9031  1.6960  0.5282
 1151TIP3   OH224943   5.523   4.911   2.081 -0.1243  0.3472  0.0288
 1151TIP3    H124944   5.504   4.910   1.987  2.3772 -0.1803 -0.5264
 1151TIP3    H224945   5.575   4.991   2.094  1.4020 -0.7090  0.5449
 1152TIP3   OH224946   2.357   4.807  14.102  0.7548 -0.2812 -0.1339
 1152TIP3    H124947   2.291   4.814  14.033  0.3767 -3.0780 -0.0915
 1152TIP3    H224948   2.406   4.889  14.095 -0.3527  0.2365 -2.6140
 1153TIP3   OH224949   6.590   6.342  11.583  0.2665 -0.0830  0.0188
 1153TIP3    H124950   6.668   6.321  11.531  1.0076 -2.4356  1.9839
 1153TIP3    H224951   6.519   6.295  11.540  0.4718 -0.3235 -0.0553
 1154TIP3   OH224952   1.223   0.123  16.185 -0.1549  0.3913  0.0494
 1154TIP3    H124953   1.193   0.214  16.174 -0.9071  0.6424  3.7187
 1154TIP3    H224954   1.151   0.070  16.151 -1.2608  1.1275  1.2256
 1155TIP3   OH224955   0.794   4.977   1.687  0.3540 -0.3731 -0.1489
 1155TIP3    H124956   0.821   4.988   1.778  0.8687 -1.2686 -0.1863
 1155TIP3    H224957   0.877   4.979   1.638  0.3064 -2.5734 -0.3275
 1156TIP3   OH224958   3.628   1.567   0.836 -0.4319 -0.0587 -0.5473
 1156TIP3    H124959   3.615   1.643   0.779 -0.0558  0.7156  0.3628
 1156TIP3    H224960   3.623   1.604   0.925  1.4307 -0.8084 -0.1070
 1157TIP3   OH224961   3.999   0.718  16.584  0.0738  0.0418 -0.4899
 1157TIP3    H124962   4.070   0.771  16.620  0.4476 -2.3555  2.5436
 1157TIP3    H224963   4.042   0.641  16.547 -0.8840 -1.8246  2.1036
 1158TIP3   OH224964   5.724   1.625   0.459 -0.1720  0.3245  0.6509
 1158TIP3    H124965   5.654   1.599   0.518  0.0450 -0.5601  0.5194
 1158TIP3    H224966   5.748   1.713   0.488 -2.4178  1.2926 -0.2891
 1159TIP3   OH224967   6.183   5.188  16.851 -0.5392  0.6229 -0.0467
 1159TIP3    H124968   6.254   5.126  16.869 -2.2717 -1.5207 -0.2850
 1159TIP3    H224969   6.190   5.206  16.758 -0.5415  0.0908 -0.1563
 1160TIP3   OH224970   0.540   2.532   5.285 -0.4388 -0.0265  0.1861
 1160TIP3    H124971   0.592   2.523   5.205  0.1428  1.3124  0.3867
 1160TIP3    H224972   0.606   2.540   5.355 -0.9400 -1.0768  0.7851
 1161TIP3   OH224973   2.131   2.143  16.530  0.5264  0.1854 -0.2255
 1161TIP3    H124974   2.051   2.103  16.565 -0.0746  0.3808 -1.3601
 1161TIP3    H224975   2.131   2.120  16.437  2.3957 -0.7784 -0.0048
 1162TIP3   OH224976   5.059   0.066  13.159 -0.1098  0.0572 -0.2884
 1162TIP3    H124977   5.053   0.162  13.165  2.3196  0.2894 -1.2285
 1162TIP3    H224978   5.082   0.038  13.248  0.5482  0.4522 -0.3368
 1163TIP3   OH224979   4.034   3.599  10.861 -0.6989 -0.1057 -0.0214
 1163TIP3    H124980   3.976   3.668  10.830 -1.9414 -1.2474 -0.2971
 1163TIP3    H224981   4.070   3.560  10.781  0.8344  0.9024  0.1584
 1164TIP3   OH224982   5.651   5.402  14.270 -0.1764  0.3895  0.5780
 1164TIP3    H124983   5.624   5.316  14.304  0.3087  0.6607  1.6738
 1164TIP3    H224984   5.661   5.456  14.348 -1.3159  1.6961 -0.1595
 1165TIP3   OH224985   0.645   3.340   4.806  0.4724 -0.4970  0.1889
 1165TIP3    H124986   0.615   3.252   4.827 -0.7302 -0.8248 -2.6847
 1165TIP3    H224987   0.739   3.330   4.791  0.7744 -0.8162  2.1953
 1166TIP3   OH224988   4.607   3.665  15.014  0.3210  0.3872 -0.1115
 1166TIP3    H124989   4.516   3.694  15.023  0.7047  2.0553 -1.2443
 1166TIP3    H224990   4.610   3.621  14.930  1.0192  2.3657 -1.1689
 1167TIP3   OH224991   0.823   2.224  14.645 -0.0112 -0.5174  0.9263
 1167TIP3    H124992   0.918   2.229  14.636 -0.0864 -2.6348 -1.2202
 1167TIP3    H224993   0.789   2.232  14.556 -1.7962 -1.1328  1.5246
 1168TIP3   OH224994   5.910   2.120  15.977  1.0149  0.4140 -0.5889
 1168TIP3    H124995   5.826   2.076  15.962  2.4391 -2.5458 -0.1828
 1168TIP3    H224996   5.901   2.157  16.065  0.1486  0.0402 -0.5063
 1169TIP3   OH224997   4.413   5.083   6.279  0.0953 -0.7551  0.5769
 1169TIP3    H124998   4.383   4.996   6.255 -0.8700 -0.3550  0.3087
 1169TIP3    H224999   4.495   5.069   6.326  0.3365 -1.7569 -0.1347
 1170TIP3   OH225000   6.609   4.707   5.536 -1.2715  0.3582 -0.8806
 1170TIP3    H125001   6.532   4.742   5.579  0.5444  2.4716  0.7219
 1170TIP3    H225002   6.621   4.763   5.459  0.3420  1.9031  0.4718
 1171TIP3   OH225003   0.023   0.112   4.869  0.0580 -0.2895 -0.5740
 1171TIP3    H125004   0.010   0.027   4.827 -0.4282  0.2955 -1.6530
 1171TIP3    H225005  -0.066   0.144   4.885  0.2317 -0.7540  1.4694
 1172TIP3   OH225006   0.783   1.804  12.864 -0.5202  0.0484 -0.2396
 1172TIP3    H125007   0.723   1.863  12.909  2.1186  0.9669  2.2107
 1172TIP3    H225008   0.815   1.854  12.789  0.7645  1.3390  1.1318
 1173TIP3   OH225009   2.210   0.982  15.527  0.5310 -0.3335 -0.0620
 1173TIP3    H125010   2.168   0.925  15.591 -0.9571  0.6592 -0.1232
 1173TIP3    H225011   2.145   1.050  15.509  2.1893  1.2750 -0.1304
 1174TIP3   OH225012   5.986   4.048   3.525  0.7090 -0.1278 -0.6554
 1174TIP3    H125013   5.943   4.101   3.592  0.9416 -0.0407 -0.5742
 1174TIP3    H225014   6.023   3.973   3.573 -0.3866 -0.8292 -0.8959
 1175TIP3   OH225015   3.587   0.431   2.607 -0.1883 -0.2949  0.6909
 1175TIP3    H125016   3.584   0.338   2.633 -0.7971 -0.1227  1.2582
 1175TIP3    H225017   3.680   0.450   2.597  0.0363 -0.5707  2.0619
 1176TIP3   OH225018   5.399   3.147   0.949  0.6277  0.7385  0.0377
 1176TIP3    H125019   5.305   3.150   0.970  0.4169  1.2398 -0.9512
 1176TIP3    H225020   5.402   3.154   0.854  1.5970 -1.0142 -0.0755
 1177TIP3   OH225021   5.624   3.779   5.501 -0.2565 -0.0646 -0.0887
 1177TIP3    H125022   5.584   3.799   5.586 -0.4943  2.4006 -0.7377
 1177TIP3    H225023   5.550   3.758   5.444 -0.2310 -0.1120 -0.1049
 1178TIP3   OH225024   6.195   6.539  16.208  0.2178 -0.1694  0.3170
 1178TIP3    H125025   6.130   6.469  16.200 -0.1276  0.0494  1.2238
 1178TIP3    H225026   6.143   6.619  16.207  0.6095  0.0864 -0.6702
 1179TIP3   OH225027   6.354   1.450   3.873  0.2140 -0.0033 -0.6195
 1179TIP3    H125028   6.410   1.386   3.919 -2.6401 -2.4120 -0.3608
 1179TIP3    H225029   6.329   1.512   3.941  1.7105  0.5050 -0.5132
 1180TIP3   OH225030   4.509   3.427   3.163  0.1873  0.6739  0.3163
 1180TIP3    H125031   4.451   3.503   3.168  1.6496  1.7883  0.6043
 1180TIP3    H225032   4.464   3.360   3.214 -2.1354  0.6420 -1.6405
 1181TIP3   OH225033   3.835   2.807   0.409  0.2561  0.3040  0.4124
 1181TIP3    H125034   3.864   2.759   0.487  2.2035 -0.4963 -0.7756
 1181TIP3    H225035   3.824   2.897   0.440  1.3737  0.0744  1.5379
 1182TIP3   OH225036   1.024   0.709  16.316  0.1352  0.0772  0.0759
 1182TIP3    H125037   0.989   0.699  16.404 -2.0290  1.2951 -0.6094
 1182TIP3    H225038   1.090   0.778  16.325  0.6337 -0.5029  0.9205
 1183TIP3   OH225039   4.058   1.538   1.960 -0.6496 -0.3152 -0.1809
 1183TIP3    H125040   4.088   1.503   2.044  3.2365 -0.0112 -1.3563
 1183TIP3    H225041   4.029   1.460   1.911 -0.3348 -0.8204  0.4307
 1184TIP3   OH225042   3.417   3.650   0.537 -0.0122 -0.1174 -0.0440
 1184TIP3    H125043   3.506   3.617   0.525 -0.3538 -1.7724  1.8024
 1184TIP3    H225044   3.375   3.637   0.452  0.7404 -1.7267 -0.1820
 1185TIP3   OH225045   5.459   3.308  12.197 -0.4867  0.8482 -0.1169
 1185TIP3    H125046   5.525   3.373  12.175  0.9380 -1.0840 -1.7895
 1185TIP3    H225047   5.430   3.273  12.113 -2.0552  0.1316  0.6963
 1186TIP3   OH225048   3.529   0.686  13.265 -0.0961  0.0408 -0.0835
 1186TIP3    H125049   3.518   0.768  13.313 -0.8630 -0.3554  0.4197
 1186TIP3    H225050   3.604   0.702  13.208  1.8671 -0.0318  2.4064
 1187TIP3   OH225051   6.633   3.055  13.858  0.5860 -0.4341  0.0209
 1187TIP3    H125052   6.620   3.028  13.949 -1.1946  0.3569  0.0360
 1187TIP3    H225053   6.552   3.027  13.814  1.5236 -1.0168 -1.3771
 1188TIP3   OH225054   5.607   5.166  11.215  0.3015  0.1142  0.1390
 1188TIP3    H125055   5.613   5.260  11.197  0.0726  0.3759  1.3699
 1188TIP3    H225056   5.637   5.157  11.306  1.5653 -1.1716 -0.3817
 1189TIP3   OH225057   5.135   6.731   3.309  0.1406  0.2417 -0.6301
 1189TIP3    H125058   5.167   6.776   3.231  0.4829 -1.9882 -1.8146
 1189TIP3    H225059   5.042   6.715   3.291  0.3363 -0.7158 -0.7923
 1190TIP3   OH225060   0.479   6.447   1.330 -0.1200 -0.0009 -0.1443
 1190TIP3    H125061   0.567   6.435   1.366 -0.3215 -0.7532  0.1180
 1190TIP3    H225062   0.464   6.368   1.277 -0.6068  0.1604 -0.2513
 1191TIP3   OH225063   2.718   1.826  13.341 -0.4176 -0.4930 -0.3452
 1191TIP3    H125064   2.649   1.809  13.277 -0.1081  1.3681 -1.2135
 1191TIP3    H225065   2.777   1.887  13.296  1.1015 -1.0581  0.8507
 1192TIP3   OH225066   4.013   3.436   3.161 -0.2116 -0.1790 -0.0587
 1192TIP3    H125067   4.030   3.477   3.246  1.5952 -0.6256 -0.1966
 1192TIP3    H225068   4.042   3.500   3.097  2.4317 -1.5470 -0.2804
 1193TIP3   OH225069   3.000   1.303  10.838  0.4009 -0.5255 -0.2528
 1193TIP3    H125070   3.052   1.226  10.861  1.2483 -1.1648 -3.9753
 1193TIP3    H225071   2.909   1.271  10.840  0.6590 -1.3041 -0.5667
 1194TIP3   OH225072   1.063   3.376   6.850  0.7775  0.2758 -0.1766
 1194TIP3    H125073   1.035   3.337   6.932  0.9397 -1.0133 -0.7133
 1194TIP3    H225074   1.154   3.346   6.839  0.9784  0.9919 -0.4860
 1195TIP3   OH225075   2.595   5.070  13.897  0.0297  0.0011  0.4951
 1195TIP3    H125076   2.690   5.059  13.889 -0.0392 -0.8630  0.7855
 1195TIP3    H225077   2.576   5.153  13.853  0.4972 -1.4331 -2.5145
 1196TIP3   OH225078   4.438   3.540   2.318 -0.6941 -0.0333 -0.1874
 1196TIP3    H125079   4.471   3.458   2.354  1.7227  0.9704 -0.0328
 1196TIP3    H225080   4.510   3.602   2.329 -3.1633  2.6585  1.5282
 1197TIP3   OH225081   0.249   4.983  12.604 -0.6769  0.4289  0.2301
 1197TIP3    H125082   0.302   4.913  12.565  0.6515  1.3215  0.4114
 1197TIP3    H225083   0.312   5.048  12.633 -1.9407  1.9381 -0.3574
 1198TIP3   OH225084   5.514   2.497  17.119 -0.0248 -0.2239 -0.4722
 1198TIP3    H125085   5.421   2.490  17.136  0.0912  0.4264  0.4620
 1198TIP3    H225086   5.552   2.419  17.159 -0.3292 -1.2244 -2.1122
 1199TIP3   OH225087   2.499   5.018  12.150 -0.0656  0.6557 -0.4151
 1199TIP3    H125088   2.437   4.997  12.219  1.6994 -2.4256  0.3144
 1199TIP3    H225089   2.452   5.001  12.069 -0.3294 -1.2990  0.1255
 1200TIP3   OH225090   4.000   5.268   3.823 -0.2904 -0.1738  0.0191
 1200TIP3    H125091   4.049   5.340   3.784  1.3691 -1.4114 -0.2159
 1200TIP3    H225092   3.927   5.253   3.762  0.1250  0.4237 -0.6238
 1201TIP3   OH225093   3.173   6.594  14.735 -0.3395  0.2025 -0.3925
 1201TIP3    H125094   3.205   6.507  14.712 -0.2770  0.0185  0.3869
 1201TIP3    H225095   3.245   6.634  14.785 -0.9291  0.1547  0.5090
 1202TIP3   OH225096   0.639   2.133  16.699  0.1156 -0.4506 -0.2511
 1202TIP3    H125097   0.679   2.198  16.756  0.8997 -0.3474 -0.8972
 1202TIP3    H225098   0.658   2.165  16.610 -0.7096 -0.8251 -0.5625
 1203TIP3   OH225099   1.310   4.885  12.925 -0.2806 -0.4304  0.2580
 1203TIP3    H125100   1.346   4.968  12.893 -0.0422  0.2929  2.3537
 1203TIP3    H225101   1.386   4.835  12.953 -0.2600 -2.1063 -2.5996
 1204TIP3   OH225102   5.659   3.714  16.750  0.2181 -0.0963  0.0829
 1204TIP3    H125103   5.652   3.695  16.843  1.0832 -1.3320 -0.0920
 1204TIP3    H225104   5.569   3.711  16.718 -0.0884  0.3670  0.8796
 1205TIP3   OH225105   0.039   5.067  17.128 -0.1326 -0.0345  0.2381
 1205TIP3    H125106   0.015   4.976  17.145 -1.1273 -0.4554 -3.1911
 1205TIP3    H225107   0.132   5.065  17.110  0.3374  0.0168  2.4396
 1206TIP3   OH225108   5.206   4.514   4.344  0.2224 -0.1487 -0.3698
 1206TIP3    H125109   5.142   4.517   4.274 -0.6742 -1.0697  0.4008
 1206TIP3    H225110   5.211   4.422   4.368 -0.1757  0.2743  1.4089
 1207TIP3   OH225111   4.673   3.412   2.464 -0.3582  0.2101  0.0172
 1207TIP3    H125112   4.738   3.445   2.402 -0.4519  0.2809 -0.0436
 1207TIP3    H225113   4.723   3.391   2.543  0.1926 -2.5355 -1.0171
 1208TIP3   OH225114   3.600   0.900   2.253 -0.1711 -0.1449 -0.5503
 1208TIP3    H125115   3.589   0.992   2.228 -1.7731 -0.7394 -2.1017
 1208TIP3    H225116   3.520   0.878   2.300  0.4741 -0.5853  0.3460
 1209TIP3   OH225117   4.441   2.113  13.830 -0.5895  0.4466  0.0620
 1209TIP3    H125118   4.367   2.173  13.840 -1.9906 -1.0167 -1.1782
 1209TIP3    H225119   4.401   2.027  13.817  1.3329 -0.4106 -0.4555
 1210TIP3   OH225120   6.250   4.579   0.226  0.2311  0.3634 -0.0691
 1210TIP3    H125121   6.291   4.639   0.288  0.1697  1.1018 -0.7300
 1210TIP3    H225122   6.182   4.632   0.184  0.9562  0.1836 -1.4894
 1211TIP3   OH225123   5.001   4.239   5.871  0.2261 -0.8538  0.0894
 1211TIP3    H125124   4.953   4.190   5.938 -0.6222  1.4689  1.2125
 1211TIP3    H225125   4.934   4.263   5.807 -0.3652  3.0163  2.0225
 1212TIP3   OH225126   6.726   6.549  16.863 -0.1108  0.2112  0.1208
 1212TIP3    H125127   6.669   6.568  16.789 -0.5457  0.3912  0.5058
 1212TIP3    H225128   6.674   6.494  16.921  0.1525  0.2533  0.4003
 1213TIP3   OH225129   5.572   1.769  12.758 -0.4310  0.6069 -0.1773
 1213TIP3    H125130   5.598   1.858  12.734  0.6132 -0.3995 -2.9906
 1213TIP3    H225131   5.477   1.768  12.750 -0.3770  1.2703 -0.9198
 1214TIP3   OH225132   0.437   2.137  14.463 -0.0137 -0.2922 -0.0418
 1214TIP3    H125133   0.379   2.116  14.389 -0.0726  0.7019 -0.2973
 1214TIP3    H225134   0.492   2.209  14.430 -0.0106  0.1314  0.8638
 1215TIP3   OH225135   4.720   2.157   6.012 -0.3490  0.4128  0.0107
 1215TIP3    H125136   4.654   2.149   5.944 -0.2944  2.0837 -0.2462
 1215TIP3    H225137   4.803   2.136   5.968 -0.5367 -0.4129  0.0357
 1216TIP3   OH225138   5.327   2.236   3.601 -0.0528  0.2783 -0.0880
 1216TIP3    H125139   5.300   2.222   3.510  1.1828 -1.5265 -0.2094
 1216TIP3    H225140   5.416   2.202   3.604 -0.0494  0.4402  1.7666
 1217TIP3   OH225141   5.241   3.705  11.119 -0.6141 -1.0596  0.2388
 1217TIP3    H125142   5.158   3.753  11.119  0.3318  0.6514  1.6209
 1217TIP3    H225143   5.279   3.722  11.032 -0.7269 -0.0758  0.3779
 1218TIP3   OH225144   2.417   2.665   1.705  0.4220  0.2744 -0.7211
 1218TIP3    H125145   2.502   2.683   1.745  0.2240 -1.1015  0.3547
 1218TIP3    H225146   2.356   2.723   1.750  0.2176 -1.1940  0.9781
 1219TIP3   OH225147   4.544   4.462   1.468 -0.0693 -0.9700 -0.3740
 1219TIP3    H125148   4.450   4.467   1.488 -0.1895 -1.4540 -0.7913
 1219TIP3    H225149   4.587   4.458   1.553 -0.3832 -0.0001 -0.1626
 1220TIP3   OH225150   3.307   2.945  13.908  0.5628 -0.2655  0.0658
 1220TIP3    H125151   3.397   2.956  13.878  0.1627 -0.7270 -1.3085
 1220TIP3    H225152   3.295   2.851  13.916 -0.1457 -0.2595 -0.8352
 1221TIP3   OH225153   0.463   4.049   3.103 -0.6407 -0.6248  0.1431
 1221TIP3    H125154   0.446   3.957   3.122 -1.0959 -0.6124 -0.2247
 1221TIP3    H225155   0.509   4.049   3.019 -2.6451 -0.3604 -0.9630
 1222TIP3   OH225156   4.955   0.174  11.751 -0.4958 -0.1885 -0.3729
 1222TIP3    H125157   5.047   0.162  11.727 -0.1165 -2.3206  1.9408
 1222TIP3    H225158   4.956   0.249  11.810 -0.7154  1.7223 -2.7127
 1223TIP3   OH225159   6.611   0.738  16.475  0.3358  0.6109  0.5241
 1223TIP3    H125160   6.576   0.660  16.432  0.3174  0.4254  0.8704
 1223TIP3    H225161   6.696   0.710  16.509  0.6389  0.9440  0.0386
 1224TIP3   OH225162   6.461   0.413  17.132  0.4708  0.8045  0.5069
 1224TIP3    H125163   6.545   0.458  17.116  1.6117 -1.5281 -0.2786
 1224TIP3    H225164   6.480   0.353  17.204  0.0982 -1.3390 -1.1650
 1225TIP3   OH225165   3.699   4.599  17.010  0.3893 -0.3419  0.2376
 1225TIP3    H125166   3.743   4.522  16.973  1.5852  0.7240 -0.5968
 1225TIP3    H225167   3.713   4.668  16.945 -2.4146  0.0840  0.0148
 1226TIP3   OH225168   4.369   0.692   3.257 -1.0178 -0.1993  0.1998
 1226TIP3    H125169   4.423   0.717   3.181  0.2653 -2.7599  0.2357
 1226TIP3    H225170   4.280   0.692   3.223 -0.3422 -2.6020 -1.6993
 1227TIP3   OH225171   4.119   0.737  12.921  0.4974  0.0678  0.3881
 1227TIP3    H125172   4.169   0.817  12.939 -0.6990  0.7868  0.5656
 1227TIP3    H225173   4.181   0.666  12.940  1.6061  0.9430  0.1309
 1228TIP3   OH225174   1.534   3.859   0.418  0.1449 -0.6521  0.5662
 1228TIP3    H125175   1.525   3.942   0.465 -0.2727 -1.2760  1.6065
 1228TIP3    H225176   1.533   3.884   0.326 -1.0300  0.4002  0.8468
 1229TIP3   OH225177   2.888   4.364   4.089  0.2562  0.0305  0.0549
 1229TIP3    H125178   2.794   4.360   4.104  0.1182  1.0622 -0.4836
 1229TIP3    H225179   2.897   4.411   4.006  1.2253 -0.5037 -0.1484
 1230TIP3   OH225180   3.808   5.310   1.073 -0.2061  0.6335 -0.8132
 1230TIP3    H125181   3.774   5.384   1.022 -0.1149  0.6889 -0.7935
 1230TIP3    H225182   3.742   5.296   1.141 -0.9422 -0.2158 -1.6691
 1231TIP3   OH225183   2.277   1.734   2.528 -0.0218  0.3263 -0.2175
 1231TIP3    H125184   2.359   1.687   2.513 -0.1087  0.4714 -1.1699
 1231TIP3    H225185   2.209   1.675   2.495 -0.0101  1.7807 -2.9224
 1232TIP3   OH225186   3.451   3.014  13.395 -0.2025 -0.3102  0.2262
 1232TIP3    H125187   3.544   3.035  13.405 -0.0704 -0.7949  0.0515
 1232TIP3    H225188   3.432   3.035  13.303 -0.7392  1.5812  0.7497
 1233TIP3   OH225189   2.285   0.163  10.796 -0.9106  0.2193 -0.6117
 1233TIP3    H125190   2.328   0.182  10.879  1.8480 -0.2764 -1.8742
 1233TIP3    H225191   2.246   0.077  10.808 -0.5599  0.1691  0.1855
 1234TIP3   OH225192   3.989   4.733  17.264  0.8840 -0.1314 -0.4311
 1234TIP3    H125193   3.917   4.684  17.305 -0.5035  2.3459  0.2223
 1234TIP3    H225194   4.067   4.705  17.311  0.2210 -2.0625 -0.4168
 1235TIP3   OH225195   5.032   2.751   2.438 -0.0738  0.3306 -0.2375
 1235TIP3    H125196   4.994   2.832   2.405 -0.3663  0.7232  1.0628
 1235TIP3    H225197   5.124   2.773   2.454 -0.5367  0.9210  1.7715
 1236TIP3   OH225198   3.688   4.130  12.688 -0.2486 -0.1076  0.2824
 1236TIP3    H125199   3.670   4.122  12.594 -0.5181 -1.5251  0.4351
 1236TIP3    H225200   3.780   4.105  12.697 -0.6654 -1.5786  0.5839
 1237TIP3   OH225201   6.449   3.922   5.063 -0.2380 -0.9077 -0.1873
 1237TIP3    H125202   6.482   3.913   5.152  1.6034  1.1158 -0.6203
 1237TIP3    H225203   6.444   3.832   5.030  1.3333 -1.5162  1.1580
 1238TIP3   OH225204   4.196   3.939  11.870  0.3952  0.0652  0.2495
 1238TIP3    H125205   4.237   3.904  11.791 -0.2110 -0.1488  0.0222
 1238TIP3    H225206   4.173   3.862  11.921 -0.1070  0.1682  0.1786
 1239TIP3   OH225207   3.632   0.216  15.838 -0.0457  0.3589 -0.2403
 1239TIP3    H125208   3.678   0.183  15.915 -0.6013 -1.6763 -0.7331
 1239TIP3    H225209   3.573   0.145  15.814 -0.4313  1.2784 -2.0710
 1240TIP3   OH225210   3.110   1.607  13.600 -0.3176  0.2944  0.1259
 1240TIP3    H125211   3.043   1.641  13.540  0.9807  0.5274 -1.2309
 1240TIP3    H225212   3.186   1.664  13.586  0.3544 -0.3196  1.2221
 1241TIP3   OH225213   2.860   1.780  15.310  0.5971 -0.7798  0.2698
 1241TIP3    H125214   2.797   1.721  15.353  0.9722 -0.3154  1.5020
 1241TIP3    H225215   2.825   1.868  15.327  2.1365 -0.4506  1.9547
 1242TIP3   OH225216   5.192   4.512   6.397 -0.2526 -0.9590  0.0956
 1242TIP3    H125217   5.274   4.549   6.430 -0.3281 -0.2600 -0.4699
 1242TIP3    H225218   5.125   4.571   6.432 -0.6237 -2.2237  1.5594
 1243TIP3   OH225219   5.317   3.945   3.505 -0.4014  0.5145 -0.0283
 1243TIP3    H125220   5.376   4.006   3.460 -0.7428  1.2424  0.4861
 1243TIP3    H225221   5.266   3.905   3.436 -1.5794  2.3179 -0.2394
 1244TIP3   OH225222   5.728   1.434   5.011  0.1911 -0.0357  0.1863
 1244TIP3    H125223   5.757   1.505   4.954  0.8238  0.0853  0.6542
 1244TIP3    H225224   5.685   1.477   5.084 -1.4219 -0.2259 -0.6365
 1245TIP3   OH225225   5.229   0.808  14.548 -0.5773  0.6043 -0.5979
 1245TIP3    H125226   5.244   0.869  14.621  1.2240 -1.0867  0.4647
 1245TIP3    H225227   5.280   0.844  14.476 -1.1927  1.4735 -0.6149
 1246TIP3   OH225228   1.698   3.101  14.100  0.0626 -0.3299 -0.0400
 1246TIP3    H125229   1.700   3.181  14.047 -0.6695  0.1928  0.7099
 1246TIP3    H225230   1.715   3.030  14.038  0.0021  0.3444 -0.8308
 1247TIP3   OH225231   6.405   0.066   4.631 -0.7052 -0.1443 -0.3401
 1247TIP3    H125232   6.491   0.109   4.634 -0.8785  0.2260 -0.6632
 1247TIP3    H225233   6.355   0.107   4.701 -0.6401 -0.3225 -0.1872
 1248TIP3   OH225234   4.596   0.466  15.352  0.0946 -0.3324 -0.1149
 1248TIP3    H125235   4.682   0.442  15.317 -0.3909 -3.5048  0.7034
 1248TIP3    H225236   4.613   0.490  15.443  0.3154  0.4420 -0.3613
 1249TIP3   OH225237   1.722   5.274  12.152 -0.4995  0.1625 -0.6191
 1249TIP3    H125238   1.730   5.365  12.124 -1.9046  0.3999 -0.3393
 1249TIP3    H225239   1.811   5.241  12.156 -0.0427  1.2518 -1.6464
 1250TIP3   OH225240   5.307   6.012  14.293 -0.4853  0.4069 -0.1363
 1250TIP3    H125241   5.373   5.992  14.226  1.8526  0.7436  1.9844
 1250TIP3    H225242   5.224   5.989  14.253  1.1495 -2.5547 -1.9546
 1251TIP3   OH225243   4.568   2.835  13.263 -0.1467 -0.0109 -0.0897
 1251TIP3    H125244   4.535   2.770  13.324  0.8313 -0.5748 -0.1439
 1251TIP3    H225245   4.540   2.805  13.177  3.3098 -2.3548 -0.5198
 1252TIP3   OH225246   0.128   3.466  12.374  0.2579  0.0824 -0.5808
 1252TIP3    H125247   0.120   3.381  12.332  0.5466  0.6897 -1.9049
 1252TIP3    H225248   0.052   3.515  12.343  0.0209  0.2668  0.2781
 1253TIP3   OH225249   0.192   4.062  11.673  0.3005 -0.4097 -0.7916
 1253TIP3    H125250   0.191   4.000  11.601 -0.0790  0.1842 -1.3048
 1253TIP3    H225251   0.281   4.097  11.674  0.0574  0.2450 -1.5530
 1254TIP3   OH225252   4.907   1.029   2.884 -0.4689  0.0150 -0.6398
 1254TIP3    H125253   5.000   1.012   2.903 -0.2505  2.1619  0.4150
 1254TIP3    H225254   4.906   1.060   2.794 -0.3222 -1.1553 -1.0526
 1255TIP3   OH225255   3.762   1.289  15.573  0.5785  0.0257 -0.5739
 1255TIP3    H125256   3.674   1.327  15.580  0.2272 -0.9008  0.0937
 1255TIP3    H225257   3.749   1.195  15.585  1.7758 -0.0140  0.5180
 1256TIP3   OH225258   3.213   0.394  15.873 -0.2997  0.5288 -0.0222
 1256TIP3    H125259   3.193   0.355  15.958 -0.2905 -0.7679 -0.5981
 1256TIP3    H225260   3.308   0.404  15.873 -0.3276  0.8012  0.2330
 1257TIP3   OH225261   1.533   0.081   3.254 -0.3229 -0.1711 -0.3037
 1257TIP3    H125262   1.503   0.169   3.274  0.0030  0.1782 -1.3439
 1257TIP3    H225263   1.498   0.027   3.326 -0.2888  0.8350  0.4736
 1258TIP3   OH225264   1.448   4.494   5.579 -0.0288 -0.4932 -0.0157
 1258TIP3    H125265   1.390   4.426   5.615  1.1871 -1.5715 -0.0622
 1258TIP3    H225266   1.509   4.513   5.650  0.3596 -0.2982 -0.4017
 1259TIP3   OH225267   6.762   4.673  11.614  0.3040 -0.1055 -0.2993
 1259TIP3    H125268   6.828   4.741  11.598  0.8000 -0.7432 -1.0367
 1259TIP3    H225269   6.796   4.623  11.689  0.5652 -0.3029 -0.5456
 1260TIP3   OH225270   3.570   1.532  12.284 -0.3839  0.4462  0.0616
 1260TIP3    H125271   3.497   1.593  12.291  1.4209  2.6314  0.8909
 1260TIP3    H225272   3.575   1.509  12.192 -0.9066  1.8550 -0.3213
 1261TIP3   OH225273   3.106   4.263   1.447 -0.3311  0.7672  0.4528
 1261TIP3    H125274   3.045   4.197   1.478  0.3327 -0.2230 -0.3094
 1261TIP3    H225275   3.052   4.326   1.399 -0.5334 -1.0626 -1.7665
 1262TIP3   OH225276   5.426   3.792  12.551 -0.0973 -0.4542 -0.2528
 1262TIP3    H125277   5.485   3.829  12.617 -0.6037 -0.5220  0.2459
 1262TIP3    H225278   5.347   3.846  12.557 -0.4637 -0.9983 -0.2126
 1263TIP3   OH225279   0.878   0.604   0.545 -0.2107  0.1692 -0.4234
 1263TIP3    H125280   0.951   0.559   0.503 -0.6472 -0.8970 -0.0391
 1263TIP3    H225281   0.864   0.682   0.490  0.0883 -0.5138 -1.4831
 1264TIP3   OH225282   1.900   0.950  12.594 -0.0381  0.2878  0.4689
 1264TIP3    H125283   1.992   0.936  12.575 -0.0578 -0.6903  1.0443
 1264TIP3    H225284   1.896   1.036  12.635  0.5660  0.4865  0.1118
 1265TIP3   OH225285   3.660   3.752  16.600 -0.0021  0.0427 -0.4895
 1265TIP3    H125286   3.751   3.744  16.627  0.4828  1.6420 -1.5510
 1265TIP3    H225287   3.659   3.719  16.509 -0.1734  1.4507 -1.0056
 1266TIP3   OH225288   1.139   5.822  11.840 -0.6000  0.2479  0.1283
 1266TIP3    H125289   1.095   5.768  11.905 -1.1400 -0.1022 -0.5194
 1266TIP3    H225290   1.076   5.891  11.818  0.0322  1.0675  0.8455
 1267TIP3   OH225291   4.068   0.794  17.041  0.0145 -0.3247  0.3465
 1267TIP3    H125292   4.013   0.871  17.028  0.9861  0.0949 -1.4345
 1267TIP3    H225293   4.149   0.829  17.079 -0.7049 -0.8820  2.4993
 1268TIP3   OH225294   2.138   1.437   0.695 -0.5226  0.2873  0.4046
 1268TIP3    H125295   2.216   1.426   0.750 -0.0966  0.6878 -0.1083
 1268TIP3    H225296   2.151   1.522   0.653 -1.1047  0.2287  0.1063
 1269TIP3   OH225297   4.096   0.929   4.622  0.2133 -0.0323 -0.2146
 1269TIP3    H125298   4.164   0.974   4.571  1.3901 -1.9814 -0.4151
 1269TIP3    H225299   4.142   0.900   4.701 -0.8332  0.1640  0.4715
 1270TIP3   OH225300   1.005   4.639   6.254 -0.6413  0.1622 -0.3314
 1270TIP3    H125301   1.052   4.670   6.332 -1.1515  0.5137 -0.1628
 1270TIP3    H225302   1.041   4.552   6.238  1.1471  1.0261 -1.0905
 1271TIP3   OH225303   0.657   1.938  14.395 -0.7282 -0.5293  0.4829
 1271TIP3    H125304   0.624   1.849  14.400  1.4277 -1.3464  0.9517
 1271TIP3    H225305   0.590   1.991  14.438 -1.8711 -1.9724  0.5117
 1272TIP3   OH225306   6.508   1.232   1.083  0.3825  0.1424  0.5712
 1272TIP3    H125307   6.556   1.152   1.103 -0.9621 -0.6962  0.4621
 1272TIP3    H225308   6.418   1.204   1.067 -0.4081  1.8078  1.8647
 1273TIP3   OH225309   6.735   1.651  15.083  0.0100  0.6490  0.0678
 1273TIP3    H125310   6.726   1.654  14.988 -0.4082  1.3042  0.1239
 1273TIP3    H225311   6.824   1.683  15.099  0.3282 -0.1297 -0.1405
 1274TIP3   OH225312   4.826   2.184  11.772  0.1618  0.1635  0.5600
 1274TIP3    H125313   4.810   2.148  11.685  1.8587  0.0705  0.2601
 1274TIP3    H225314   4.743   2.174  11.818 -0.5961 -0.2804 -0.8757
 1275TIP3   OH225315   4.424   2.159  11.475  0.1164 -0.1144  0.9864
 1275TIP3    H125316   4.497   2.107  11.442  0.9717  2.1454 -0.8158
 1275TIP3    H225317   4.415   2.133  11.566  3.1642 -0.4839  1.2293
 1276TIP3   OH225318   4.827   6.519   0.752 -0.5961  0.1390 -0.2856
 1276TIP3    H125319   4.830   6.494   0.844 -1.0462 -3.9780 -1.3247
 1276TIP3    H225320   4.918   6.517   0.724 -0.5614  0.4808 -0.2106
 1277TIP3   OH225321   5.930   5.859   3.950 -0.0256  0.4260 -0.0605
 1277TIP3    H125322   5.977   5.937   3.980 -0.5975  1.0023 -0.6419
 1277TIP3    H225323   5.976   5.832   3.871  1.3848 -0.9992  1.2177
 1278TIP3   OH225324   3.447   4.853  14.343  0.0899 -0.5856 -0.5201
 1278TIP3    H125325   3.402   4.780  14.385 -0.2024 -1.2478 -1.9779
 1278TIP3    H225326   3.514   4.812  14.289 -1.4090  0.1095 -2.9528
 1279TIP3   OH225327   2.635   0.230   5.107 -0.1950 -0.0015  0.0108
 1279TIP3    H125328   2.657   0.139   5.128 -0.7493  0.1024  1.0843
 1279TIP3    H225329   2.701   0.282   5.154  0.4785  0.1411 -1.0749
 1280TIP3   OH225330   4.961   3.112   4.555  0.4979  0.7143 -0.1352
 1280TIP3    H125331   4.972   3.141   4.465 -0.0776 -0.5975 -0.6522
 1280TIP3    H225332   5.047   3.080   4.581  0.3279 -0.2969 -0.7556
 1281TIP3   OH225333   5.898   6.787   1.111 -0.1384  0.2376 -0.0643
 1281TIP3    H125334   5.886   6.694   1.132 -0.5252  0.5128  0.9841
 1281TIP3    H225335   5.992   6.801   1.121 -0.0592 -0.0655 -0.3483
 1282TIP3   OH225336   0.946   4.608  16.161 -0.3293 -0.7244 -0.6054
 1282TIP3    H125337   0.989   4.684  16.200  1.3102 -0.9872 -1.8344
 1282TIP3    H225338   0.872   4.589  16.219  1.7294 -0.7774  2.1063
 1283TIP3   OH225339   2.046   4.571  16.588  0.0094  0.5085 -0.0393
 1283TIP3    H125340   2.024   4.586  16.680 -2.2052  0.4565 -0.5406
 1283TIP3    H225341   2.100   4.646  16.563  0.9321  0.3310  1.4102
 1284TIP3   OH225342   6.121   3.315   3.663 -0.5978  0.2060 -0.3622
 1284TIP3    H125343   6.170   3.281   3.737  0.3413  1.0767 -0.5799
 1284TIP3    H225344   6.050   3.366   3.702 -0.3733  0.2862 -0.0561
 1285TIP3   OH225345   1.960   6.191  13.391  0.3364  0.2358  0.2388
 1285TIP3    H125346   1.879   6.142  13.400 -0.3113  1.3468  0.4280
 1285TIP3    H225347   1.951   6.236  13.307  1.0885 -0.2406 -0.1073
 1286TIP3   OH225348   4.913   2.134   5.085 -0.8347 -0.8765 -0.3329
 1286TIP3    H125349   4.826   2.117   5.047 -1.4495  0.2981  0.5083
 1286TIP3    H225350   4.900   2.122   5.180 -0.1113 -0.5185 -0.1866
 1287TIP3   OH225351   4.914   3.541   1.591  0.0743 -0.1763 -0.0387
 1287TIP3    H125352   4.898   3.462   1.539 -0.9059 -0.0221  0.0225
 1287TIP3    H225353   4.828   3.584   1.597  0.0959 -0.3870  2.0402
 1288TIP3   OH225354   1.468   3.477  14.974 -0.3902  0.4676 -0.4133
 1288TIP3    H125355   1.536   3.528  14.931  0.6392 -0.1435  0.4419
 1288TIP3    H225356   1.463   3.396  14.924  0.4344 -0.0192  0.2498
 1289TIP3   OH225357   0.015   2.472  14.105 -0.1466 -0.0980 -0.6251
 1289TIP3    H125358  -0.017   2.537  14.043 -1.2394 -2.2982 -2.4145
 1289TIP3    H225359  -0.032   2.392  14.083  2.1292 -1.8574  0.6824
 1290TIP3   OH225360   6.300   4.370  16.807  0.0095  0.5750 -0.4214
 1290TIP3    H125361   6.270   4.361  16.897  1.0087 -1.7862 -0.2719
 1290TIP3    H225362   6.394   4.352  16.811  0.3192  1.7735 -1.7483
 1291TIP3   OH225363   6.530   5.542   6.047 -0.5017  0.4868  0.5271
 1291TIP3    H125364   6.483   5.604   6.103 -2.7641 -0.5125 -0.2271
 1291TIP3    H225365   6.574   5.484   6.109  1.1358  2.4064  1.2467
 1292TIP3   OH225366   2.923   3.092   1.356 -0.5354  0.4772 -0.3340
 1292TIP3    H125367   2.951   3.145   1.430  0.2987  1.0097 -1.0148
 1292TIP3    H225368   2.836   3.124   1.334 -0.9701  0.0293  0.6692
 1293TIP3   OH225369   4.308   4.702  15.577 -0.4612 -0.2097 -0.6880
 1293TIP3    H125370   4.328   4.794  15.560  0.2587  0.1065  1.6205
 1293TIP3    H225371   4.375   4.674  15.640  0.0669 -2.6690 -2.2518
 1294TIP3   OH225372   4.521   1.974   4.689  0.7071 -0.3186  0.2478
 1294TIP3    H125373   4.509   2.069   4.699 -0.7680 -0.5377  0.6356
 1294TIP3    H225374   4.455   1.935   4.747  2.4700 -1.5968  1.4481
 1295TIP3   OH225375   6.592   4.796   0.705 -0.2790 -0.3996 -0.0220
 1295TIP3    H125376   6.663   4.858   0.723 -0.1896 -0.4362 -0.2485
 1295TIP3    H225377   6.618   4.753   0.623 -1.8205  1.4573 -1.5528
 1296TIP3   OH225378   2.225   1.633   3.061 -0.1982 -0.0383  0.2649
 1296TIP3    H125379   2.189   1.645   3.149 -1.4577 -0.9668 -0.0977
 1296TIP3    H225380   2.148   1.634   3.004  0.2834 -2.4579 -0.4863
 1297TIP3   OH225381   3.099   4.271  15.648 -0.0072  0.1413 -0.5276
 1297TIP3    H125382   3.011   4.285  15.682  0.4467  0.6953  0.4562
 1297TIP3    H225383   3.127   4.357  15.618  0.1088 -0.0807 -1.0585
 1298TIP3   OH225384   0.953   0.612  14.985 -0.6530  0.1356 -0.7437
 1298TIP3    H125385   0.969   0.563  15.065 -0.1598 -1.3349 -1.7290
 1298TIP3    H225386   1.024   0.587  14.926 -2.2216 -0.4972 -2.4131
 1299TIP3   OH225387   1.738   2.683   0.863  0.4440 -0.1381 -0.4215
 1299TIP3    H125388   1.698   2.639   0.788  0.2404  0.8807 -0.9247
 1299TIP3    H225389   1.783   2.613   0.911 -0.7543 -1.0695 -0.6166
 1300TIP3   OH225390   0.801   6.269  16.080  0.0174  0.2121  0.4989
 1300TIP3    H125391   0.718   6.282  16.127  0.2081 -0.0654  0.9131
 1300TIP3    H225392   0.788   6.312  15.996 -0.2991  0.7821  0.8374
 1301TIP3   OH225393   6.175   6.677  13.465  0.0379  0.0573 -0.2372
 1301TIP3    H125394   6.086   6.648  13.485  0.2112  0.7282  1.5982
 1301TIP3    H225395   6.226   6.653  13.542  1.1225  1.0924 -0.6193
 1302TIP3   OH225396   2.505   2.029   5.461  0.6796 -0.1712 -0.0879
 1302TIP3    H125397   2.551   1.950   5.489 -0.1701 -0.4509  0.5609
 1302TIP3    H225398   2.416   2.018   5.496  0.1705  0.4261 -1.1910
 1303TIP3   OH225399   5.945   5.876   1.539 -0.0013  0.4207  0.8306
 1303TIP3    H125400   5.962   5.965   1.508  0.9232  0.2143  0.7380
 1303TIP3    H225401   5.960   5.881   1.634 -0.2000  0.4237  0.8617
 1304TIP3   OH225402   3.334   0.353  14.130 -0.0940 -0.3404 -0.1272
 1304TIP3    H125403   3.386   0.319  14.056 -0.8564 -0.4350 -0.6174
 1304TIP3    H225404   3.396   0.408  14.178  0.1608  0.4402 -1.3349
 1305TIP3   OH225405   3.005   3.169  15.372 -0.5536  0.0325  0.1180
 1305TIP3    H125406   3.098   3.168  15.394 -1.0550  0.6834  2.3155
 1305TIP3    H225407   2.975   3.080  15.393  0.2116 -1.2085 -3.6329
 1306TIP3   OH225408   5.107   2.581  12.973 -0.5951 -0.1638 -0.0597
 1306TIP3    H125409   5.166   2.653  12.991  1.3788 -1.3217 -1.6931
 1306TIP3    H225410   5.149   2.504  13.012 -2.4589 -0.5513  1.2914
 1307TIP3   OH225411   2.928   5.215   4.711  0.0391  0.0928 -0.2165
 1307TIP3    H125412   3.007   5.162   4.717  0.6900  1.1170  0.4590
 1307TIP3    H225413   2.878   5.192   4.789 -0.1266 -0.2221 -0.4128
 1308TIP3   OH225414   0.577   5.979   5.463 -0.2943  0.3712  0.3103
 1308TIP3    H125415   0.526   6.021   5.532  0.5300 -0.3930  1.4001
 1308TIP3    H225416   0.668   5.996   5.486  0.0221 -1.0626  0.1573
 1309TIP3   OH225417   2.916   2.594  15.845 -0.1601 -0.4573 -0.7040
 1309TIP3    H125418   2.999   2.611  15.800 -0.6013  2.6098 -0.4177
 1309TIP3    H225419   2.849   2.619  15.782 -0.9014 -2.1255 -0.6097
 1310TIP3   OH225420   1.077   2.435  16.850  0.5055  0.7142  0.2040
 1310TIP3    H125421   0.997   2.459  16.803  1.5018  0.2454 -1.7592
 1310TIP3    H225422   1.051   2.359  16.902 -0.1484  0.0538 -1.0465
 1311TIP3   OH225423   1.796   3.200   4.665  0.3324  0.2627 -0.2577
 1311TIP3    H125424   1.848   3.254   4.606  1.2759  2.1843  2.2492
 1311TIP3    H225425   1.710   3.243   4.667  0.9108  1.3780  1.2952
 1312TIP3   OH225426   3.808   3.587   4.668  0.4501 -0.1747 -0.5180
 1312TIP3    H125427   3.752   3.568   4.743 -0.0263  0.5744 -0.6768
 1312TIP3    H225428   3.768   3.540   4.595 -0.4172  0.9683 -0.7934
 1313TIP3   OH225429   1.081   0.771   4.371 -0.9972 -0.2270  1.0499
 1313TIP3    H125430   1.125   0.840   4.320 -0.1902 -1.5857 -0.1139
 1313TIP3    H225431   1.070   0.810   4.458  0.9302  0.7929  0.8762
 1314TIP3   OH225432   4.790   3.574   2.692  0.3221 -0.4658 -0.1480
 1314TIP3    H125433   4.754   3.557   2.779 -0.4816  0.2533 -0.3277
 1314TIP3    H225434   4.719   3.618   2.645  1.9186  2.3793 -0.0203
 1315TIP3   OH225435   2.243   3.451  16.475 -0.1486  0.0888  0.2012
 1315TIP3    H125436   2.291   3.375  16.505  0.8141  0.8929  0.7391
 1315TIP3    H225437   2.157   3.445  16.516  0.1924 -0.2984  0.8419
 1316TIP3   OH225438   2.610   1.820   6.222 -0.0514 -0.2082 -0.1213
 1316TIP3    H125439   2.701   1.846   6.205 -0.3408  2.0954  1.5526
 1316TIP3    H225440   2.607   1.808   6.317 -0.8060 -3.1439 -0.4931
 1317TIP3   OH225441   1.701   2.640  14.702 -0.1721 -0.0234 -0.1764
 1317TIP3    H125442   1.727   2.556  14.740  2.4781  0.4377 -0.8586
 1317TIP3    H225443   1.634   2.618  14.638  0.8597 -1.6980 -0.7083
 1318TIP3   OH225444   4.447   4.855  16.927  0.0548 -0.3880  0.6023
 1318TIP3    H125445   4.463   4.948  16.914  0.9112  0.0012  3.8632
 1318TIP3    H225446   4.359   4.851  16.964 -0.0962 -0.9016  0.1919
 1319TIP3   OH225447   5.570   1.599   5.488 -0.2306 -0.4848 -0.4606
 1319TIP3    H125448   5.612   1.553   5.561  1.0055  0.0887 -0.7989
 1319TIP3    H225449   5.611   1.686   5.488  1.0873 -1.0773 -2.9528
 1320TIP3   OH225450   4.214   2.923   3.191 -0.0914 -0.2365 -0.1304
 1320TIP3    H125451   4.299   2.915   3.236  0.0652  3.0110  0.2291
 1320TIP3    H225452   4.237   2.928   3.098 -0.0567 -1.4049 -0.1977
 1321TIP3   OH225453   5.610   5.934   4.886 -0.4324 -0.2468 -0.3843
 1321TIP3    H125454   5.529   5.897   4.920 -0.3794 -0.5409 -0.5774
 1321TIP3    H225455   5.678   5.875   4.917 -0.3070 -0.0811 -0.3446
 1322TIP3   OH225456   4.607   2.910   2.321 -0.5545 -0.0556  0.0317
 1322TIP3    H125457   4.590   2.831   2.373  1.0404 -0.9522 -0.7667
 1322TIP3    H225458   4.551   2.901   2.244  0.9334 -1.3276 -0.9383
 1323TIP3   OH225459   2.302   6.038  12.771  0.9927 -0.0480 -0.2243
 1323TIP3    H125460   2.300   6.094  12.848  0.1206 -2.0797  1.3009
 1323TIP3    H225461   2.221   5.987  12.777  0.8376 -0.1412 -2.5716
 1324TIP3   OH225462   0.008   0.101  13.117  0.1920 -0.1102 -0.0593
 1324TIP3    H125463  -0.045   0.042  13.170 -0.9623  0.4873 -0.5166
 1324TIP3    H225464  -0.055   0.144  13.059  1.0143  1.4459  0.1591
 1325TIP3   OH225465   1.920   4.438   2.785 -0.1380  0.5013  0.7559
 1325TIP3    H125466   1.932   4.506   2.718  0.9801  0.4482  0.8929
 1325TIP3    H225467   2.006   4.398   2.793 -0.4184  0.1187  1.8239
 1326TIP3   OH225468   2.619   5.505  16.690  0.9363 -0.2797  0.3390
 1326TIP3    H125469   2.550   5.572  16.690 -1.5912 -2.7621 -1.1889
 1326TIP3    H225470   2.635   5.488  16.783  0.1543  1.0064  0.7327
 1327TIP3   OH225471   5.988   0.357   3.950  0.0990  0.2373  0.4761
 1327TIP3    H125472   6.080   0.380   3.937  0.0375  0.3824  0.2838
 1327TIP3    H225473   5.976   0.275   3.902 -0.0503  0.6054 -0.1181
 1328TIP3   OH225474   1.524   3.667  11.599  0.4635 -0.0020 -0.1668
 1328TIP3    H125475   1.615   3.661  11.572  0.5128 -0.4900  0.1189
 1328TIP3    H225476   1.474   3.638  11.523  0.6171 -1.7977  0.4054
 1329TIP3   OH225477   4.286   3.323  16.149  0.0040  0.0645 -0.2223
 1329TIP3    H125478   4.296   3.389  16.080  0.8171 -0.7982 -0.9421
 1329TIP3    H225479   4.359   3.263  16.135 -0.3064 -0.5784  0.8866
 1330TIP3   OH225480   5.303   6.803  16.736 -0.0312 -0.6096 -0.3054
 1330TIP3    H125481   5.360   6.879  16.733 -1.2909  0.3579 -0.0923
 1330TIP3    H225482   5.257   6.804  16.651  0.2808 -1.3989 -0.4911
 1331TIP3   OH225483   2.090   2.376  13.523  0.1975 -0.1190  0.1586
 1331TIP3    H125484   2.172   2.374  13.473 -0.3197  0.5693 -0.7298
 1331TIP3    H225485   2.048   2.292  13.504  0.9067 -0.6694  0.9866
 1332TIP3   OH225486   3.670   4.213   0.771  0.0936 -0.0974 -0.1855
 1332TIP3    H125487   3.684   4.260   0.853 -1.6581 -0.3226  0.2707
 1332TIP3    H225488   3.641   4.126   0.798 -0.6554 -0.1196 -1.0439
 1333TIP3   OH225489   3.586   0.052  12.270 -0.2180 -0.4541  0.0622
 1333TIP3    H125490   3.573   0.086  12.358  1.6132 -0.2978  0.2845
 1333TIP3    H225491   3.633  -0.031  12.283  0.0202 -0.4528 -0.7600
 1334TIP3   OH225492   3.872   2.268  12.707  0.3211  0.2163  0.0498
 1334TIP3    H125493   3.922   2.198  12.665  0.5664  0.2585  0.2697
 1334TIP3    H225494   3.930   2.344  12.703  0.3900  0.1899  0.5757
 1335TIP3   OH225495   1.249   6.090  12.087 -0.0278  0.5843 -0.3201
 1335TIP3    H125496   1.321   6.029  12.076 -0.4558  0.0736 -0.3041
 1335TIP3    H225497   1.213   6.070  12.173  0.1444  1.1933 -0.1019
 1336TIP3   OH225498   6.498   1.140   4.324 -0.4545 -0.5490 -0.2042
 1336TIP3    H125499   6.511   1.109   4.235 -3.8917  0.5052 -1.1676
 1336TIP3    H225500   6.532   1.229   4.325  0.2538 -0.8217 -0.2597
 1337TIP3   OH225501   4.761   4.180  14.190  0.0875 -0.2876 -0.4297
 1337TIP3    H125502   4.779   4.272  14.208 -0.8156 -0.1083 -0.3993
 1337TIP3    H225503   4.674   4.165  14.228 -0.3870 -0.7809 -1.6700
 1338TIP3   OH225504   3.203   4.311  16.572 -0.4031 -0.0809 -0.2252
 1338TIP3    H125505   3.292   4.346  16.572  0.0523 -1.1789  1.2702
 1338TIP3    H225506   3.147   4.387  16.555  0.7386  0.8206 -0.0171
 1339TIP3   OH225507   3.239   6.266   5.500  0.1777  0.2054 -0.2928
 1339TIP3    H125508   3.267   6.299   5.586  0.0124  0.7698 -0.4523
 1339TIP3    H225509   3.320   6.263   5.449  0.4655 -1.2411  0.2385
 1340TIP3   OH225510   3.820   0.413  13.965 -0.0223  0.0760 -0.6297
 1340TIP3    H125511   3.738   0.462  13.974  0.1013  0.0813  0.5948
 1340TIP3    H225512   3.792   0.324  13.941 -0.4433 -0.1755  0.7686
 1341TIP3   OH225513   3.635   2.133  15.831 -0.1337 -0.1855 -0.3847
 1341TIP3    H125514   3.557   2.088  15.797  1.1636 -0.8382 -2.5978
 1341TIP3    H225515   3.702   2.065  15.833  1.1367  1.0165 -1.2410
 1342TIP3   OH225516   3.131   6.107  15.566  0.0055 -0.6600 -0.3985
 1342TIP3    H125517   3.112   6.106  15.660 -0.6731  0.0193 -0.5171
 1342TIP3    H225518   3.190   6.182  15.555 -0.4536 -0.3328 -0.6135
 1343TIP3   OH225519   2.442   0.846  15.362 -0.0710 -0.7335  0.2769
 1343TIP3    H125520   2.424   0.853  15.268 -0.0501  0.7497  0.3726
 1343TIP3    H225521   2.373   0.897  15.403  1.8013  1.3550  0.8969
 1344TIP3   OH225522   1.874   0.564   2.751 -0.4251  0.1920  0.4179
 1344TIP3    H125523   1.826   0.489   2.716  1.0825 -0.6321  0.0526
 1344TIP3    H225524   1.884   0.623   2.676 -3.0599  1.5484  1.1005
 1345TIP3   OH225525   5.958   4.503  13.372 -0.2136  0.4193  0.0622
 1345TIP3    H125526   6.003   4.587  13.371 -2.6707  1.7761 -0.1498
 1345TIP3    H225527   5.878   4.518  13.323 -0.0772 -2.4308 -1.1411
 1346TIP3   OH225528   4.458   4.842   1.770  0.4394 -0.5827  0.1628
 1346TIP3    H125529   4.420   4.754   1.768 -0.0420 -0.3565 -0.7315
 1346TIP3    H225530   4.482   4.860   1.679  1.0362 -0.0011  0.4267
 1347TIP3   OH225531   3.155   2.584  12.478  0.1858 -0.0835  0.5480
 1347TIP3    H125532   3.167   2.503  12.427  0.9497  0.1205  0.3887
 1347TIP3    H225533   3.237   2.593  12.526 -0.1340  0.2823  1.0205
 1348TIP3   OH225534   6.089   6.650   3.846  0.5255 -0.0927  0.3900
 1348TIP3    H125535   6.146   6.573   3.854 -2.0435 -2.2150 -1.0819
 1348TIP3    H225536   6.068   6.655   3.753  0.1284  2.0272  0.5719
 1349TIP3   OH225537   6.355   2.970   1.553  0.3183 -0.5499 -0.6022
 1349TIP3    H125538   6.337   3.049   1.501  1.3474  0.5918  0.7141
 1349TIP3    H225539   6.373   2.902   1.488 -0.2154  0.3758 -1.7584
 1350TIP3   OH225540   1.175   5.004  15.138 -0.0106  0.1863 -1.1042
 1350TIP3    H125541   1.232   5.055  15.195 -1.2009  0.2426  0.0573
 1350TIP3    H225542   1.172   5.053  15.056  2.1891 -0.2013 -1.4648
 1351TIP3   OH225543   1.299   6.244   2.428 -0.5806 -0.7355 -0.3924
 1351TIP3    H125544   1.341   6.254   2.514 -1.9736 -0.7905  0.3024
 1351TIP3    H225545   1.207   6.228   2.448 -0.8915 -0.8855 -1.9031
 1352TIP3   OH225546   2.802   2.398  14.642 -0.6791  0.2633 -0.0462
 1352TIP3    H125547   2.714   2.435  14.640 -0.2151  1.4246  0.0866
 1352TIP3    H225548   2.857   2.466  14.602  0.1643 -0.4181 -0.0756
 1353TIP3   OH225549   2.763   2.984   5.773 -0.3560 -0.2042  0.0206
 1353TIP3    H125550   2.713   2.925   5.829 -0.6925  1.4819  1.5799
 1353TIP3    H225551   2.854   2.975   5.803 -0.3716 -0.1240  0.0929
 1354TIP3   OH225552   1.998   3.593   1.249 -0.1039  1.1540 -0.3044
 1354TIP3    H125553   2.085   3.627   1.226 -0.0045  1.4800  0.5338
 1354TIP3    H225554   2.005   3.499   1.234 -0.6262  1.5465 -3.4208
 1355TIP3   OH225555   5.687   5.248  16.309  0.0810  0.4623  0.0052
 1355TIP3    H125556   5.602   5.279  16.339 -0.9546 -1.6831 -0.5706
 1355TIP3    H225557   5.714   5.311  16.242 -2.3162 -0.2255 -1.6995
 1356TIP3   OH225558   4.261   6.806  15.502  0.0153 -0.2623  0.8672
 1356TIP3    H125559   4.176   6.842  15.475  1.3946  0.1796 -3.2413
 1356TIP3    H225560   4.243   6.713  15.519 -1.2587 -0.2089 -0.1388
 1357TIP3   OH225561   5.612   5.866   1.261 -0.2029 -0.0310 -0.6263
 1357TIP3    H125562   5.603   5.954   1.298  0.9193  0.8707 -2.4193
 1357TIP3    H225563   5.621   5.809   1.337 -0.0873  1.5108  0.5442
 1358TIP3   OH225564   0.196   6.183  12.783 -0.5992  0.1612 -0.3828
 1358TIP3    H125565   0.122   6.239  12.808  0.2540  1.4361 -0.6500
 1358TIP3    H225566   0.242   6.234  12.716  0.7511 -0.4333  0.0878
 1359TIP3   OH225567   2.930   2.239   4.355 -0.4417 -0.2780  0.1004
 1359TIP3    H125568   2.933   2.279   4.442 -0.1615  1.3404 -0.6346
 1359TIP3    H225569   2.920   2.145   4.372  0.5951 -0.0852  1.8908
 1360TIP3   OH225570   6.281   0.888  16.972  0.3355  0.4922  0.6445
 1360TIP3    H125571   6.232   0.814  17.008  0.6057  0.2340  0.4890
 1360TIP3    H225572   6.316   0.855  16.889 -0.6967  1.2362 -0.0946
 1361TIP3   OH225573   1.965   1.442  12.357  0.3178 -0.2539  0.1468
 1361TIP3    H125574   2.029   1.497  12.402  0.4364 -1.3904  1.4133
 1361TIP3    H225575   1.996   1.352  12.373  0.2176 -0.7072 -2.0041
 1362TIP3   OH225576   4.974   2.796  16.620  0.0878 -0.1112  0.0423
 1362TIP3    H125577   5.015   2.849  16.689  0.5073  1.2098 -1.2110
 1362TIP3    H225578   5.044   2.742  16.586  0.1166  0.0199 -0.1032
 1363TIP3   OH225579   0.207   5.239   0.651 -0.5178  0.1584 -0.3244
 1363TIP3    H125580   0.146   5.167   0.634  0.4070 -1.0179  1.1484
 1363TIP3    H225581   0.248   5.257   0.566 -1.5735 -0.2782 -0.9336
 1364TIP3   OH225582   0.443   0.120   2.873 -0.3180  0.0341 -0.0948
 1364TIP3    H125583   0.466   0.030   2.897  2.1726  1.1194  1.8336
 1364TIP3    H225584   0.480   0.131   2.785  0.5192 -0.4219  0.1965
 1365TIP3   OH225585   3.347   3.606  13.480 -0.3750  0.1453  0.4294
 1365TIP3    H125586   3.412   3.675  13.464  1.2252 -1.0568  1.5224
 1365TIP3    H225587   3.343   3.557  13.398  0.7688 -0.3060  0.6385
 1366TIP3   OH225588   2.961   1.408  13.302 -0.4708  0.0665  0.3029
 1366TIP3    H125589   2.972   1.501  13.287 -1.9304 -0.0498 -1.7263
 1366TIP3    H225590   2.869   1.391  13.282  0.0476 -1.9941 -0.4694
 1367TIP3   OH225591   0.387   6.650   0.517  0.1743 -0.1780  0.3968
 1367TIP3    H125592   0.419   6.600   0.442 -1.5879  0.3952 -0.7594
 1367TIP3    H225593   0.463   6.657   0.575  0.4609 -4.1815  0.6090
 1368TIP3   OH225594   2.093   0.988  16.866 -0.2542 -0.1513  0.2430
 1368TIP3    H125595   2.086   0.893  16.870 -2.5910 -0.0383 -0.3648
 1368TIP3    H225596   2.082   1.017  16.957 -1.5361 -0.3558  0.1565
 1369TIP3   OH225597   0.823   6.699   1.815 -0.1331  0.0928  0.0889
 1369TIP3    H125598   0.734   6.732   1.818 -0.3661 -0.1891 -2.6043
 1369TIP3    H225599   0.877   6.778   1.804 -0.1975  0.0847 -0.2738
 1370TIP3   OH225600   2.269   0.808   1.322 -0.3294 -0.5257 -0.5352
 1370TIP3    H125601   2.180   0.836   1.302 -0.2868  1.4097  1.7394
 1370TIP3    H225602   2.263   0.714   1.336 -1.7037 -0.6627 -1.9070
 1371TIP3   OH225603   6.056   0.564  10.971 -0.2811 -0.2296 -0.5139
 1371TIP3    H125604   6.141   0.606  10.980 -0.4601 -0.2041  1.2952
 1371TIP3    H225605   6.032   0.576  10.879 -0.1440  3.2480 -0.1566
 1372TIP3   OH225606   0.930   0.875   6.435  0.5498 -0.1987 -0.2629
 1372TIP3    H125607   0.941   0.837   6.522  3.0705 -0.9162 -0.8689
 1372TIP3    H225608   0.882   0.957   6.451  1.2617 -0.1609  1.8391
 1373TIP3   OH225609   0.443   3.151   1.240  0.5517  0.1485 -0.4127
 1373TIP3    H125610   0.502   3.161   1.315  0.9956 -0.9440 -0.6157
 1373TIP3    H225611   0.500   3.149   1.164  0.2128 -0.3004 -0.6578
 1374TIP3   OH225612   0.216   4.023   1.274  0.7634 -0.1379  0.2048
 1374TIP3    H125613   0.278   3.952   1.287  1.2965  0.2299 -0.2688
 1374TIP3    H225614   0.203   4.026   1.179 -1.1460 -1.1879  0.4271
 1375TIP3   OH225615   3.156   1.224   4.867 -0.1663 -0.1566  0.1596
 1375TIP3    H125616   3.154   1.320   4.872 -0.9893 -0.0295 -1.9584
 1375TIP3    H225617   3.248   1.202   4.883  0.0128  0.9902  0.7718
 1376TIP3   OH225618   5.711   6.574   6.308 -0.5098 -0.9014  0.4680
 1376TIP3    H125619   5.721   6.646   6.370 -0.8975 -1.3790  1.0963
 1376TIP3    H225620   5.781   6.587   6.244  0.0921 -0.5756  1.1824
 1377TIP3   OH225621   2.057   1.079   5.456  0.2543  0.2466 -0.2778
 1377TIP3    H125622   2.132   1.034   5.495  1.4594  2.6006  0.2813
 1377TIP3    H225623   2.058   1.166   5.498 -1.6151  0.9791 -1.7034
 1378TIP3   OH225624   4.534   4.188  10.995 -0.2409 -0.4665  0.8424
 1378TIP3    H125625   4.591   4.263  11.010  1.3945 -1.3685 -0.7522
 1378TIP3    H225626   4.522   4.150  11.082 -1.6474  1.9792  1.7923
 1379TIP3   OH225627   2.728   5.185  12.199  0.2285  0.3015  0.3249
 1379TIP3    H125628   2.664   5.117  12.175  1.2736 -0.0431 -1.6049
 1379TIP3    H225629   2.761   5.156  12.284 -1.9328  0.3267  1.2234
 1380TIP3   OH225630   0.544   5.239  17.000 -0.0057 -0.5063  0.3897
 1380TIP3    H125631   0.517   5.227  17.091  1.1657  1.8777  1.0855
 1380TIP3    H225632   0.625   5.189  16.992 -0.3497 -1.0917  0.5094
 1381TIP3   OH225633   2.679   4.530   1.719  0.2058 -1.1627  0.3414
 1381TIP3    H125634   2.706   4.593   1.652 -0.5107  1.0522  2.0621
 1381TIP3    H225635   2.745   4.537   1.787 -0.1266 -1.9396  0.7509
 1382TIP3   OH225636   4.683   2.264   2.306  0.3902  0.2777  0.5019
 1382TIP3    H125637   4.681   2.185   2.251  2.5960  0.8452 -0.4285
 1382TIP3    H225638   4.620   2.246   2.376  1.2277 -2.5151  0.5849
 1383TIP3   OH225639   6.492   5.074  13.447  0.2969  0.3752  0.1832
 1383TIP3    H125640   6.520   5.118  13.527  1.4597 -0.0540  0.0226
 1383TIP3    H225641   6.398   5.063  13.457  0.5747 -0.6351  1.9792
 1384TIP3   OH225642   5.394   1.026  11.259 -0.5134  0.0196  0.1866
 1384TIP3    H125643   5.405   1.040  11.353  1.1249  1.6763 -0.2224
 1384TIP3    H225644   5.475   0.982  11.232 -0.9186 -0.3243 -0.4824
 1385TIP3   OH225645   2.636   0.406   3.617  0.1041 -0.3599  0.2198
 1385TIP3    H125646   2.619   0.347   3.543 -1.7212  1.4485 -0.8569
 1385TIP3    H225647   2.607   0.357   3.694  0.6740 -1.7079 -0.3984
 1386TIP3   OH225648   6.012   1.583   2.391 -0.0604 -0.3198 -0.4298
 1386TIP3    H125649   5.950   1.576   2.317 -0.8388 -0.3593  0.2203
 1386TIP3    H225650   6.038   1.675   2.391  0.1996 -0.3882 -0.9597
 1387TIP3   OH225651   0.723   1.377  12.258  0.0236 -0.0753  0.0996
 1387TIP3    H125652   0.742   1.284  12.275  0.0455 -0.4693 -2.0111
 1387TIP3    H225653   0.806   1.422  12.276  0.6673 -0.7645 -1.0592
 1388TIP3   OH225654   6.264   3.296  16.388  0.8360  0.5324  0.4235
 1388TIP3    H125655   6.235   3.238  16.317  0.6278 -0.0205  0.9608
 1388TIP3    H225656   6.331   3.351  16.347  0.8470  0.0923 -0.1636
 1389TIP3   OH225657   6.368   1.405  15.525  0.1402  0.0429 -0.6790
 1389TIP3    H125658   6.285   1.423  15.480 -0.1318  0.0820 -0.1605
 1389TIP3    H225659   6.425   1.479  15.500 -0.8322  1.4036  1.0873
 1390TIP3   OH225660   3.945   1.026   1.518 -0.5699  0.1153 -0.4394
 1390TIP3    H125661   3.882   0.999   1.586  0.3234  1.5669  1.0027
 1390TIP3    H225662   4.029   1.029   1.564  0.3484 -0.5431 -2.0468
 1391TIP3   OH225663   3.133   2.226  13.197  0.0897  0.4509  0.4341
 1391TIP3    H125664   3.216   2.250  13.157 -0.8383  0.0028 -1.8561
 1391TIP3    H225665   3.084   2.308  13.202  0.0393  0.4392  0.1789
 1392TIP3   OH225666   0.741   5.567   6.554 -0.2234  0.0944  0.3364
 1392TIP3    H125667   0.834   5.583   6.570  0.1855 -0.0313 -1.6746
 1392TIP3    H225668   0.707   5.651   6.522 -0.3525 -0.3380 -0.6973
 1393TIP3   OH225669   3.703   2.234   1.304 -0.7640 -0.0541  0.7163
 1393TIP3    H125670   3.632   2.221   1.368 -0.6376  0.9103  1.0637
 1393TIP3    H225671   3.681   2.174   1.233 -2.9737  1.5601 -0.0302
 1394TIP3   OH225672   5.914   6.567   2.953 -0.2301  0.0739 -0.6494
 1394TIP3    H125673   5.870   6.645   2.920 -0.7930  0.5567  1.1966
 1394TIP3    H225674   6.001   6.596   2.978 -0.4713  0.1390  0.1267
 1395TIP3   OH225675   5.265   3.936  14.171  0.7178 -0.0886  0.4033
 1395TIP3    H125676   5.316   3.952  14.092  1.0933  1.7689  1.0133
 1395TIP3    H225677   5.294   4.003  14.233  0.0688 -1.2047  1.9528
 1396TIP3   OH225678   3.894   4.098   2.116  0.2619  0.5869 -0.7586
 1396TIP3    H125679   3.905   4.085   2.210  3.4224  2.3185 -0.8022
 1396TIP3    H225680   3.851   4.183   2.109 -0.6702  0.1109 -0.8830
 1397TIP3   OH225681   1.024   6.456  14.943 -0.2263  0.5546  0.0628
 1397TIP3    H125682   1.061   6.530  14.991 -0.3610 -0.8323  2.3824
 1397TIP3    H225683   0.991   6.494  14.861  2.9074  2.4357 -0.3815
 1398TIP3   OH225684   0.432   2.863   4.804 -0.3974  0.4370 -0.6894
 1398TIP3    H125685   0.462   2.795   4.865  0.4100  2.4130  1.1604
 1398TIP3    H225686   0.345   2.834   4.778 -0.4988 -0.7842  0.9122
 1399TIP3   OH225687   3.486   1.246   2.302 -0.2199 -0.3894  0.2069
 1399TIP3    H125688   3.513   1.330   2.339 -0.4291 -0.3708  0.3218
 1399TIP3    H225689   3.420   1.213   2.364 -1.1110 -0.0120 -0.5290
 1400TIP3   OH225690   4.463   2.433   1.341  0.1591  0.6372  0.0815
 1400TIP3    H125691   4.411   2.414   1.419 -0.2859  0.7910 -0.1793
 1400TIP3    H225692   4.517   2.508   1.366 -1.2622  1.8057 -0.3374
 1401TIP3   OH225693   2.831   5.517  16.171 -0.1482  0.9687 -0.3258
 1401TIP3    H125694   2.744   5.544  16.141  0.1293  2.3377  0.0512
 1401TIP3    H225695   2.818   5.494  16.263 -0.6015 -1.2843 -0.9319
 1402TIP3   OH225696   2.302   3.704  16.806 -0.3971 -0.1582 -0.6489
 1402TIP3    H125697   2.228   3.659  16.765  0.6656 -0.9128 -1.7701
 1402TIP3    H225698   2.264   3.785  16.841 -1.6472 -0.2558 -1.7132
 1403TIP3   OH225699   3.886   0.653  12.786  0.0934 -0.0836  0.6023
 1403TIP3    H125700   3.844   0.580  12.832  0.6376  0.0477  1.3073
 1403TIP3    H225701   3.967   0.668  12.834  0.1925  0.7010  0.1892
 1404TIP3   OH225702   6.207   2.900   5.903 -0.1817 -0.6324 -0.0571
 1404TIP3    H125703   6.257   2.914   5.983 -0.7001  0.2336  0.1169
 1404TIP3    H225704   6.122   2.867   5.933  0.3772 -2.4373 -0.3680
 1405TIP3   OH225705   3.680   5.193  11.835  0.1478  0.2386 -0.5197
 1405TIP3    H125706   3.634   5.264  11.791  1.8563  0.3868 -2.1207
 1405TIP3    H225707   3.737   5.155  11.768 -0.8633 -2.7926  0.2500
 1406TIP3   OH225708   6.349   0.833  12.729 -0.1490  0.1916  0.0246
 1406TIP3    H125709   6.397   0.910  12.762  0.3174 -0.1298  0.0939
 1406TIP3    H225710   6.340   0.776  12.806  1.2685 -0.7295 -0.4807
 1407TIP3   OH225711   2.550   2.320   3.169  0.7069  0.7078 -0.4004
 1407TIP3    H125712   2.554   2.348   3.261  0.4067 -1.5650  0.3388
 1407TIP3    H225713   2.642   2.307   3.144  0.9016  3.1384 -1.0236
 1408TIP3   OH225714   1.544   5.845  14.189 -0.6944 -0.0850  0.3790
 1408TIP3    H125715   1.634   5.869  14.208 -0.4732 -0.9159  0.3845
 1408TIP3    H225716   1.550   5.777  14.122 -1.2509 -1.1407  1.3612
 1409TIP3   OH225717   2.112   4.982   2.029  0.2642  0.4118 -0.0544
 1409TIP3    H125718   2.088   4.891   2.042  0.4577  0.4033  0.2499
 1409TIP3    H225719   2.034   5.022   1.991  0.0616  0.1952  0.1289
 1410TIP3   OH225720   0.422   4.619  12.796  0.4084 -0.1335  0.3597
 1410TIP3    H125721   0.371   4.647  12.873 -2.0829 -1.2120 -0.8357
 1410TIP3    H225722   0.368   4.645  12.721  2.2587 -0.1623 -1.0116
 1411TIP3   OH225723   2.941   3.750  12.626  0.4212  0.3649 -0.0539
 1411TIP3    H125724   3.001   3.800  12.572 -0.2422 -0.8422 -1.9639
 1411TIP3    H225725   2.855   3.790  12.610  0.3504  0.5649  0.7997
 1412TIP3   OH225726   1.180   0.053  11.288  0.1515 -0.3780  0.6042
 1412TIP3    H125727   1.146  -0.035  11.298  0.3120 -0.4410  0.5985
 1412TIP3    H225728   1.185   0.066  11.193 -0.8002 -0.0039  0.6022
 1413TIP3   OH225729   4.717   2.591  16.098 -0.5508  0.0784 -0.2516
 1413TIP3    H125730   4.648   2.610  16.033 -2.0270  0.1577  1.3163
 1413TIP3    H225731   4.795   2.632  16.061 -1.4828  0.5707 -1.7468
 1414TIP3   OH225732   4.488   3.663   1.480  0.2842  0.1023 -0.1694
 1414TIP3    H125733   4.426   3.713   1.428  1.1731  0.6491 -0.7146
 1414TIP3    H225734   4.526   3.600   1.418 -2.0340 -2.4215  0.8622
 1415TIP3   OH225735   6.262   3.675  16.874  0.0095 -0.1203  0.1152
 1415TIP3    H125736   6.300   3.598  16.832 -2.1779  0.4246 -3.0548
 1415TIP3    H225737   6.181   3.643  16.914 -0.8096  0.4331 -1.0512
 1416TIP3   OH225738   5.343   3.463   4.744  0.0832 -0.1612 -0.2386
 1416TIP3    H125739   5.296   3.481   4.826 -0.6741  1.0120 -0.9100
 1416TIP3    H225740   5.294   3.392   4.703 -1.2634  1.2115 -1.0423
 1417TIP3   OH225741   0.206   3.342  13.325  0.0779  0.1699 -0.5395
 1417TIP3    H125742   0.301   3.335  13.325  0.0285 -0.5139 -0.8191
 1417TIP3    H225743   0.182   3.345  13.418  0.2500 -1.3175 -0.4386
 1418TIP3   OH225744   4.944   4.399  11.162 -0.0554  0.1762  0.4255
 1418TIP3    H125745   4.904   4.486  11.151  1.8170  1.3285  2.2589
 1418TIP3    H225746   4.873   4.338  11.149 -2.6357  2.1724  4.1290
 1419TIP3   OH225747   6.004   3.015   1.258  0.0469 -0.4275  0.3361
 1419TIP3    H125748   5.985   2.922   1.251  1.6974 -0.7643  0.2047
 1419TIP3    H225749   6.016   3.045   1.168 -1.7387  0.2070  0.2806
 1420TIP3   OH225750   5.954   5.511  16.330  0.1117 -0.1090  0.0864
 1420TIP3    H125751   5.953   5.459  16.250  1.3917 -0.9841  0.6231
 1420TIP3    H225752   5.935   5.447  16.399  0.6018  0.3483  0.6371
 1421TIP3   OH225753   0.865   2.140   6.058 -0.4297  0.0523 -0.3399
 1421TIP3    H125754   0.853   2.181   5.973 -1.2025  1.2988  0.3523
 1421TIP3    H225755   0.830   2.203   6.121  1.4514 -0.2163  1.0346
 1422TIP3   OH225756   0.702   2.526  11.395 -0.1907  0.1375  0.1887
 1422TIP3    H125757   0.747   2.600  11.355 -0.3216  0.5097  0.7295
 1422TIP3    H225758   0.612   2.532  11.363 -0.3648  0.5971  0.7553
 1423TIP3   OH225759   2.403   1.584   0.279 -0.1946 -0.1596  0.2507
 1423TIP3    H125760   2.420   1.528   0.204 -1.5399  2.2870 -1.9985
 1423TIP3    H225761   2.328   1.544   0.323 -1.0524 -0.2146 -1.2463
 1424TIP3   OH225762   6.270   2.382  11.674  0.0956  0.0910  0.2120
 1424TIP3    H125763   6.209   2.335  11.617  0.2118  0.1130  0.0722
 1424TIP3    H225764   6.233   2.470  11.682 -1.4683 -0.7104  2.4497
 1425TIP3   OH225765   3.201   2.194  10.683  0.2615 -0.9715  0.3398
 1425TIP3    H125766   3.251   2.141  10.620  0.8138  0.3931 -0.4006
 1425TIP3    H225767   3.139   2.242  10.629 -0.3152 -0.9443  1.0241
 1426TIP3   OH225768   3.235   5.616   3.307 -0.0820  0.1772  0.2273
 1426TIP3    H125769   3.220   5.603   3.401 -1.5098  0.5173  0.0464
 1426TIP3    H225770   3.322   5.578   3.292 -0.8263 -2.0265  1.2418
 1427TIP3   OH225771   0.292   5.018  17.021  0.1401 -0.1997 -0.3486
 1427TIP3    H125772   0.358   5.051  17.080  2.0750 -0.4698 -2.2864
 1427TIP3    H225773   0.313   4.925  17.010  1.4056  0.3929 -3.4197
 1428TIP3   OH225774   5.800   5.982  14.420  0.8230  0.1679  0.0618
 1428TIP3    H125775   5.785   5.985  14.326  1.8427 -0.7114 -0.1331
 1428TIP3    H225776   5.882   5.935  14.430  1.4594  1.5159  1.3228
 1429TIP3   OH225777   1.537   5.191   4.096  0.1756  0.0067  0.2437
 1429TIP3    H125778   1.557   5.115   4.151 -0.4918 -0.8482 -0.6824
 1429TIP3    H225779   1.623   5.224   4.069  0.4467 -1.0361 -0.1727
 1430TIP3   OH225780   2.222   5.554   1.787 -0.3906  0.2096  0.1194
 1430TIP3    H125781   2.268   5.632   1.818  0.9361 -0.3278 -0.4900
 1430TIP3    H225782   2.154   5.588   1.729 -1.3443  1.0644  1.6871
 1431TIP3   OH225783   5.298   6.028   4.686 -0.2327  0.0724 -0.1252
 1431TIP3    H125784   5.394   6.031   4.684 -0.2518  2.5247  1.2877
 1431TIP3    H225785   5.274   5.995   4.599  1.8641  0.1598 -0.7760
 1432TIP3   OH225786   2.678   0.183  13.344  0.0936 -0.0122  0.5553
 1432TIP3    H125787   2.764   0.206  13.377  0.7355 -1.3001 -0.1878
 1432TIP3    H225788   2.617   0.218  13.409  1.2356 -0.3892  1.8359
 1433TIP3   OH225789   0.220   0.439  10.236  0.3336  0.1832 -0.4585
 1433TIP3    H125790   0.300   0.447  10.184  1.6578 -1.6207  1.2520
 1433TIP3    H225791   0.236   0.494  10.313  0.7139 -1.6380  0.7902
 1434TIP3   OH225792   0.392   1.655   0.256 -0.2850 -0.6941  0.0201
 1434TIP3    H125793   0.388   1.750   0.270  0.1520 -0.9168  1.7476
 1434TIP3    H225794   0.308   1.634   0.216 -1.2570  0.1245  1.5737
 1435TIP3   OH225795   0.011   4.305   2.303 -0.5251  0.0896 -0.6752
 1435TIP3    H125796  -0.042   4.231   2.274 -0.9574  0.1203  0.0376
 1435TIP3    H225797   0.074   4.318   2.232 -0.3263 -1.0823 -0.7343
 1436TIP3   OH225798   4.378   3.938  12.386  0.2143 -0.2440  0.2290
 1436TIP3    H125799   4.404   4.028  12.402  1.2532 -0.5796  0.4781
 1436TIP3    H225800   4.457   3.887  12.402 -0.7175 -1.3406  1.5401
 1437TIP3   OH225801   3.547   0.777  10.779  0.0006 -0.2337 -0.5432
 1437TIP3    H125802   3.535   0.781  10.684  1.2004 -0.9271 -0.7287
 1437TIP3    H225803   3.471   0.824  10.814 -0.2780  0.3232 -1.8482
 1438TIP3   OH225804   1.581   4.329  14.586 -0.2614 -0.1170 -0.0743
 1438TIP3    H125805   1.617   4.366  14.667  1.6731  0.5082 -1.1595
 1438TIP3    H225806   1.574   4.235  14.603 -1.1016  0.1767  1.2523
 1439TIP3   OH225807   1.473   2.455  15.809  0.3541  0.5716 -0.1648
 1439TIP3    H125808   1.554   2.452  15.861  0.5968  0.7528 -0.5332
 1439TIP3    H225809   1.406   2.420  15.868  1.3610 -3.1696 -1.0981
 1440TIP3   OH225810   4.008   5.604   1.856 -0.2364  0.5484  0.3024
 1440TIP3    H125811   4.075   5.586   1.923 -1.9909 -0.9222  1.7022
 1440TIP3    H225812   3.967   5.686   1.885  1.0986  1.6057 -0.7104
 1441TIP3   OH225813   1.197   3.960   3.289  0.1828  0.1388  0.2330
 1441TIP3    H125814   1.249   3.884   3.313 -0.7106 -0.5035  0.1424
 1441TIP3    H225815   1.130   3.966   3.358 -1.6385 -0.9871 -1.3868
 1442TIP3   OH225816   2.280   3.229  13.239 -0.3859 -0.0419  0.4582
 1442TIP3    H125817   2.276   3.301  13.303 -1.0552 -0.2401  0.6510
 1442TIP3    H225818   2.347   3.255  13.177  2.1102 -1.0188  2.6518
 1443TIP3   OH225819   3.236   5.199   2.097 -0.4838  0.1553 -0.0422
 1443TIP3    H125820   3.172   5.139   2.134 -0.3769  0.6029  0.8625
 1443TIP3    H225821   3.320   5.167   2.129 -0.3413  0.2006 -0.3673
 1444TIP3   OH225822   4.869   4.808   4.635 -0.2705 -0.2010 -0.1438
 1444TIP3    H125823   4.837   4.773   4.552  1.1580  1.8788 -1.6469
 1444TIP3    H225824   4.851   4.739   4.699 -2.0531 -1.5641 -2.0303
 1445TIP3   OH225825   3.639   0.224  16.838 -0.2640 -0.1207  0.0874
 1445TIP3    H125826   3.656   0.138  16.799  2.2610  0.4109 -0.0409
 1445TIP3    H225827   3.712   0.238  16.897  0.7975  3.1352 -1.9107
 1446TIP3   OH225828   6.535   4.634  16.795  0.3788 -0.5528  0.0577
 1446TIP3    H125829   6.535   4.605  16.886  1.2008  1.0809  0.6011
 1446TIP3    H225830   6.596   4.575  16.751  1.3690 -0.2150  0.9578
 1447TIP3   OH225831   3.034   2.216   2.588  0.5636 -0.8144 -0.1012
 1447TIP3    H125832   3.081   2.149   2.639 -1.2517 -1.3519  0.8842
 1447TIP3    H225833   2.947   2.179   2.574 -0.8635  1.7975  1.4201
 1448TIP3   OH225834   3.499   5.133   4.186 -0.0011 -0.1666  0.1276
 1448TIP3    H125835   3.544   5.216   4.171 -0.2709 -0.0536 -0.0442
 1448TIP3    H225836   3.549   5.091   4.256  0.1890  0.0980  0.1482
 1449TIP3   OH225837   5.819   4.965   3.091  0.4920  0.4273 -0.4165
 1449TIP3    H125838   5.890   4.941   3.150  0.1651 -0.6288 -0.4503
 1449TIP3    H225839   5.796   5.054   3.117  1.2153  0.4405  0.1948
 1450TIP3   OH225840   4.942   0.064  12.893  0.4165 -0.2848 -0.4072
 1450TIP3    H125841   4.882   0.139  12.898  1.2388  0.3762 -0.4025
 1450TIP3    H225842   5.019   0.092  12.942  0.2089 -1.6433  0.7318
 1451TIP3   OH225843   3.785   2.715  13.161 -0.1849  0.3833  0.2173
 1451TIP3    H125844   3.785   2.696  13.067  0.0046 -1.8774  0.6258
 1451TIP3    H225845   3.738   2.798  13.170 -0.0095  0.7307 -1.8868
 1452TIP3   OH225846   2.039   2.321   4.680  0.2575 -0.1690 -0.0144
 1452TIP3    H125847   2.050   2.414   4.657  0.2044 -0.3842 -0.9537
 1452TIP3    H225848   2.043   2.276   4.596 -0.0762 -0.9869  0.4069
 1453TIP3   OH225849   0.066   4.729  12.370 -0.0377  0.5817 -0.3330
 1453TIP3    H125850   0.068   4.636  12.350  0.1372  0.3082  0.8955
 1453TIP3    H225851   0.103   4.771  12.293  1.8386 -0.5192 -0.0748
 1454TIP3   OH225852   2.190   6.094   3.301 -0.5098 -0.2176 -0.4522
 1454TIP3    H125853   2.261   6.120   3.361  0.6337  0.1967 -1.9526
 1454TIP3    H225854   2.120   6.063   3.359  0.3511  0.7023  1.1243
 1455TIP3   OH225855   4.897   3.189   2.659 -0.1238  0.4833  0.9254
 1455TIP3    H125856   4.853   3.154   2.582  0.0622 -2.7791  2.2270
 1455TIP3    H225857   4.938   3.270   2.628 -1.6111  0.2265 -1.8984
 1456TIP3   OH225858   3.035   6.460  15.655 -0.1497  0.6137  0.0390
 1456TIP3    H125859   3.063   6.537  15.604  2.1682  1.0888  1.9003
 1456TIP3    H225860   3.059   6.482  15.745 -1.6950 -1.3129  0.9506
 1457TIP3   OH225861   3.187   5.822  14.348  0.2779  0.8713  0.2319
 1457TIP3    H125862   3.128   5.893  14.372  1.4566  1.5931  1.1181
 1457TIP3    H225863   3.271   5.866  14.329  0.6107 -0.1431 -0.7151
 1458TIP3   OH225864   3.232   1.387   4.009 -0.8292 -0.2349 -0.0556
 1458TIP3    H125865   3.183   1.469   4.006 -0.9605 -0.2685  1.0548
 1458TIP3    H225866   3.276   1.382   3.924  0.1676  1.5971  0.3340
 1459TIP3   OH225867   1.836   6.040  11.561 -0.2895 -0.0336  0.0796
 1459TIP3    H125868   1.884   6.112  11.519  0.4842 -0.9269 -0.5747
 1459TIP3    H225869   1.896   6.005  11.626 -0.6858 -0.0678  0.4291
 1460TIP3   OH225870   6.673   6.430  15.966  0.5422 -0.4626  0.6319
 1460TIP3    H125871   6.672   6.341  16.001 -0.7982 -0.9362 -0.5535
 1460TIP3    H225872   6.588   6.467  15.992  0.8294  0.2483  0.5691
 1461TIP3   OH225873   6.568   6.228  16.108 -0.9368 -0.4006 -0.4352
 1461TIP3    H125874   6.560   6.152  16.050  0.8908 -0.0775 -1.1280
 1461TIP3    H225875   6.503   6.212  16.178 -1.1005 -2.2085 -0.9863
 1462TIP3   OH225876   0.746   1.442  13.736 -0.5057  0.3077 -0.1724
 1462TIP3    H125877   0.819   1.498  13.761 -1.9589  2.1879 -0.0911
 1462TIP3    H225878   0.669   1.486  13.770 -1.5447 -2.7728  1.7065
 1463TIP3   OH225879   1.255   5.855   0.131  0.3617  0.1389 -0.0235
 1463TIP3    H125880   1.291   5.835   0.217 -1.0377  0.6664  0.7081
 1463TIP3    H225881   1.173   5.806   0.127 -0.1531  1.0214 -0.5914
 1464TIP3   OH225882   2.608   1.692  16.497  0.1777  0.2601  0.1789
 1464TIP3    H125883   2.658   1.733  16.427  0.3503 -0.4733 -0.1274
 1464TIP3    H225884   2.520   1.728  16.488  0.0387 -0.3095 -0.8128
 1465TIP3   OH225885   5.610   1.068   4.136  0.4039  0.6715 -0.0266
 1465TIP3    H125886   5.544   1.091   4.070  0.7863  1.3519 -0.1849
 1465TIP3    H225887   5.690   1.054   4.085  0.5094  0.3876  0.2178
 1466TIP3   OH225888   1.970   5.091  11.040  0.0670 -0.0174 -0.2108
 1466TIP3    H125889   1.935   5.180  11.037 -1.5042 -0.5151  2.0954
 1466TIP3    H225890   1.897   5.038  11.072  1.1674 -2.0573 -1.0181
 1467TIP3   OH225891   0.911   5.320  11.313 -0.1758 -0.6129 -0.1005
 1467TIP3    H125892   0.931   5.283  11.399 -0.6049 -0.1507  0.2047
 1467TIP3    H225893   0.965   5.270  11.252  0.1612 -0.9202  0.4423
 1468TIP3   OH225894   1.543   4.344  15.460 -1.0243  0.0910  0.1036
 1468TIP3    H125895   1.534   4.403  15.385 -1.9372 -1.9229 -1.4185
 1468TIP3    H225896   1.637   4.346  15.480 -1.0104  1.8822 -0.0500
 1469TIP3   OH225897   3.269   3.298   1.890 -0.0642 -0.3405 -0.3949
 1469TIP3    H125898   3.284   3.211   1.852  0.5611 -0.7240  0.7095
 1469TIP3    H225899   3.176   3.314   1.876 -0.4499 -1.7209  0.4465
 1470TIP3   OH225900   0.833   5.323  13.067  0.0333  0.6099  0.1138
 1470TIP3    H125901   0.837   5.418  13.059 -0.6436  0.6275 -0.0884
 1470TIP3    H225902   0.853   5.306  13.159 -1.6571  1.0848  0.5952
 1471TIP3   OH225903   1.082   2.903   0.298 -0.1722 -0.3621  0.1749
 1471TIP3    H125904   1.157   2.856   0.333  0.3524  1.2526  1.2760
 1471TIP3    H225905   1.030   2.926   0.375 -1.3814 -0.7440 -0.5038
 1472TIP3   OH225906   2.533   4.096   2.682  0.1929  0.0396  0.1367
 1472TIP3    H125907   2.524   4.172   2.625 -0.0939  0.1754  0.3625
 1472TIP3    H225908   2.582   4.129   2.758 -1.2754  0.3694  0.9450
 1473TIP3   OH225909   3.090   0.765  15.366 -0.0295 -0.3634  0.0780
 1473TIP3    H125910   3.067   0.759  15.274  0.3423  0.8514 -0.1043
 1473TIP3    H225911   3.009   0.794  15.409 -0.6481 -2.4322  0.3743
 1474TIP3   OH225912   5.629   0.918  15.034  0.0158 -0.1162  0.0485
 1474TIP3    H125913   5.666   0.853  14.974  0.0146 -0.1225  0.0538
 1474TIP3    H225914   5.604   0.868  15.112 -1.4208 -0.3671 -0.5580
 1475TIP3   OH225915   1.160   5.884  13.851  0.1148  0.2452  0.3637
 1475TIP3    H125916   1.175   5.826  13.776 -2.5119 -1.7039  1.2925
 1475TIP3    H225917   1.226   5.858  13.915  0.5600  0.0098 -0.1874
 1476TIP3   OH225918   6.193   0.644  16.010  0.8187 -0.2660 -0.2587
 1476TIP3    H125919   6.279   0.635  15.967  0.5473  1.2269 -1.1292
 1476TIP3    H225920   6.202   0.722  16.064  0.2684 -0.5880  0.2953
 1477TIP3   OH225921   3.188   2.301  11.880  0.2109 -0.0072  0.3577
 1477TIP3    H125922   3.261   2.355  11.850 -0.6093  1.2641  0.6241
 1477TIP3    H225923   3.129   2.363  11.923 -2.4544 -0.5228 -2.4109
 1478TIP3   OH225924   6.234   5.724   5.056 -0.8595  0.1042 -0.1933
 1478TIP3    H125925   6.221   5.743   4.963 -1.2086 -0.4001 -0.2490
 1478TIP3    H225926   6.274   5.637   5.058  0.1221  0.5537  0.0931
 1479TIP3   OH225927   0.478   5.153  12.592  0.2705 -0.1486 -0.0558
 1479TIP3    H125928   0.533   5.204  12.651 -2.3470  1.4062  1.1164
 1479TIP3    H225929   0.463   5.212  12.517  1.1220 -1.0028 -0.9184
 1480TIP3   OH225930   4.212   3.332  11.486 -0.1102  0.2049 -0.1770
 1480TIP3    H125931   4.293   3.356  11.441  0.3885  0.1416  0.6668
 1480TIP3    H225932   4.222   3.368  11.574 -0.4093 -0.9582  0.3448
 1481TIP3   OH225933   5.813   6.755   6.512  0.4704  0.4458 -0.3650
 1481TIP3    H125934   5.768   6.839   6.505  0.6425  0.4889 -1.0044
 1481TIP3    H225935   5.887   6.772   6.570  0.5519  0.7561 -0.5568
 1482TIP3   OH225936   4.441   4.938  12.121  0.3036  0.2303 -0.1897
 1482TIP3    H125937   4.385   5.016  12.129 -1.4340 -1.0852  0.8275
 1482TIP3    H225938   4.431   4.893  12.204 -0.8483 -2.4714 -1.7343
 1483TIP3   OH225939   4.582   3.984  13.553  0.2918 -0.2793  0.0301
 1483TIP3    H125940   4.618   3.953  13.636  1.5025 -1.6273 -0.9658
 1483TIP3    H225941   4.656   4.027  13.509  0.0599 -0.8815 -0.9745
 1484TIP3   OH225942   5.877   3.069   5.383 -0.3046 -0.4683  0.2532
 1484TIP3    H125943   5.952   3.011   5.370  0.0186 -0.1047  0.4755
 1484TIP3    H225944   5.899   3.119   5.462 -0.9619 -0.6501  0.5563
 1485TIP3   OH225945   0.349   3.772  16.430 -0.2393 -0.1061 -0.5615
 1485TIP3    H125946   0.288   3.838  16.396  0.7193  0.5756 -0.9732
 1485TIP3    H225947   0.293   3.699  16.456 -1.4683  1.4244  1.2369
 1486TIP3   OH225948   0.147   4.989   2.055  0.6318  0.3879 -0.5244
 1486TIP3    H125949   0.229   5.031   2.080  0.1570  1.1226 -0.1615
 1486TIP3    H225950   0.158   4.970   1.962  0.9966  1.0063 -0.6120
 1487TIP3   OH225951   0.490   4.494  11.031  0.3666  0.4564 -0.1812
 1487TIP3    H125952   0.555   4.540  11.084 -0.2880  2.1017 -0.7815
 1487TIP3    H225953   0.412   4.550  11.034  0.6698  1.2114 -3.8061
 1488TIP3   OH225954   4.059   3.004   5.428  0.1650 -0.3178  0.5926
 1488TIP3    H125955   4.026   3.085   5.467  0.0009  0.5450 -1.2846
 1488TIP3    H225956   4.128   3.033   5.369 -1.0109 -1.3627 -1.3457
 1489TIP3   OH225957   0.770   4.258   4.165  0.2210 -0.3902  0.0866
 1489TIP3    H125958   0.742   4.167   4.177 -2.7102  0.3361 -0.8707
 1489TIP3    H225959   0.747   4.301   4.248 -1.2924  0.1250 -0.5711
 1490TIP3   OH225960   2.085   1.646   1.732 -0.3827  0.2093  0.1402
 1490TIP3    H125961   2.146   1.704   1.687 -1.2479  1.0961  0.1008
 1490TIP3    H225962   2.119   1.558   1.715  0.0836  0.6145 -1.0558
 1491TIP3   OH225963   6.566   5.650   2.664 -0.2341 -0.3034 -0.2769
 1491TIP3    H125964   6.601   5.583   2.605  0.8596 -1.7724  1.9716
 1491TIP3    H225965   6.552   5.604   2.747 -0.0376  2.1276  1.1488
 1492TIP3   OH225966   6.485   3.665   1.900  0.2775  0.2260  0.1817
 1492TIP3    H125967   6.406   3.682   1.951 -0.1858  1.2142 -0.8385
 1492TIP3    H225968   6.456   3.663   1.809  1.3160 -0.0583 -0.1589
 1493TIP3   OH225969   1.281   0.721   2.765 -0.0690 -0.2223 -0.0184
 1493TIP3    H125970   1.189   0.732   2.787  0.0336  1.0629 -0.2232
 1493TIP3    H225971   1.317   0.809   2.766  1.0709 -0.6723 -0.3564
 1494TIP3   OH225972   3.993   1.436  17.090  0.0592 -0.1238 -0.0244
 1494TIP3    H125973   3.912   1.478  17.119 -0.4632 -1.1737  0.0698
 1494TIP3    H225974   4.009   1.472  17.002 -0.4916  0.1005 -0.0348
 1495TIP3   OH225975   5.171   1.070  10.692 -1.1293 -0.5090 -0.0810
 1495TIP3    H125976   5.263   1.066  10.665 -0.9264  2.0346  0.1084
 1495TIP3    H225977   5.173   1.107  10.780 -2.3244 -0.5739 -0.0197
 1496TIP3   OH225978   6.231   2.822  14.351  0.0517 -0.4120  0.2468
 1496TIP3    H125979   6.182   2.897  14.384  0.0744 -0.5219  0.5368
 1496TIP3    H225980   6.175   2.746  14.370 -0.4127 -0.3678 -0.9450
 1497TIP3   OH225981   0.263   3.867   6.081  0.8930 -0.0746  0.0684
 1497TIP3    H125982   0.328   3.806   6.116  0.7030 -0.8208 -0.8609
 1497TIP3    H225983   0.267   3.943   6.139  3.1294  0.1984 -0.4206
 1498TIP3   OH225984   3.331   3.835  16.915  0.1229 -0.3740  0.0262
 1498TIP3    H125985   3.237   3.850  16.902 -0.5246 -0.6990  3.6088
 1498TIP3    H225986   3.344   3.742  16.894 -0.2496 -0.2228 -0.8959
 1499TIP3   OH225987   2.897   6.296   4.749 -0.0518  0.1656  0.3178
 1499TIP3    H125988   2.930   6.209   4.771 -0.4809  0.0506  0.5054
 1499TIP3    H225989   2.902   6.300   4.654  0.7241  0.2353  0.3565
 1500TIP3   OH225990   5.670   1.036  12.501  0.6696  0.0066  0.5692
 1500TIP3    H125991   5.607   0.974  12.539  0.2114  0.4480  0.5383
 1500TIP3    H225992   5.654   1.118  12.547 -0.6736  0.8570 -1.3275
 1501TIP3   OH225993   5.712   2.628  14.449  0.1284 -0.0861  0.2738
 1501TIP3    H125994   5.664   2.686  14.390 -0.3040 -0.5889  0.1227
 1501TIP3    H225995   5.644   2.587  14.503  0.7178  2.5097  3.0990
 1502TIP3   OH225996   0.659   0.143  17.273 -0.1172  0.3845 -0.3633
 1502TIP3    H125997   0.711   0.065  17.294  0.4053  1.1906  1.3777
 1502TIP3    H225998   0.675   0.204  17.345 -2.1056  1.3360 -0.6671
 1503TIP3   OH225999   0.053   2.167  12.500  0.4577  0.0967  0.0432
 1503TIP3    H126000   0.097   2.124  12.427  0.9170  0.2287  0.2438
 1503TIP3    H226001  -0.002   2.234  12.458 -0.1853 -0.6143 -0.2636
 1504TIP3   OH226002   1.790   1.914  12.276 -0.2177 -0.1867 -0.5722
 1504TIP3    H126003   1.698   1.891  12.291 -0.1500 -0.5456 -0.7139
 1504TIP3    H226004   1.832   1.832  12.250  0.1541 -0.0334 -0.4604
 1505TIP3   OH226005   2.066   3.237   4.853  0.3231  0.3800 -0.3713
 1505TIP3    H126006   2.147   3.276   4.885  0.4216 -1.8177  2.2622
 1505TIP3    H226007   2.073   3.243   4.758  4.4046 -1.2538 -0.3038
 1506TIP3   OH226008   0.977   5.395   0.820  0.4335 -0.3368  0.9265
 1506TIP3    H126009   0.902   5.366   0.769  0.6068  0.1369  0.4017
 1506TIP3    H226010   0.979   5.490   0.807  0.5483 -0.2244  1.7171
 1507TIP3   OH226011   6.155   4.596  17.110  0.1296  0.5242  0.3396
 1507TIP3    H126012   6.062   4.601  17.085 -0.2610  0.4122  1.7570
 1507TIP3    H226013   6.178   4.505  17.095 -0.5166  0.1086  1.7979
 1508TIP3   OH226014   6.615   3.597   6.742  0.5157 -0.2855 -0.0829
 1508TIP3    H126015   6.616   3.524   6.803  0.0607  0.5668  0.9585
 1508TIP3    H226016   6.706   3.609   6.716  1.0251  0.6800  2.0448
 1509TIP3   OH226017   1.848   4.033   0.206  0.2257 -0.2434 -0.0325
 1509TIP3    H126018   1.808   3.946   0.205 -0.3175 -0.0446  1.9265
 1509TIP3    H226019   1.927   4.023   0.259  0.3365  0.3821 -0.0742
 1510TIP3   OH226020   3.436   3.831   0.760 -0.4677  0.0843 -0.0275
 1510TIP3    H126021   3.389   3.775   0.699 -0.1605  0.0442 -0.2277
 1510TIP3    H226022   3.451   3.912   0.711  0.2873 -0.1590 -0.2035
 1511TIP3   OH226023   2.869   3.344   1.086  0.4865 -0.4346  0.2422
 1511TIP3    H126024   2.940   3.401   1.114  1.1341 -2.5764  3.1566
 1511TIP3    H226025   2.912   3.271   1.041 -0.2074  0.4782 -1.9495
 1512TIP3   OH226026   5.458   1.783  13.287  0.4755  0.2582 -0.4537
 1512TIP3    H126027   5.449   1.842  13.362  1.4643 -0.1460 -0.0188
 1512TIP3    H226028   5.399   1.820  13.221 -0.7804  0.3335  0.6891
 1513TIP3   OH226029   3.895   5.684  16.554 -0.1200  0.3858 -0.2534
 1513TIP3    H126030   3.988   5.661  16.555  0.1737  1.3870 -2.5551
 1513TIP3    H226031   3.885   5.742  16.630  1.1591  0.4001 -0.0719
 1514TIP3   OH226032   0.266   0.022  11.219 -0.2425 -0.1100  0.5039
 1514TIP3    H126033   0.350  -0.023  11.217 -1.0252 -1.5907  0.4495
 1514TIP3    H226034   0.234   0.016  11.129 -0.3021  0.6800  0.4665
 1515TIP3   OH226035   1.970   6.689  14.459  0.0356  0.5301  0.1070
 1515TIP3    H126036   2.061   6.712  14.478 -0.4594  2.1096  0.6758
 1515TIP3    H226037   1.954   6.609  14.509  1.0246  0.4075  0.2278
 1516TIP3   OH226038   5.498   3.372  13.961  0.4940  0.5766  0.4438
 1516TIP3    H126039   5.447   3.359  14.041  0.2926  0.5373  0.3082
 1516TIP3    H226040   5.585   3.395  13.992  0.1204  1.7005  0.6698
 1517TIP3   OH226041   5.238   4.506  17.095  0.0573  0.1319 -0.3935
 1517TIP3    H126042   5.323   4.544  17.074  0.7412 -1.4792 -0.5992
 1517TIP3    H226043   5.208   4.470  17.012 -1.1843  1.3328 -0.4906
 1518TIP3   OH226044   5.684   5.689  16.823  0.3169 -0.3232 -0.4809
 1518TIP3    H126045   5.727   5.606  16.843  0.5207  0.4064  2.2955
 1518TIP3    H226046   5.671   5.686  16.729  2.0378 -2.6810 -0.7124
 1519TIP3   OH226047   0.531   2.816   4.339 -0.0224 -0.2194  0.3154
 1519TIP3    H126048   0.555   2.895   4.290  0.0847 -1.3331 -1.4970
 1519TIP3    H226049   0.615   2.777   4.362 -0.0642 -0.6537 -0.2441
 1520TIP3   OH226050   0.342   3.767   0.679  0.3191 -0.3803  0.0885
 1520TIP3    H126051   0.325   3.693   0.620  3.0258 -1.8140  1.0264
 1520TIP3    H226052   0.437   3.768   0.689  0.1911  2.2087  1.4544
 1521TIP3   OH226053   5.876   4.007   1.024  0.1943 -0.4515 -0.0438
 1521TIP3    H126054   5.893   3.967   0.939  0.5783  0.9625 -0.6379
 1521TIP3    H226055   5.819   4.081   1.006 -1.6652 -1.5117  1.2268
 1522TIP3   OH226056   2.870   5.797  15.043  0.4179  0.0472 -0.3608
 1522TIP3    H126057   2.921   5.717  15.034 -0.0064 -0.6247  2.6456
 1522TIP3    H226058   2.932   5.868  15.022  1.3862 -0.9379 -0.8858
 1523TIP3   OH226059   2.823   1.680  14.655 -0.0052  0.6952  0.1060
 1523TIP3    H126060   2.837   1.636  14.571 -1.1926  0.0149  0.2517
 1523TIP3    H226061   2.872   1.628  14.718 -0.0060  0.5793  0.0112
 1524TIP3   OH226062   0.610   4.035   2.848 -0.2884  0.2044 -0.0705
 1524TIP3    H126063   0.631   3.950   2.885  3.9569  1.1554 -0.0008
 1524TIP3    H226064   0.620   4.024   2.754 -0.6053  0.4079 -0.1297
 1525TIP3   OH226065   1.102   5.481   5.402 -0.4953 -0.3410 -0.0482
 1525TIP3    H126066   1.192   5.505   5.420 -0.3212 -1.4684  0.6398
 1525TIP3    H226067   1.105   5.386   5.385 -1.4058 -0.2216 -0.9424
 1526TIP3   OH226068   0.366   3.213  15.729 -0.5199  0.4202  0.5701
 1526TIP3    H126069   0.396   3.168  15.649 -1.6262  0.5523  0.0748
 1526TIP3    H226070   0.283   3.253  15.704 -1.4010 -0.4288  2.1061
 1527TIP3   OH226071   0.086   1.135  15.704  0.3390 -0.1004 -0.7776
 1527TIP3    H126072  -0.007   1.144  15.684  0.6298  1.4297 -1.5513
 1527TIP3    H226073   0.127   1.118  15.619  0.7716 -0.6511 -0.4557
 1528TIP3   OH226074   1.951   5.994   0.216  0.0768 -0.2400  0.5534
 1528TIP3    H126075   2.039   5.979   0.182 -0.5461 -1.9648 -0.3734
 1528TIP3    H226076   1.906   6.042   0.146  0.4019  1.0320  1.2075
 1529TIP3   OH226077   4.497   0.415   5.297 -0.0704  0.1041  0.5841
 1529TIP3    H126078   4.484   0.413   5.392  0.6918  0.2915  0.6913
 1529TIP3    H226079   4.559   0.344   5.280 -1.7732 -1.3041 -0.0288
 1530TIP3   OH226080   0.853   6.016  12.760  0.7376  0.3863  0.1781
 1530TIP3    H126081   0.838   6.089  12.821 -0.1064  0.1221  0.2874
 1530TIP3    H226082   0.796   5.946  12.792 -0.9522  0.7846 -1.8507
 1531TIP3   OH226083   1.597   3.472   6.214  0.3362  0.2042  0.3612
 1531TIP3    H126084   1.645   3.404   6.261  0.3440  0.1398  0.2590
 1531TIP3    H226085   1.512   3.475   6.256 -0.1286 -0.7833 -0.4909
 1532TIP3   OH226086   0.541   5.066   4.492  0.5396 -0.3452 -0.8045
 1532TIP3    H126087   0.579   5.125   4.557  1.0502 -0.9403 -0.5575
 1532TIP3    H226088   0.524   5.121   4.416  0.7504  0.1773 -0.4702
 1533TIP3   OH226089   6.456   0.490  12.239  0.5776  0.1177 -0.8267
 1533TIP3    H126090   6.400   0.487  12.317  1.2411 -1.7282 -0.4018
 1533TIP3    H226091   6.481   0.582  12.232  1.1024  0.1984  1.5773
 1534TIP3   OH226092   5.983   0.515  10.325  0.1752  0.3561 -0.2316
 1534TIP3    H126093   6.031   0.464  10.390  0.8553  1.0250 -0.2141
 1534TIP3    H226094   5.900   0.468  10.316  0.6370 -0.5386  0.0719
 1535TIP3   OH226095   2.390   3.766  14.973  0.3757 -0.5117 -0.1176
 1535TIP3    H126096   2.402   3.815  14.892 -4.1334 -0.8672 -1.1433
 1535TIP3    H226097   2.418   3.677  14.952  0.1191 -0.3766 -1.0343
 1536TIP3   OH226098   1.529   0.558   4.544 -0.1365 -0.2643 -0.2144
 1536TIP3    H126099   1.618   0.568   4.510 -0.3161 -0.7363 -0.8301
 1536TIP3    H226100   1.487   0.497   4.484 -0.1834 -1.8391  1.3870
 1537TIP3   OH226101   0.428   1.977  12.717 -0.4396  0.6888  0.5256
 1537TIP3    H126102   0.484   2.003  12.643 -1.2679  0.6379 -0.1392
 1537TIP3    H226103   0.414   2.058  12.766 -0.3851  0.8546  0.2706
 1538TIP3   OH226104   6.271   2.960  11.118  0.5495  0.1938 -0.2198
 1538TIP3    H126105   6.232   2.985  11.202  0.2413 -2.0589  0.3267
 1538TIP3    H226106   6.360   2.995  11.121  1.0092 -1.0921  1.6511
 1539TIP3   OH226107   0.928   6.386  15.501  0.0360  0.0415  0.4070
 1539TIP3    H126108   1.015   6.397  15.463  0.8185 -3.4194  1.0917
 1539TIP3    H226109   0.876   6.348  15.430 -0.2519 -0.2446  0.7701
 1540TIP3   OH226110   2.614   6.377  14.436 -0.4697 -0.5988  0.3476
 1540TIP3    H126111   2.684   6.336  14.385  0.1857 -0.4323  1.0996
 1540TIP3    H226112   2.648   6.464  14.458 -1.5731  0.1028 -0.6545
 1541TIP3   OH226113   4.295   4.546  11.034 -0.7828  0.2893  0.1836
 1541TIP3    H126114   4.277   4.467  10.983 -0.9906 -0.0875  0.8461
 1541TIP3    H226115   4.353   4.597  10.978 -2.4065  0.6736 -1.1975
 1542TIP3   OH226116   1.343   0.849  12.523  0.7702  0.5703 -0.1700
 1542TIP3    H126117   1.261   0.807  12.495  0.7209 -0.9885  2.1911
 1542TIP3    H226118   1.375   0.893  12.444  0.6117 -3.5642 -2.7144
 1543TIP3   OH226119   5.013   6.098   2.374 -0.1778 -0.0418 -0.0397
 1543TIP3    H126120   5.030   6.016   2.326 -0.7903 -0.0639 -0.2224
 1543TIP3    H226121   4.918   6.106   2.375 -0.1895 -0.1411  1.3503
 1544TIP3   OH226122   2.433   5.885  16.228 -0.7661  0.0040 -0.9272
 1544TIP3    H126123   2.450   5.953  16.163 -1.7650  1.4589  0.3062
 1544TIP3    H226124   2.476   5.916  16.307  0.0711 -1.5512 -0.7408
 1545TIP3   OH226125   1.964   2.218   0.005 -0.0227  0.3227 -0.3940
 1545TIP3    H126126   1.973   2.123  -0.008 -0.8732  0.4323 -1.9110
 1545TIP3    H226127   1.947   2.253  -0.083  1.6638  2.0566 -0.0532
 1546TIP3   OH226128   3.327   6.181  12.416  0.4846  0.0707 -0.1139
 1546TIP3    H126129   3.351   6.218  12.501  0.4538  2.4784 -1.1170
 1546TIP3    H226130   3.257   6.238  12.384  0.4009 -0.8892 -1.7150
 1547TIP3   OH226131   2.255   2.080  16.286 -0.5970  0.2979 -0.2164
 1547TIP3    H126132   2.177   2.057  16.236 -0.8314  0.4299  0.0896
 1547TIP3    H226133   2.325   2.026  16.248 -0.5122  1.2666 -1.4853
 1548TIP3   OH226134   3.704   5.864  15.676 -0.2331  0.4208  0.5437
 1548TIP3    H126135   3.718   5.958  15.676 -1.1884  0.5641  0.3817
 1548TIP3    H226136   3.734   5.835  15.763  0.0557  0.8641  0.5906
 1549TIP3   OH226137   3.552   6.309   0.933  0.4121 -0.2610  0.3454
 1549TIP3    H126138   3.475   6.301   0.989 -0.4041 -1.1264 -0.8777
 1549TIP3    H226139   3.588   6.396   0.954  0.1319 -0.5617  2.1922
 1550TIP3   OH226140   0.810   6.342  15.809  0.5168  0.4745 -0.1199
 1550TIP3    H126141   0.817   6.403  15.735  0.6124 -1.8747 -2.0833
 1550TIP3    H226142   0.719   6.315  15.809  0.9655 -1.0961 -0.6808
 1551TIP3   OH226143   2.601   4.014   1.932  0.3543 -0.3484 -0.2165
 1551TIP3    H126144   2.669   4.068   1.972  0.2120  0.0433 -0.4980
 1551TIP3    H226145   2.536   4.001   2.001  0.1526  0.2485 -0.2896
 1552TIP3   OH226146   0.821   1.077   0.888  0.3316 -0.5869  0.4277
 1552TIP3    H126147   0.885   1.025   0.936  0.5552  0.0842  0.8674
 1552TIP3    H226148   0.740   1.067   0.937  0.7783  0.8542  1.5055
 1553TIP3   OH226149   4.694   3.679   1.651  0.0103  0.4124 -0.0135
 1553TIP3    H126150   4.610   3.673   1.605  0.2020 -0.3735 -0.2661
 1553TIP3    H226151   4.737   3.755   1.612 -0.3422  0.4781 -0.2784
 1554TIP3   OH226152   5.969   3.503   5.705  0.3057 -0.3341 -0.1047
 1554TIP3    H126153   6.044   3.553   5.735  0.2358 -0.3602  0.1226
 1554TIP3    H226154   5.929   3.470   5.786 -0.1065 -0.0943 -0.2091
 1555TIP3   OH226155   6.709   2.329   0.357 -0.4375 -0.6326  0.3455
 1555TIP3    H126156   6.643   2.303   0.421  0.0016 -0.0484  1.0463
 1555TIP3    H226157   6.725   2.250   0.306  0.9659 -1.8043  2.5225
 1556TIP3   OH226158   6.305   0.697  14.872  0.1166 -0.3105  0.6711
 1556TIP3    H126159   6.378   0.743  14.832  0.9328 -0.3696  2.0463
 1556TIP3    H226160   6.338   0.669  14.958 -0.9985 -1.7282  0.6689
 1557TIP3   OH226161   6.746   5.056   2.290 -0.0240 -0.5204 -0.3284
 1557TIP3    H126162   6.822   5.096   2.246 -1.0398  2.5014  0.5459
 1557TIP3    H226163   6.678   5.053   2.222  0.1770 -1.1369 -0.5026
 1558TIP3   OH226164   4.731   3.211  17.238 -0.3471 -1.7501 -0.1016
 1558TIP3    H126165   4.720   3.306  17.240  1.6330 -1.5024  3.0187
 1558TIP3    H226166   4.658   3.180  17.184 -2.5145  1.3447  0.8511
 1559TIP3   OH226167   3.987   2.422  12.192  0.1717 -0.9869  0.4289
 1559TIP3    H126168   3.962   2.334  12.165  0.9935 -1.7206  2.0091
 1559TIP3    H226169   4.081   2.417  12.208  0.1988  0.1377  0.6664
 1560TIP3   OH226170   1.030   1.299  14.241  0.4159 -1.0559  0.0805
 1560TIP3    H126171   0.962   1.247  14.282  0.8259  0.2450  2.4758
 1560TIP3    H226172   0.990   1.333  14.161 -1.7058 -0.4223  1.3834
 1561TIP3   OH226173   4.494   6.728   5.828  0.3209  0.0469  0.0397
 1561TIP3    H126174   4.441   6.794   5.783 -0.6009  0.4375  1.6543
 1561TIP3    H226175   4.447   6.712   5.910  1.3693 -1.4798  0.3563
 1562TIP3   OH226176   2.526   3.102  17.247  0.4132 -0.2446  0.4615
 1562TIP3    H126177   2.527   3.160  17.323  0.7865  0.2790  0.0611
 1562TIP3    H226178   2.466   3.032  17.272  0.6881 -0.1869  1.3132
 1563TIP3   OH226179   1.145   2.428   2.857 -0.5312  0.2210 -0.2155
 1563TIP3    H126180   1.223   2.402   2.807 -0.1258 -0.4571  0.7394
 1563TIP3    H226181   1.077   2.367   2.829  0.2111 -1.4289  1.4493
 1564TIP3   OH226182   1.407   2.153   5.728 -0.2115 -0.1515  0.2821
 1564TIP3    H126183   1.323   2.137   5.769 -0.4486  0.7519  0.1522
 1564TIP3    H226184   1.387   2.205   5.650  0.5857  1.3812  1.0574
 1565TIP3   OH226185   3.381   0.221  15.601  0.4132 -0.1469 -0.1931
 1565TIP3    H126186   3.422   0.228  15.514 -0.3117  1.1259 -0.4406
 1565TIP3    H226187   3.412   0.299  15.648 -1.7074  0.8633 -0.3931
 1566TIP3   OH226188   2.075   2.599   4.655  0.1076  0.3559  0.4928
 1566TIP3    H126189   2.143   2.656   4.621  0.0011  0.6150  0.7161
 1566TIP3    H226190   2.087   2.602   4.750  0.9794 -1.0642  0.4455
 1567TIP3   OH226191   5.950   3.207  17.202 -0.3921  0.2578  0.4625
 1567TIP3    H126192   6.030   3.194  17.252  1.4354  1.4939 -1.9986
 1567TIP3    H226193   5.890   3.140  17.235  1.2566  0.0089  3.1171
 1568TIP3   OH226194   2.617   0.468  11.773  0.0087  0.1389  0.0080
 1568TIP3    H126195   2.533   0.507  11.796  0.6326 -0.2278  3.1593
 1568TIP3    H226196   2.608   0.375  11.796  0.8132 -0.2191 -1.0315
 1569TIP3   OH226197   1.824   1.112   1.809  0.0281 -0.6880 -0.3220
 1569TIP3    H126198   1.848   1.149   1.724  1.8985 -1.6673 -0.2397
 1569TIP3    H226199   1.872   1.166   1.873 -2.2270  0.7518  0.2250
 1570TIP3   OH226200   4.848   3.980   5.032  0.1444  0.3766 -0.0472
 1570TIP3    H126201   4.765   4.026   5.043 -0.1761 -0.2479  0.1815
 1570TIP3    H226202   4.830   3.891   5.062  0.8342  0.1783 -0.2138
 1571TIP3   OH226203   5.331   3.393   3.558  0.3779 -0.5103 -0.2560
 1571TIP3    H126204   5.240   3.364   3.552  0.4702 -1.2040  1.4447
 1571TIP3    H226205   5.369   3.338   3.626  1.6244  0.9392  0.2354
 1572TIP3   OH226206   3.594   6.494  13.073  0.0588 -0.1915 -0.4008
 1572TIP3    H126207   3.597   6.414  13.022  0.2699 -1.0066  0.8740
 1572TIP3    H226208   3.504   6.501  13.103 -0.0018  0.1461 -0.6573
 1573TIP3   OH226209   1.606   4.507  12.560 -0.0198  0.1591  0.5561
 1573TIP3    H126210   1.568   4.592  12.536 -1.4989 -0.6753 -0.1068
 1573TIP3    H226211   1.606   4.456  12.479 -0.3420 -0.9248  1.2246
 1574TIP3   OH226212   4.389   3.485  16.369  0.1286 -0.0292  0.1647
 1574TIP3    H126213   4.348   3.498  16.454 -0.4840 -1.8364  0.1753
 1574TIP3    H226214   4.333   3.421  16.325  1.6788 -0.8293 -0.6997
 1575TIP3   OH226215   5.196   4.465  11.320  0.5408  0.8683  0.0039
 1575TIP3    H126216   5.251   4.397  11.357  1.1397  1.9962  1.1994
 1575TIP3    H226217   5.134   4.417  11.264  0.7418 -0.6772  1.0634
 1576TIP3   OH226218   5.884   2.566  15.950 -0.0244 -0.5362  0.2349
 1576TIP3    H126219   5.885   2.500  15.881  1.9272  0.4578 -0.7262
 1576TIP3    H226220   5.855   2.519  16.028 -1.4525 -1.8539 -1.0636
 1577TIP3   OH226221   0.060   3.244   1.705 -1.1044  0.1161  0.0856
 1577TIP3    H126222  -0.013   3.226   1.765  0.2122  0.7635  1.9138
 1577TIP3    H226223   0.138   3.223   1.756  0.1050  2.2652 -0.8557
 1578TIP3   OH226224   5.508   0.547  15.151 -0.0192  0.9635 -0.3211
 1578TIP3    H126225   5.446   0.603  15.103 -2.3954 -1.1208  0.2008
 1578TIP3    H226226   5.533   0.480  15.087  0.2176  0.7117  0.0385
 1579TIP3   OH226227   0.418   2.141  16.961 -0.1786  0.4218  0.5198
 1579TIP3    H126228   0.386   2.220  17.006  1.3999  1.7270 -0.5725
 1579TIP3    H226229   0.496   2.171  16.914  0.0302 -1.6512 -0.4914
 1580TIP3   OH226230   2.543   5.223  14.694 -0.5752  0.9677 -0.5658
 1580TIP3    H126231   2.494   5.256  14.769 -0.2463  0.0795  0.0552
 1580TIP3    H226232   2.633   5.216  14.726 -0.7090 -0.8763 -0.5620
 1581TIP3   OH226233   4.175   6.582   3.284  0.3178 -0.2571  0.7027
 1581TIP3    H126234   4.228   6.502   3.273 -1.5396 -1.3451 -0.7743
 1581TIP3    H226235   4.111   6.559   3.350 -0.2079  0.0202  0.2900
 1582TIP3   OH226236   4.266   3.470   0.031  0.4650  0.6412 -0.0612
 1582TIP3    H126237   4.229   3.484  -0.056 -3.8555  1.0831  1.7602
 1582TIP3    H226238   4.246   3.551   0.079  0.7666 -0.4893  2.0370
 1583TIP3   OH226239   6.475   4.760   5.810  0.0997 -0.1191  0.6923
 1583TIP3    H126240   6.444   4.782   5.898  1.6568  1.0743  0.9690
 1583TIP3    H226241   6.567   4.789   5.809  1.0260 -2.9662 -0.2992
 1584TIP3   OH226242   2.246   3.473   1.577 -0.2159 -0.3018 -0.5493
 1584TIP3    H126243   2.315   3.496   1.514  1.9642 -0.3903  1.7609
 1584TIP3    H226244   2.273   3.514   1.659 -3.4788  0.5624  0.1982
 1585TIP3   OH226245   4.506   4.988   3.271  0.1102 -0.0192  0.1063
 1585TIP3    H126246   4.503   5.082   3.288  0.3657  0.3170 -1.6145
 1585TIP3    H226247   4.596   4.963   3.293 -0.1046  0.0338  1.0652
 1586TIP3   OH226248   0.678   3.422   5.775 -0.0656 -0.1389  0.0668
 1586TIP3    H126249   0.713   3.387   5.856  0.2128  0.9711  0.4403
 1586TIP3    H226250   0.613   3.486   5.802 -1.9839 -1.7422 -0.6252
 1587TIP3   OH226251   3.942   0.818   5.730 -0.5333  0.4720 -0.0618
 1587TIP3    H126252   3.940   0.897   5.676  3.4334  0.7456  0.0607
 1587TIP3    H226253   3.915   0.748   5.670  1.4085  1.1318 -1.8014
 1588TIP3   OH226254   1.445   6.046  12.309  0.3678 -0.1214  0.1706
 1588TIP3    H126255   1.357   6.067  12.339 -0.4244 -1.9354 -0.7773
 1588TIP3    H226256   1.438   5.956  12.275  2.6029 -0.3393  0.1963
 1589TIP3   OH226257   6.214   6.650  11.983 -0.6278 -0.5279  0.0679
 1589TIP3    H126258   6.182   6.679  11.897 -0.7332 -0.5065  0.1156
 1589TIP3    H226259   6.245   6.561  11.967 -0.0645 -0.2972 -0.1356
 1590TIP3   OH226260   6.413   6.603  16.055  0.4406  0.1457  0.3150
 1590TIP3    H126261   6.348   6.547  16.098  0.9291 -1.4638 -1.0018
 1590TIP3    H226262   6.364   6.682  16.032 -0.8439 -0.6826  0.1088
 1591TIP3   OH226263   4.405   5.118   0.345  0.0436 -0.1853 -0.1557
 1591TIP3    H126264   4.428   5.160   0.262 -1.7553  1.3374  0.0949
 1591TIP3    H226265   4.318   5.081   0.331 -1.1338  1.7984  1.6431
 1592TIP3   OH226266   0.822   5.704   3.769  0.0984  0.4524  0.2057
 1592TIP3    H126267   0.770   5.725   3.691 -1.7701 -0.7778  1.0728
 1592TIP3    H226268   0.821   5.609   3.773 -0.1463  0.5128  1.9287
 1593TIP3   OH226269   6.394   2.799  16.676  0.0391 -0.2211 -0.0553
 1593TIP3    H126270   6.418   2.885  16.711 -1.5118  0.2430 -0.0963
 1593TIP3    H226271   6.367   2.749  16.753 -0.5388 -0.1738 -0.2306
 1594TIP3   OH226272   4.089   5.830   4.897  0.1436 -0.0735  0.1524
 1594TIP3    H126273   4.059   5.826   4.988  2.7205 -0.5525  1.0088
 1594TIP3    H226274   4.143   5.909   4.893  0.9596 -0.6690 -0.6558
 1595TIP3   OH226275   2.516   5.329  13.837 -0.3970  0.2625  0.0772
 1595TIP3    H126276   2.435   5.373  13.861 -1.0186 -0.7094 -0.2361
 1595TIP3    H226277   2.525   5.345  13.743  0.1613  0.9844  0.2420
 1596TIP3   OH226278   2.350   5.696  15.568 -0.1886  0.2657  0.0434
 1596TIP3    H126279   2.346   5.626  15.503 -1.2646  2.0165 -1.8391
 1596TIP3    H226280   2.294   5.665  15.640 -1.0136 -0.6052 -0.9602
 1597TIP3   OH226281   5.366   2.667  15.717 -0.5424 -0.1516 -0.5921
 1597TIP3    H126282   5.350   2.634  15.628 -0.8921 -2.0996  0.1489
 1597TIP3    H226283   5.280   2.699  15.746 -0.8061 -0.9864 -0.4085
 1598TIP3   OH226284   2.302   5.460  11.369 -0.5821 -0.6174 -0.1173
 1598TIP3    H126285   2.213   5.489  11.353 -1.2634 -2.0451  0.9705
 1598TIP3    H226286   2.322   5.400  11.297 -1.4441 -2.2975  1.0195
 1599TIP3   OH226287   5.775   3.996   5.744 -0.3113 -0.5140 -0.3373
 1599TIP3    H126288   5.722   4.074   5.731  1.3304  0.6161 -0.3657
 1599TIP3    H226289   5.856   4.013   5.696  0.4248 -1.8603  0.3800
 1600TIP3   OH226290   0.911   5.230  13.305 -0.3555 -0.0251  0.2000
 1600TIP3    H126291   0.996   5.217  13.263 -0.2691  2.3804 -0.4397
 1600TIP3    H226292   0.932   5.232  13.399  0.2731  0.3102  0.0599
 1601TIP3   OH226293   6.221   3.495   6.572  0.5479  0.3332  0.0544
 1601TIP3    H126294   6.126   3.496   6.556  0.7989  1.0852 -1.4533
 1601TIP3    H226295   6.244   3.402   6.571  0.3069  0.2522 -2.7188
 1602TIP3   OH226296   4.373   5.264  16.685  0.6363 -0.0586 -0.1498
 1602TIP3    H126297   4.371   5.357  16.662 -0.3090 -0.0668 -0.1031
 1602TIP3    H226298   4.362   5.218  16.602  1.2286 -0.1324 -0.1900
 1603TIP3   OH226299   0.280   0.163   3.652 -0.3893  0.1153  0.1417
 1603TIP3    H126300   0.189   0.174   3.623 -0.0225 -0.1106 -1.1253
 1603TIP3    H226301   0.299   0.070   3.639 -0.7462 -0.3452  2.7398
 1604TIP3   OH226302   6.062   6.397  12.922 -0.0558  0.2510 -0.0946
 1604TIP3    H126303   5.995   6.458  12.949  0.9112  0.9457  0.7940
 1604TIP3    H226304   6.128   6.451  12.877  1.3465  0.0643  1.6960
 1605TIP3   OH226305   4.951   1.050  15.342 -1.1234 -0.2995  0.0044
 1605TIP3    H126306   4.909   1.095  15.269  0.0208 -0.1600 -0.5797
 1605TIP3    H226307   5.037   1.092  15.350  0.2070 -2.6998 -0.9002
 1606TIP3   OH226308   3.020   4.911   1.620 -0.9500  0.0152  0.5530
 1606TIP3    H126309   3.030   4.999   1.585 -1.4771 -0.3339 -0.4830
 1606TIP3    H226310   2.925   4.901   1.631 -0.9636 -0.8211 -0.3557
 1607TIP3   OH226311   1.049   6.287  15.943 -0.1256  0.4156  0.0750
 1607TIP3    H126312   0.960   6.301  15.910 -0.2391 -0.3710  0.0358
 1607TIP3    H226313   1.073   6.370  15.982 -0.2110  1.1894 -1.4880
 1608TIP3   OH226314   5.559   4.481  15.868  1.2672  0.2721 -0.1739
 1608TIP3    H126315   5.596   4.395  15.848 -0.4187 -0.5427  0.0655
 1608TIP3    H226316   5.598   4.505  15.952 -0.0374 -1.3916  0.9720
 1609TIP3   OH226317   5.824   0.035  16.658  0.4123 -0.6540  0.3954
 1609TIP3    H126318   5.885   0.090  16.609 -0.4697 -1.4268 -1.6279
 1609TIP3    H226319   5.769   0.097  16.706  1.5708  0.0977  0.7837
 1610TIP3   OH226320   2.802   3.859  16.162 -0.9670 -0.1418 -0.5677
 1610TIP3    H126321   2.875   3.804  16.134 -0.9925  0.3070 -1.5442
 1610TIP3    H226322   2.810   3.865  16.257  0.9443  0.8827 -0.7812
 1611TIP3   OH226323   3.310   6.316  12.918 -0.1853  0.2212  0.3421
 1611TIP3    H126324   3.323   6.358  13.003 -1.6858 -1.1045  1.2602
 1611TIP3    H226325   3.235   6.361  12.879  0.3508  0.6683 -0.1879
 1612TIP3   OH226326   4.924   2.211  12.773  0.3327 -0.2175  0.0806
 1612TIP3    H126327   4.936   2.198  12.679  0.6266  0.7004 -0.0162
 1612TIP3    H226328   4.879   2.296  12.779  0.0291 -0.4269  0.7498
 1613TIP3   OH226329   2.989   0.404   0.740 -0.2741  0.1779  0.4495
 1613TIP3    H126330   3.053   0.453   0.791 -0.1271  1.1980 -0.7189
 1613TIP3    H226331   2.907   0.452   0.752 -0.6851 -0.7197  1.3543
 1614TIP3   OH226332   4.706   4.971  16.650  0.2278 -0.1593  0.3188
 1614TIP3    H126333   4.624   4.990  16.606 -0.0332  0.3373  1.0198
 1614TIP3    H226334   4.743   4.898  16.601  0.5419  1.1771 -1.4993
 1615TIP3   OH226335   4.599   0.578  15.006  0.0803 -0.3529  0.0687
 1615TIP3    H126336   4.682   0.594  14.961 -0.3024 -0.0553 -0.5374
 1615TIP3    H226337   4.573   0.490  14.978 -0.6829  0.2460 -1.1294
 1616TIP3   OH226338   3.001   2.357   1.903  0.0007  0.2257 -0.0207
 1616TIP3    H126339   2.932   2.365   1.969 -0.5720 -1.4324 -0.3911
 1616TIP3    H226340   3.082   2.357   1.953 -0.3936 -0.2703  0.6236
 1617TIP3   OH226341   0.986   6.564  17.113 -0.3531  0.0783  0.1282
 1617TIP3    H126342   0.981   6.469  17.128  1.2625 -0.1644 -0.7773
 1617TIP3    H226343   0.935   6.578  17.033 -1.4587  0.1306  0.8279
 1618TIP3   OH226344   4.109   6.150  13.522  0.0206  0.5212 -0.3980
 1618TIP3    H126345   4.108   6.158  13.427 -3.8051  1.0477 -0.4213
 1618TIP3    H226346   4.089   6.058  13.539 -0.7317  0.7239 -0.1403
 1619TIP3   OH226347   4.023   5.828  14.752  0.4724  0.2410  0.0783
 1619TIP3    H126348   4.006   5.734  14.744 -0.7332  0.5231 -0.8260
 1619TIP3    H226349   3.976   5.854  14.832  1.0507  0.0231  0.4901
 1620TIP3   OH226350   2.933   0.928  15.593  0.1589 -0.2788 -0.0697
 1620TIP3    H126351   2.904   0.836  15.590 -0.6559 -0.0980  1.7964
 1620TIP3    H226352   2.853   0.979  15.579  0.0115  0.1841  2.3841
 1621TIP3   OH226353   6.317   6.165  12.642  0.1871 -0.0115 -0.1199
 1621TIP3    H126354   6.306   6.079  12.601 -2.8136 -0.3649  1.2821
 1621TIP3    H226355   6.278   6.226  12.581 -0.7656 -0.0629  0.4356
 1622TIP3   OH226356   2.291   1.856   1.567  0.2578 -0.0684 -0.3553
 1622TIP3    H126357   2.346   1.924   1.527  0.6974 -0.8249 -1.0575
 1622TIP3    H226358   2.247   1.900   1.639  0.4514  0.9935 -0.8770
 1623TIP3   OH226359   0.084   2.595  14.527  0.5073 -0.3296  0.3812
 1623TIP3    H126360   0.148   2.537  14.487 -1.4589 -1.6086 -1.0094
 1623TIP3    H226361   0.088   2.675  14.475  1.2294 -0.2612  0.5351
 1624TIP3   OH226362   4.618   0.348  17.196  0.1150 -0.2551  0.2025
 1624TIP3    H126363   4.645   0.309  17.280  0.8031 -1.1322 -0.4241
 1624TIP3    H226364   4.695   0.340  17.140  0.3622  2.2239  0.1286
 1625TIP3   OH226365   2.031   1.008   4.291  0.1216 -0.1153 -0.1394
 1625TIP3    H126366   2.047   0.976   4.202  0.5738 -3.7096  1.1579
 1625TIP3    H226367   2.004   0.931   4.340 -1.4642  2.0590  2.5636
 1626TIP3   OH226368   4.061   3.293   1.436 -0.3239  0.6696 -0.1248
 1626TIP3    H126369   4.046   3.225   1.371 -1.4211 -0.9089  1.7052
 1626TIP3    H226370   3.979   3.343   1.439 -0.8276 -0.2005  1.0764
 1627TIP3   OH226371   5.516   3.388  14.912  0.8692 -0.3595 -0.2404
 1627TIP3    H126372   5.485   3.398  14.822 -2.8741 -2.0344  0.7672
 1627TIP3    H226373   5.562   3.304  14.913  1.3379 -0.1110 -0.6817
 1628TIP3   OH226374   6.119   4.754   5.890 -0.4661 -0.0797  0.1704
 1628TIP3    H126375   6.195   4.755   5.948 -0.8483  0.3506  0.6700
 1628TIP3    H226376   6.156   4.765   5.802 -0.0272  1.2173  0.5023
 1629TIP3   OH226377   1.003   2.718   3.040  0.7741 -0.2129 -0.1843
 1629TIP3    H126378   0.942   2.779   2.998  1.0767  1.4017  1.6663
 1629TIP3    H226379   0.979   2.632   3.006 -0.9892  0.6943 -1.2732
 1630TIP3   OH226380   4.383   1.220  12.580  0.4134  0.6901 -0.0429
 1630TIP3    H126381   4.355   1.282  12.648 -2.3428 -0.0494 -0.4562
 1630TIP3    H226382   4.411   1.275  12.507 -1.1018  1.4821 -0.0474
 1631TIP3   OH226383   4.748   5.658  12.149  0.0963  0.6480 -0.1345
 1631TIP3    H126384   4.773   5.573  12.187  0.5509  1.7925  2.2266
 1631TIP3    H226385   4.653   5.654  12.143  0.1563 -0.2696 -0.6498
 1632TIP3   OH226386   4.301   0.513   4.403 -0.2388 -0.1783 -0.5211
 1632TIP3    H126387   4.264   0.601   4.402  1.2529  0.4917 -3.2340
 1632TIP3    H226388   4.254   0.466   4.333 -0.4445 -1.2882  0.3425
 1633TIP3   OH226389   1.810   6.126   4.914  0.6116  0.0441  0.2361
 1633TIP3    H126390   1.790   6.051   4.858  1.7059  0.0920 -0.2451
 1633TIP3    H226391   1.862   6.089   4.986  2.2694  0.5161 -0.6896
 1634TIP3   OH226392   0.807   6.316   2.175 -0.3194 -0.0362 -0.2520
 1634TIP3    H126393   0.857   6.257   2.231 -1.2220 -0.8793 -0.3179
 1634TIP3    H226394   0.766   6.378   2.235 -0.5317 -0.3679 -0.0531
 1635TIP3   OH226395   3.968   2.803  13.480 -0.0682 -0.1995  0.2772
 1635TIP3    H126396   3.902   2.790  13.412 -1.0665 -0.9153  1.3561
 1635TIP3    H226397   4.028   2.728  13.469  1.1521  0.9685 -1.3210
 1636TIP3   OH226398   2.682   3.634   1.954 -0.6666 -0.4279 -0.4037
 1636TIP3    H126399   2.659   3.541   1.948  1.1156 -1.3180  4.2018
 1636TIP3    H226400   2.613   3.672   2.008 -0.1230  0.4579 -0.3317
 1637TIP3   OH226401   1.872   5.013   3.547 -0.3430 -0.4158  0.1439
 1637TIP3    H126402   1.917   5.022   3.463 -1.0933  2.3277 -0.0230
 1637TIP3    H226403   1.779   5.027   3.525 -0.5362  0.3656  1.4202
 1638TIP3   OH226404   6.207   1.397   2.783 -0.1456  0.1766 -0.0461
 1638TIP3    H126405   6.127   1.444   2.763 -0.7771 -0.6907  0.3825
 1638TIP3    H226406   6.178   1.320   2.833  0.5695 -2.1134 -2.9958
 1639TIP3   OH226407   0.777   5.446  16.809  0.1048  0.4764  0.1490
 1639TIP3    H126408   0.795   5.527  16.857  1.1102  0.3682 -0.0240
 1639TIP3    H226409   0.838   5.449  16.735 -0.7538  0.1755 -0.5704
 1640TIP3   OH226410   5.091   5.980  12.524  0.2479 -0.2528 -0.1917
 1640TIP3    H126411   5.041   6.061  12.523  1.4331  0.5128  1.3801
 1640TIP3    H226412   5.038   5.918  12.473 -1.6170  0.9324  0.2946
 1641TIP3   OH226413   3.181   3.055   6.053 -0.0535 -0.0800  0.3731
 1641TIP3    H126414   3.183   3.000   6.132 -0.4125  0.5803  0.8478
 1641TIP3    H226415   3.175   3.145   6.087  3.1006  0.4506 -0.3135
 1642TIP3   OH226416   2.854   1.969  12.681 -0.2166 -0.0532 -0.1271
 1642TIP3    H126417   2.862   1.896  12.619  1.0321  2.1071 -2.5894
 1642TIP3    H226418   2.915   1.948  12.751  0.2537 -1.2901 -0.8905
 1643TIP3   OH226419   5.739   3.072   0.886 -0.8397  0.1900 -0.1343
 1643TIP3    H126420   5.734   3.049   0.979 -0.2608  1.2185  0.1628
 1643TIP3    H226421   5.697   2.999   0.841  2.1066 -2.0797  0.6814
 1644TIP3   OH226422   3.380   1.618  14.806  0.2367  0.2381  0.3380
 1644TIP3    H126423   3.456   1.565  14.783 -0.7196 -0.9025 -0.2302
 1644TIP3    H226424   3.393   1.700  14.759  1.2424  0.1420  0.4474
 1645TIP3   OH226425   2.426   4.745  13.160  0.2891  0.1904  0.1525
 1645TIP3    H126426   2.425   4.841  13.171 -0.6671  0.2369 -0.2426
 1645TIP3    H226427   2.373   4.713  13.233  0.1454  0.0066 -0.0305
 1646TIP3   OH226428   2.068   5.337   2.006  0.3286 -0.3360 -0.7898
 1646TIP3    H126429   2.023   5.274   1.951  1.5744 -1.1044 -0.9321
 1646TIP3    H226430   2.062   5.420   1.958 -0.2862 -0.5877 -1.1471
 1647TIP3   OH226431   1.883   6.612  15.260  0.0843 -0.2318  0.0308
 1647TIP3    H126432   1.939   6.675  15.215 -0.9395  0.5941 -0.1104
 1647TIP3    H226433   1.795   6.650  15.254 -0.1962 -0.5351  1.9590
 1648TIP3   OH226434   1.719   6.666  13.329 -0.0746 -0.0489 -0.1017
 1648TIP3    H126435   1.697   6.666  13.422 -0.0414  2.7922 -0.0456
 1648TIP3    H226436   1.778   6.741  13.318 -1.1748  0.5198 -2.6523
 1649TIP3   OH226437   0.954   2.818  13.931  0.0649 -0.2166 -0.1410
 1649TIP3    H126438   0.954   2.910  13.906 -2.2155 -0.5150 -1.4451
 1649TIP3    H226439   0.937   2.771  13.848 -0.8287 -1.6591  0.8240
 1650TIP3   OH226440   4.743   1.650  10.490 -0.4009  0.1376 -0.1927
 1650TIP3    H126441   4.777   1.718  10.431  1.6052  0.5857  1.4195
 1650TIP3    H226442   4.709   1.698  10.565  0.5351 -0.5891  0.7158
 1651TIP3   OH226443   5.329   0.862   3.184 -0.4293  0.0110  0.0481
 1651TIP3    H126444   5.253   0.917   3.162  0.3793  1.0340 -0.2582
 1651TIP3    H226445   5.368   0.840   3.099 -1.4341 -2.0760  0.0912
 1652TIP3   OH226446   4.550   1.816  11.251 -0.0455  0.3370  0.5048
 1652TIP3    H126447   4.607   1.813  11.329  1.3042 -0.7577 -0.5027
 1652TIP3    H226448   4.462   1.805  11.286  0.6063 -0.8439  1.8299
 1653TIP3   OH226449   0.756   2.830   3.558  0.0753  0.4301 -0.5021
 1653TIP3    H126450   0.848   2.808   3.544 -0.1045 -0.5998 -0.0901
 1653TIP3    H226451   0.734   2.789   3.642 -0.0492  2.8285  0.6758
 1654TIP3   OH226452   5.170   6.295   5.855 -0.6529  0.5479 -0.1350
 1654TIP3    H126453   5.258   6.275   5.885 -1.2104 -1.5293  0.2321
 1654TIP3    H226454   5.169   6.390   5.841  1.5698  0.6007  0.0075
 1655TIP3   OH226455   4.505   6.820  11.676  0.2146 -0.1565 -0.6126
 1655TIP3    H126456   4.415   6.844  11.657  0.5514  0.5895 -1.2503
 1655TIP3    H226457   4.549   6.902  11.696  1.2155 -0.2878 -2.1953
 1656TIP3   OH226458   4.236   5.002   2.737 -0.0156  0.4637  0.0365
 1656TIP3    H126459   4.252   5.097   2.738  1.7022  0.2757 -2.6792
 1656TIP3    H226460   4.218   4.982   2.645  0.8359 -2.0219  0.3690
 1657TIP3   OH226461   5.206   6.006   3.049 -0.4025  0.3403 -0.3131
 1657TIP3    H126462   5.130   6.060   3.028 -0.1840  1.1440  0.9307
 1657TIP3    H226463   5.242   6.044   3.129  0.5882 -0.7848 -0.2001
 1658TIP3   OH226464   4.872   3.944  13.922 -0.0086 -0.4404 -0.1061
 1658TIP3    H126465   4.918   3.909  13.846 -0.5562 -1.8075  0.1696
 1658TIP3    H226466   4.922   3.912  13.997 -0.1194 -0.0444  0.1403
 1659TIP3   OH226467   4.939   1.741  10.872  0.2399  0.1673 -0.4956
 1659TIP3    H126468   4.849   1.760  10.898  0.8648  0.1219  1.7844
 1659TIP3    H226469   4.989   1.816  10.902  1.4009 -1.1183  0.8570
 1660TIP3   OH226470   2.489   2.852   4.243 -0.3349  0.1945 -1.1026
 1660TIP3    H126471   2.426   2.917   4.212 -1.0381  0.0092 -0.0843
 1660TIP3    H226472   2.511   2.881   4.332  1.3093  0.4757 -1.5851
 1661TIP3   OH226473   6.226   1.722   5.954 -0.2317 -0.4847  0.0127
 1661TIP3    H126474   6.185   1.649   5.908  0.8128 -1.6775  0.9355
 1661TIP3    H226475   6.246   1.687   6.041 -1.1273  1.3859  0.9940
 1662TIP3   OH226476   1.182   6.242   5.563  0.0712 -0.0391 -0.0878
 1662TIP3    H126477   1.128   6.165   5.545  0.0760  0.3882 -1.9892
 1662TIP3    H226478   1.122   6.304   5.603 -0.8816  0.4503 -2.2357
 1663TIP3   OH226479   1.453   5.475  15.557 -0.1914 -0.3899  0.0678
 1663TIP3    H126480   1.533   5.481  15.506 -0.1307 -1.3093  0.0512
 1663TIP3    H226481   1.417   5.564  15.556  1.2003  0.1970  0.6918
 1664TIP3   OH226482   1.981   2.174  14.630  0.2143  0.2904  0.7901
 1664TIP3    H126483   2.075   2.185  14.647  0.7929  0.0836 -2.1205
 1664TIP3    H226484   1.968   2.080  14.625 -0.5449  0.2402  3.1034
 1665TIP3   OH226485   1.742   3.919   4.174 -0.3959 -0.2653  0.5433
 1665TIP3    H126486   1.801   3.994   4.180 -0.1411 -0.4571  0.4649
 1665TIP3    H226487   1.801   3.844   4.165 -0.6668 -0.3319 -0.8103
 1666TIP3   OH226488   3.548   6.397   3.818 -0.2877 -0.0250  1.2174
 1666TIP3    H126489   3.551   6.319   3.872 -2.3854 -0.8126  0.2270
 1666TIP3    H226490   3.562   6.469   3.879  1.0020 -1.0986  2.2277
 1667TIP3   OH226491   2.469   6.661   0.002 -0.2277 -0.2211 -0.5245
 1667TIP3    H126492   2.387   6.627  -0.033 -1.4799 -0.5127  2.5400
 1667TIP3    H226493   2.464   6.756  -0.013 -2.1917  0.0632  1.5810
 1668TIP3   OH226494   2.653   2.475   4.666 -0.2255 -0.6768 -0.1865
 1668TIP3    H126495   2.592   2.428   4.609 -0.0780 -0.1231 -0.8093
 1668TIP3    H226496   2.614   2.469   4.753 -1.6170  0.4120 -0.7180
 1669TIP3   OH226497   0.369   0.633  14.287 -0.3442  0.1860  0.2393
 1669TIP3    H126498   0.430   0.657  14.217 -1.1330  2.2841  0.2388
 1669TIP3    H226499   0.414   0.657  14.368 -0.5817  0.4064  0.3074
 1670TIP3   OH226500   2.778   1.166   2.122  0.0380 -0.2328 -0.1629
 1670TIP3    H126501   2.847   1.190   2.060 -0.7022 -1.2459 -1.4051
 1670TIP3    H226502   2.730   1.248   2.137  1.3646  0.4255  0.5465
 1671TIP3   OH226503   0.113   5.413  16.261 -0.3119  0.0601  0.1709
 1671TIP3    H126504   0.091   5.361  16.183 -1.4086  1.1783 -0.2737
 1671TIP3    H226505   0.107   5.504  16.231  1.1989  0.4553  1.0601
 1672TIP3   OH226506   0.523   6.476  14.300  0.1415 -0.5766  0.3110
 1672TIP3    H126507   0.563   6.453  14.383  0.7776 -1.2842 -0.1852
 1672TIP3    H226508   0.437   6.433  14.301  0.6119 -1.5292  0.1247
 1673TIP3   OH226509   5.819   1.432  13.362  0.4796  0.0039  0.1883
 1673TIP3    H126510   5.816   1.439  13.267  4.1410  0.8938  0.0597
 1673TIP3    H226511   5.780   1.514  13.394 -0.3241 -0.0931 -0.5445
 1674TIP3   OH226512   0.919   5.565   4.171  0.4555 -0.3153 -0.3839
 1674TIP3    H126513   0.992   5.519   4.131  1.5240  1.0442 -0.0269
 1674TIP3    H226514   0.927   5.547   4.265  1.7204  1.7410 -0.0764
 1675TIP3   OH226515   5.223   6.244   3.509  0.2117 -0.1223 -0.0132
 1675TIP3    H126516   5.185   6.229   3.596  0.5118 -3.4132 -0.3978
 1675TIP3    H226517   5.274   6.325   3.519  0.5774 -0.6626  2.9969
 1676TIP3   OH226518   1.756   6.054  15.001 -1.1677  0.2230  0.1465
 1676TIP3    H126519   1.770   6.015  15.087  0.9048  0.8750  0.1483
 1676TIP3    H226520   1.677   6.012  14.967 -0.3570 -2.1970  1.1414
 1677TIP3   OH226521   1.116   1.675   1.190 -0.5417 -0.4774 -0.1608
 1677TIP3    H126522   1.108   1.701   1.098 -0.5820 -1.2194 -0.3700
 1677TIP3    H226523   1.041   1.718   1.233 -1.0227 -0.8265 -0.6354
 1678TIP3   OH226524   2.285   0.629  15.759  0.2142  0.0291 -0.0100
 1678TIP3    H126525   2.230   0.677  15.820 -0.2095 -0.1301 -0.2628
 1678TIP3    H226526   2.227   0.563  15.721  1.1731 -1.7293  1.5101
 1679TIP3   OH226527   2.920   0.721  15.914 -0.5362 -0.1591 -0.3493
 1679TIP3    H126528   2.852   0.657  15.896 -0.2241 -0.0048 -2.1813
 1679TIP3    H226529   2.997   0.688  15.868  0.0744  0.7157  0.0264
 1680TIP3   OH226530   3.036   3.289  13.176 -0.0586 -0.7047  0.2139
 1680TIP3    H126531   3.001   3.375  13.150 -0.4651 -0.9011  0.1069
 1680TIP3    H226532   3.089   3.308  13.253  0.2153 -0.2903 -0.0778
 1681TIP3   OH226533   0.713   6.316   3.735 -0.8383 -0.3162 -0.6039
 1681TIP3    H126534   0.764   6.235   3.728  1.1717  0.8413  0.2435
 1681TIP3    H226535   0.725   6.359   3.651  0.9217  0.6958  0.1356
 1682TIP3   OH226536   4.710   5.546   4.539 -0.4500  0.1091  0.3405
 1682TIP3    H126537   4.623   5.506   4.530 -0.8390  0.9458  0.3698
 1682TIP3    H226538   4.695   5.628   4.585  0.1228  1.0932 -1.1873
 1683TIP3   OH226539   4.143   4.941  14.290  0.3203 -0.0936 -1.0128
 1683TIP3    H126540   4.170   4.929  14.381 -3.4151  1.1460  0.3681
 1683TIP3    H226541   4.197   5.014  14.258  1.0266  0.0689  0.5119
 1684TIP3   OH226542   4.909   3.914   1.664 -0.3529  0.3323 -0.0085
 1684TIP3    H126543   4.892   3.944   1.753  0.3912  0.6822  0.0146
 1684TIP3    H226544   4.990   3.864   1.670  0.0092  0.8414 -0.5950
 1685TIP3   OH226545   3.542   2.276   6.045 -0.3022 -0.0824  0.1683
 1685TIP3    H126546   3.633   2.270   6.073 -0.1420  0.8219 -0.1627
 1685TIP3    H226547   3.498   2.322   6.116 -1.0777 -2.9895  1.6378
 1686TIP3   OH226548   0.297   2.461   1.536 -0.3333  0.0211  0.8964
 1686TIP3    H126549   0.307   2.366   1.534 -2.0229 -0.1742 -0.2529
 1686TIP3    H226550   0.244   2.480   1.458 -1.7068  1.6731  2.1978
 1687TIP3   OH226551   5.032   0.027   1.597  0.0734  0.8864 -0.3751
 1687TIP3    H126552   4.960  -0.021   1.638  0.8453  1.3808  1.6653
 1687TIP3    H226553   5.111  -0.021   1.623  0.6262  1.5262 -0.8534
 1688TIP3   OH226554   4.267   2.421   2.779  0.4843 -0.1664 -0.1321
 1688TIP3    H126555   4.338   2.437   2.841  2.1145 -2.8596 -1.1727
 1688TIP3    H226556   4.255   2.504   2.733  1.6221  0.8638  1.3857
 1689TIP3   OH226557   4.890   3.813  16.548  0.0072  0.5655  0.5799
 1689TIP3    H126558   4.895   3.908  16.543 -0.7171  0.4864 -2.6248
 1689TIP3    H226559   4.836   3.787  16.473 -0.3148 -2.3389  1.7224
 1690TIP3   OH226560   6.298   1.468  13.648 -0.0980 -0.0990  0.7256
 1690TIP3    H126561   6.315   1.381  13.685  1.4280 -0.2655 -0.2801
 1690TIP3    H226562   6.352   1.527  13.700  1.6171 -0.2581 -0.8131
 1691TIP3   OH226563   6.719   0.185  15.237  0.0536  0.3497  0.1556
 1691TIP3    H126564   6.814   0.185  15.244  0.0588 -0.3009  0.1797
 1691TIP3    H226565   6.688   0.191  15.327  0.0762 -0.0274  0.1886
 1692TIP3   OH226566   4.472   6.131   5.086  0.4019  0.8048  0.4967
 1692TIP3    H126567   4.499   6.204   5.140  1.7174  0.9147 -0.2794
 1692TIP3    H226568   4.506   6.152   4.999  0.4416 -0.5257  0.1812
 1693TIP3   OH226569   6.665   2.074   5.130 -0.6477 -0.1853 -0.0874
 1693TIP3    H126570   6.668   2.096   5.037 -2.1050 -0.4195 -0.1928
 1693TIP3    H226571   6.576   2.042   5.145 -0.2515 -0.6913  1.2670
 1694TIP3   OH226572   1.995   5.644   2.540 -0.2165 -0.5614 -0.4633
 1694TIP3    H126573   2.051   5.567   2.541 -0.7548 -0.9766 -1.3510
 1694TIP3    H226574   1.924   5.624   2.600  0.2105 -0.3176  0.1273
 1695TIP3   OH226575   3.360   3.136   0.520  0.4163 -0.1307 -0.1975
 1695TIP3    H126576   3.298   3.112   0.451  0.5951  0.2055 -0.4783
 1695TIP3    H226577   3.311   3.194   0.578 -0.0521 -1.2663  0.5472
 1696TIP3   OH226578   0.411   4.807   4.236 -0.0891 -0.5201 -0.2856
 1696TIP3    H126579   0.480   4.743   4.252  1.2813  0.7560 -1.0486
 1696TIP3    H226580   0.412   4.820   4.141 -0.7148  0.2374 -0.1936
 1697TIP3   OH226581   1.482   0.490  15.252  0.1200  0.2541  0.5230
 1697TIP3    H126582   1.460   0.399  15.231 -1.1893  0.6248  0.2106
 1697TIP3    H226583   1.441   0.541  15.182  1.9351  1.0099 -0.0223
 1698TIP3   OH226584   2.861   5.974   6.163  0.1062 -0.2073  0.1715
 1698TIP3    H126585   2.810   5.893   6.165  1.1802 -0.8709  3.5886
 1698TIP3    H226586   2.796   6.043   6.155 -0.8720 -1.3325 -1.9850
 1699TIP3   OH226587   0.571   2.238   1.949  0.4400  0.2031 -0.1517
 1699TIP3    H126588   0.561   2.289   2.029 -0.8648 -0.8526  0.3766
 1699TIP3    H226589   0.602   2.152   1.979 -0.8039 -0.4469 -0.6909
 1700TIP3   OH226590   5.976   4.810   2.147  0.5083 -0.0382 -0.5755
 1700TIP3    H126591   5.916   4.783   2.077  0.4486 -0.2430 -0.4449
 1700TIP3    H226592   6.020   4.887   2.112 -1.2607  1.3055  0.0973
 1701TIP3   OH226593   5.130   4.407   5.196 -0.2770 -0.4876  0.3730
 1701TIP3    H126594   5.095   4.445   5.116 -0.1848  1.1007  1.0846
 1701TIP3    H226595   5.135   4.313   5.177  0.4330 -0.0537 -1.7505
 1702TIP3   OH226596   6.205   0.455   0.395 -0.4465 -0.3520  0.1115
 1702TIP3    H126597   6.228   0.419   0.310 -0.3397 -0.3449  0.1372
 1702TIP3    H226598   6.286   0.447   0.447 -0.5816 -0.5838  0.2880
 1703TIP3   OH226599   6.182   5.837   3.378 -0.1348 -0.4957  0.3213
 1703TIP3    H126600   6.261   5.891   3.387 -0.6295  0.2526  0.1559
 1703TIP3    H226601   6.110   5.899   3.372 -0.7577 -1.1812  0.5645
 1704TIP3   OH226602   3.430   3.948  11.506  0.4943 -0.6314  0.6360
 1704TIP3    H126603   3.361   3.941  11.440  1.4061  0.1909 -0.4264
 1704TIP3    H226604   3.409   3.881  11.570 -1.7268  0.1251  0.7306
 1705TIP3   OH226605   3.570   2.101   1.973 -0.3458 -0.1161 -0.2229
 1705TIP3    H126606   3.653   2.095   2.020 -0.0290  1.5525 -0.5440
 1705TIP3    H226607   3.585   2.055   1.890  0.4674  0.7355 -0.5571
 1706TIP3   OH226608   2.658   0.692   2.914  0.0052 -0.1094 -0.3380
 1706TIP3    H126609   2.684   0.614   2.866  0.1417 -0.6630  0.6095
 1706TIP3    H226610   2.715   0.693   2.991  2.0279  2.5345 -1.7761
 1707TIP3   OH226611   1.583   2.148  11.785  0.1356  0.6512 -0.9480
 1707TIP3    H126612   1.601   2.239  11.762 -1.0888  1.3264  0.5879
 1707TIP3    H226613   1.668   2.105  11.785  0.7901  1.9374 -1.1513
 1708TIP3   OH226614   1.907   3.425  14.971  0.4209  0.0807 -0.2854
 1708TIP3    H126615   1.861   3.417  15.054  3.8827 -2.2004  1.5154
 1708TIP3    H226616   1.879   3.348  14.920  2.4626 -1.6059  1.0202
 1709TIP3   OH226617   6.434   4.177  13.803 -0.5465  0.1225  0.6216
 1709TIP3    H126618   6.353   4.143  13.840 -0.5366  1.0736  1.5424
 1709TIP3    H226619   6.406   4.230  13.728 -0.5601 -1.8734 -0.7958
 1710TIP3   OH226620   0.529   2.230   5.924 -0.0634 -1.0581 -0.7368
 1710TIP3    H126621   0.543   2.242   6.017 -0.8082  0.8752 -0.8461
 1710TIP3    H226622   0.459   2.165   5.918 -0.8955 -0.2645  0.1035
 1711TIP3   OH226623   0.124   2.828   3.531  0.1529  0.1628 -0.5734
 1711TIP3    H126624   0.099   2.807   3.441 -0.6799  1.5414 -0.6685
 1711TIP3    H226625   0.180   2.905   3.523 -2.4402  2.1819  0.3203
 1712TIP3   OH226626   6.576   1.711   4.982  0.5655 -0.5325  0.0382
 1712TIP3    H126627   6.659   1.667   4.998  0.2272 -0.7628  1.2092
 1712TIP3    H226628   6.531   1.655   4.918  1.6085 -0.0150 -1.1713
 1713TIP3   OH226629   4.564   4.096  12.158 -0.7032 -0.0918  0.5056
 1713TIP3    H126630   4.557   4.042  12.080 -0.4475 -0.9584  1.0800
 1713TIP3    H226631   4.567   4.034  12.231  0.4290  0.6495  1.1145
 1714TIP3   OH226632   2.698   2.997  12.196 -0.3495 -0.2058  0.0484
 1714TIP3    H126633   2.749   2.988  12.116  1.5215 -1.6977  1.3674
 1714TIP3    H226634   2.679   3.090  12.202  1.3519  0.2316 -1.0123
 1715TIP3   OH226635   2.613   6.363   3.850 -0.2600  0.9000  0.5505
 1715TIP3    H126636   2.534   6.404   3.884 -0.6272  1.8630 -1.4069
 1715TIP3    H226637   2.684   6.418   3.883 -0.5664  1.4177  0.3503
 1716TIP3   OH226638   2.732   0.822  17.217 -0.0638 -0.1283 -0.2497
 1716TIP3    H126639   2.651   0.871  17.227 -0.6119 -0.7128 -1.6690
 1716TIP3    H226640   2.771   0.856  17.136  1.3599  0.4895  0.6673
 1717TIP3   OH226641   4.514   3.127   0.670 -0.2639 -0.4828  0.3464
 1717TIP3    H126642   4.598   3.173   0.670  0.0951 -1.1459 -0.3565
 1717TIP3    H226643   4.497   3.107   0.578 -2.3445  1.7422  0.1948
 1718TIP3   OH226644   6.603   0.184   1.747  0.2069  0.9363  0.0395
 1718TIP3    H126645   6.581   0.172   1.839 -0.9698  0.3452 -0.3065
 1718TIP3    H226646   6.521   0.209   1.705  0.3601 -0.4472 -1.1360
 1719TIP3   OH226647   2.694   3.032   4.580  0.5742  0.7503 -0.1310
 1719TIP3    H126648   2.762   3.027   4.513 -0.4717  0.0757 -1.1418
 1719TIP3    H226649   2.735   2.996   4.659  0.7204 -1.6978 -1.2773
 1720TIP3   OH226650   0.485   2.813   6.224 -0.2620 -0.2229 -0.3685
 1720TIP3    H126651   0.490   2.889   6.282 -0.0050 -1.0235  0.6797
 1720TIP3    H226652   0.437   2.844   6.147 -0.1335  1.0028  0.0366
 1721TIP3   OH226653   0.723   5.269   0.211  0.0334  0.0936 -0.2028
 1721TIP3    H126654   0.785   5.309   0.151  0.8424 -0.5421  0.1909
 1721TIP3    H226655   0.763   5.281   0.298  0.6110 -2.0670 -0.1309
 1722TIP3   OH226656   5.640   4.793   0.609  0.0809 -0.3046  0.5123
 1722TIP3    H126657   5.693   4.839   0.674 -0.3378  1.0764 -0.1071
 1722TIP3    H226658   5.587   4.862   0.569  0.3616 -1.1436 -1.3115
 1723TIP3   OH226659   5.442   5.055   4.287 -0.2205 -0.3115 -0.2741
 1723TIP3    H126660   5.406   4.970   4.313  1.0094 -0.8798 -0.4143
 1723TIP3    H226661   5.510   5.073   4.352 -0.5240  0.6063 -0.2014
 1724TIP3   OH226662   2.994   0.164   1.535 -0.7826 -0.1045  0.1895
 1724TIP3    H126663   3.083   0.150   1.569 -1.2985 -0.4192  1.4207
 1724TIP3    H226664   2.952   0.220   1.600 -1.8412 -0.8565  0.1640
 1725TIP3   OH226665   1.117   4.456   6.923  0.3374 -0.4993  0.2993
 1725TIP3    H126666   1.022   4.467   6.925  0.3402 -0.4974  0.3954
 1725TIP3    H226667   1.143   4.495   6.840  0.1562 -1.2373 -0.1113
 1726TIP3   OH226668   4.177   0.047  11.093  0.6750 -0.0155 -0.0028
 1726TIP3    H126669   4.248   0.102  11.061  0.1783  0.4369 -0.3270
 1726TIP3    H226670   4.210   0.010  11.175  1.8250 -0.9162 -0.8683
 1727TIP3   OH226671   6.364   3.629  15.981 -0.5043 -0.0291  0.0580
 1727TIP3    H126672   6.275   3.651  16.009  0.0424  1.1480  0.9189
 1727TIP3    H226673   6.369   3.662  15.891 -1.3912 -1.3849 -0.5047
 1728TIP3   OH226674   6.053   3.536   3.950 -0.0529 -0.5299  0.2794
 1728TIP3    H126675   5.984   3.516   3.887 -1.3603 -0.0977  1.5778
 1728TIP3    H226676   6.023   3.498   4.032  1.5025 -0.8173  0.7311
 1729TIP3   OH226677   1.714   1.747   0.243 -0.2357  0.3904  0.0666
 1729TIP3    H126678   1.670   1.673   0.201  0.3513 -0.3449  0.7404
 1729TIP3    H226679   1.730   1.808   0.171  0.1156 -0.5404 -0.6593
 1730TIP3   OH226680   6.204   2.633   5.774  1.0084  0.0833  0.0660
 1730TIP3    H126681   6.224   2.643   5.681 -1.4863  1.1761 -0.3839
 1730TIP3    H226682   6.229   2.716   5.813 -1.9949  1.2676 -0.4138
 1731TIP3   OH226683   1.566   0.280   3.753  0.2632  0.2874 -0.2931
 1731TIP3    H126684   1.635   0.263   3.817  1.0259  0.6420 -1.0313
 1731TIP3    H226685   1.535   0.192   3.729  1.3372  0.0768 -0.9357
 1732TIP3   OH226686   0.948   5.222  13.587 -0.3903 -0.3445  0.1165
 1732TIP3    H126687   0.854   5.225  13.605 -0.8068 -1.3314 -1.7690
 1732TIP3    H226688   0.976   5.139  13.624 -0.3373 -0.2210  0.3505
 1733TIP3   OH226689   0.625   4.888  16.457  0.4267 -0.5068 -0.0926
 1733TIP3    H126690   0.629   4.979  16.487  0.3307 -0.3332 -0.5871
 1733TIP3    H226691   0.565   4.845  16.518 -0.7686  0.1400 -0.7814
 1734TIP3   OH226692   3.633   0.718   0.711 -0.0343  0.1680 -0.0759
 1734TIP3    H126693   3.727   0.705   0.698 -0.0081 -0.8627  0.9472
 1734TIP3    H226694   3.621   0.813   0.713  0.8276  0.3028 -1.2411
 1735TIP3   OH226695   3.605   2.066  14.892 -0.4011  0.1394  0.5280
 1735TIP3    H126696   3.666   1.992  14.884 -1.0351 -0.3450  0.1879
 1735TIP3    H226697   3.523   2.026  14.920  0.0548  1.0529  3.3134
 1736TIP3   OH226698   3.159   5.646  15.851 -0.1735 -0.1571 -0.9200
 1736TIP3    H126699   3.137   5.606  15.936  2.3242  1.7352  0.7031
 1736TIP3    H226700   3.132   5.737  15.861  1.9591  0.5557 -1.3786
 1737TIP3   OH226701   0.178   5.828  14.987  0.2946  0.0405 -0.4774
 1737TIP3    H126702   0.209   5.738  14.982  0.4052 -0.1118  2.0354
 1737TIP3    H226703   0.253   5.880  14.958  0.6353 -0.6418 -0.8280
 1738TIP3   OH226704   6.594   3.581  17.183  0.2160  0.4522 -0.4740
 1738TIP3    H126705   6.573   3.596  17.091  1.9205 -0.7499 -1.0786
 1738TIP3    H226706   6.653   3.506  17.183  0.1708  0.3753  1.6114
 1739TIP3   OH226707   4.771   5.900   1.750 -0.4210  0.1483 -0.7818
 1739TIP3    H126708   4.803   5.814   1.720  1.4777  1.1028 -1.5858
 1739TIP3    H226709   4.679   5.901   1.726 -0.5850 -1.8546 -0.3498
 1740TIP3   OH226710   6.247   3.639   0.717 -0.3245  0.0521  0.1879
 1740TIP3    H126711   6.167   3.681   0.685  0.3316  1.1238 -0.0599
 1740TIP3    H226712   6.313   3.660   0.652  0.0059 -1.4507  0.0167
 1741TIP3   OH226713   0.161   3.694  13.028  0.3796 -0.2268 -0.4276
 1741TIP3    H126714   0.222   3.647  12.971 -0.4720  0.7204 -2.1817
 1741TIP3    H226715   0.092   3.723  12.968 -0.6191  0.6617  1.1480
 1742TIP3   OH226716   1.188   1.724   4.045 -0.1683 -0.1297  0.0186
 1742TIP3    H126717   1.207   1.678   3.963 -0.8101 -1.8489  0.8070
 1742TIP3    H226718   1.110   1.776   4.026 -0.4240 -0.6651 -0.3960
 1743TIP3   OH226719   5.691   4.526  13.877 -0.8472 -0.0657  0.0238
 1743TIP3    H126720   5.606   4.555  13.909 -1.9933 -0.8434 -2.1946
 1743TIP3    H226721   5.682   4.527  13.782  1.5178 -0.5218 -0.2346
 1744TIP3   OH226722   2.935   2.100  11.137  0.0360  0.5004  0.1240
 1744TIP3    H126723   3.006   2.148  11.179  1.6382 -1.4802 -0.2145
 1744TIP3    H226724   2.978   2.049  11.068 -1.8129 -0.1948 -0.5546
 1745TIP3   OH226725   0.239   4.293   1.403 -0.0062  0.1369 -0.5897
 1745TIP3    H126726   0.248   4.225   1.336 -2.5311 -0.1014 -0.7386
 1745TIP3    H226727   0.244   4.375   1.354  0.5142 -0.0004 -0.7624
 1746TIP3   OH226728   6.707   5.465  11.633  0.3433  0.0021  0.2048
 1746TIP3    H126729   6.709   5.369  11.640  0.1216  0.1073  1.9275
 1746TIP3    H226730   6.718   5.482  11.539 -1.3434 -1.7653 -0.3551
 1747TIP3   OH226731   6.801   5.816   5.904  0.5301  0.7608 -0.2717
 1747TIP3    H126732   6.774   5.814   5.996 -2.5622  0.6059 -1.1463
 1747TIP3    H226733   6.845   5.900   5.895  1.4255  0.5149  1.4881
 1748TIP3   OH226734   5.666   3.995  13.762  0.2430  0.0622  0.3829
 1748TIP3    H126735   5.683   4.075  13.812 -1.1905 -1.1338  2.8687
 1748TIP3    H226736   5.641   4.026  13.675  2.2803  2.2168  0.5249
 1749TIP3   OH226737   0.887   0.320   4.085  0.2396 -0.2093  0.3968
 1749TIP3    H126738   0.852   0.345   3.999  0.1258  0.2912  0.5873
 1749TIP3    H226739   0.916   0.402   4.124 -0.3323 -0.3437  1.1194
 1750TIP3   OH226740   4.306   1.988   5.633  0.1387  0.0088  0.2178
 1750TIP3    H126741   4.321   1.912   5.577  0.0177 -0.5846  0.9836
 1750TIP3    H226742   4.235   2.035   5.591  0.7406  0.1300 -0.6934
 1751TIP3   OH226743   1.170   3.588  13.468 -0.0552  0.0684  0.4418
 1751TIP3    H126744   1.106   3.522  13.494 -1.8010  1.8174  0.6906
 1751TIP3    H226745   1.128   3.636  13.397  0.7811  1.5110  0.8948
 1752TIP3   OH226746   4.346   4.166  11.836  0.4408  0.2779 -0.0513
 1752TIP3    H126747   4.350   4.145  11.743  1.1415 -1.6852  0.3880
 1752TIP3    H226748   4.303   4.091  11.876  0.1693  1.0874  1.2198
 1753TIP3   OH226749   2.584   1.717   2.487 -0.5516  0.8621  0.3009
 1753TIP3    H126750   2.676   1.734   2.507 -0.3018  0.3739 -0.4065
 1753TIP3    H226751   2.568   1.629   2.520 -0.2568  0.2244 -1.1846
 1754TIP3   OH226752   2.136   2.863  11.431  0.2262  0.0039  0.2518
 1754TIP3    H126753   2.054   2.844  11.385  0.4359  1.5638 -0.7866
 1754TIP3    H226754   2.124   2.952  11.465  1.0948 -0.1569  1.0040
 1755TIP3   OH226755   3.852   0.566  11.585 -0.2433  0.2501  1.4074
 1755TIP3    H126756   3.892   0.486  11.618  0.7143  0.7293  1.4161
 1755TIP3    H226757   3.762   0.541  11.562  0.4245 -1.1203  0.2636
 1756TIP3   OH226758   1.344   0.107  13.440  0.8264  0.1097  0.7203
 1756TIP3    H126759   1.307   0.138  13.523  3.0113  0.6586  1.5110
 1756TIP3    H226760   1.372   0.018  13.459  1.5978  0.3400  0.6562
 1757TIP3   OH226761   1.129   0.944   2.655  0.7802  0.0311 -0.2563
 1757TIP3    H126762   1.182   1.001   2.710  1.0511  0.0469 -0.5363
 1757TIP3    H226763   1.046   0.990   2.646 -0.4853 -1.4425  2.8524
 1758TIP3   OH226764   4.372   5.627   1.327 -0.0668 -0.2170 -0.6760
 1758TIP3    H126765   4.357   5.547   1.376  1.7784 -0.9883 -1.3129
 1758TIP3    H226766   4.358   5.602   1.235 -1.0293  0.5845 -0.7539
 1759TIP3   OH226767   2.951   5.579  11.015 -0.2619  0.6247 -0.9672
 1759TIP3    H126768   2.979   5.663  10.978  2.0528  0.7171  0.8941
 1759TIP3    H226769   3.030   5.544  11.056 -1.4980 -1.9349 -0.7077
 1760TIP3   OH226770   6.651   3.475  12.353 -0.2873 -0.2797 -0.2499
 1760TIP3    H126771   6.649   3.397  12.409  0.9624 -3.2753 -4.1454
 1760TIP3    H226772   6.572   3.468  12.300 -0.2226  1.2044 -0.5513
 1761TIP3   OH226773   6.329   4.627   2.604  0.1163 -0.3670  0.2505
 1761TIP3    H126774   6.273   4.556   2.636  0.7262 -0.9084  0.1315
 1761TIP3    H226775   6.342   4.607   2.511 -1.4577  1.0712 -0.2934
 1762TIP3   OH226776   0.891   6.479   0.773 -0.1989 -0.6857 -0.1474
 1762TIP3    H126777   0.812   6.533   0.772  1.7448  2.2569 -1.4179
 1762TIP3    H226778   0.940   6.510   0.849  0.5497 -1.2578 -0.3879
 1763TIP3   OH226779   2.355   4.935   3.295  0.1651 -0.0696  0.1993
 1763TIP3    H126780   2.431   4.904   3.344  0.7750 -0.1139 -0.7753
 1763TIP3    H226781   2.380   5.021   3.262 -1.4947  1.4975  2.8334
 1764TIP3   OH226782   5.612   5.966  11.192 -0.3408  0.0850  0.1567
 1764TIP3    H126783   5.624   5.877  11.223 -0.8963 -0.1517 -0.2924
 1764TIP3    H226784   5.548   6.004  11.253  0.0343  0.2388  0.4578
 1765TIP3   OH226785   6.449   0.996  14.332 -0.1670  0.0240  0.7009
 1765TIP3    H126786   6.539   0.990  14.362  0.0809 -0.9010 -0.1752
 1765TIP3    H226787   6.425   0.905  14.311 -0.2370  0.6152 -2.0561
 1766TIP3   OH226788   3.986   4.872   5.200  0.1355  0.0413 -0.1237
 1766TIP3    H126789   3.948   4.804   5.255 -0.2317  0.3802  0.0346
 1766TIP3    H226790   3.954   4.852   5.112  0.8620 -0.6017 -0.2533
 1767TIP3   OH226791   6.750   3.437  12.726  0.0415 -0.5872 -0.0659
 1767TIP3    H126792   6.741   3.433  12.822  1.1083  0.3125  0.0896
 1767TIP3    H226793   6.844   3.434  12.711 -0.1006 -0.1058 -1.0559
 1768TIP3   OH226794   0.112   4.213  15.395 -0.5192  0.1519  0.2088
 1768TIP3    H126795   0.016   4.216  15.391 -0.4754  1.2831 -0.2613
 1768TIP3    H226796   0.138   4.304  15.407  0.4565 -0.3065  1.6714
 1769TIP3   OH226797   5.727   1.605  15.276  0.3839 -0.0867  0.1355
 1769TIP3    H126798   5.733   1.538  15.208 -0.0125 -2.0720  1.9979
 1769TIP3    H226799   5.713   1.555  15.357  3.2589  2.0830  2.0290
 1770TIP3   OH226800   3.132   0.641  15.781 -0.1016  0.2668  0.5337
 1770TIP3    H126801   3.212   0.649  15.729 -0.6895 -0.6686 -0.5245
 1770TIP3    H226802   3.138   0.554  15.820 -1.9900 -1.0234 -1.9236
 1771TIP3   OH226803   3.044   3.383   4.736  0.1159  0.7381  0.1969
 1771TIP3    H126804   3.139   3.387   4.744 -0.1041  2.1347  2.6342
 1771TIP3    H226805   3.020   3.301   4.780  0.1964  0.3438 -0.4922
 1772TIP3   OH226806   2.919   5.593   2.733 -0.3615 -0.2383  0.4012
 1772TIP3    H126807   3.004   5.612   2.692 -0.1772  0.0259  0.8941
 1772TIP3    H226808   2.919   5.647   2.812 -0.8813 -0.4416  0.5382
 1773TIP3   OH226809   3.820   1.278  15.245  0.4098 -0.0157  0.3406
 1773TIP3    H126810   3.830   1.196  15.293 -0.1425  0.1391  0.7226
 1773TIP3    H226811   3.847   1.257  15.156 -0.3189 -0.7592  0.2932
 1774TIP3   OH226812   5.103   0.975   0.237 -0.0380  0.6800 -0.6182
 1774TIP3    H126813   5.024   0.955   0.288  0.5007  0.8447  0.2749
 1774TIP3    H226814   5.069   1.008   0.154 -0.9142  1.4677  0.0438
 1775TIP3   OH226815   2.148   2.577   4.923  0.0206  0.1407  0.3848
 1775TIP3    H126816   2.230   2.530   4.940  0.3288  1.0984  1.6122
 1775TIP3    H226817   2.105   2.579   5.008 -2.8186 -3.2001 -0.8618
 1776TIP3   OH226818   2.796   1.084  13.298  0.6832  0.0078  0.6696
 1776TIP3    H126819   2.809   1.179  13.294  1.9644 -0.0695  2.3091
 1776TIP3    H226820   2.728   1.072  13.364  0.6229 -0.2241  0.5650
 1777TIP3   OH226821   6.377   5.989  11.211  0.1722  0.1047 -0.7304
 1777TIP3    H126822   6.363   5.927  11.283 -1.6776 -0.4229 -1.5169
 1777TIP3    H226823   6.423   5.939  11.144 -0.4404 -0.1446 -0.9667
 1778TIP3   OH226824   2.632   6.474   1.193  0.4211 -0.3063  0.2788
 1778TIP3    H126825   2.678   6.491   1.111  0.3633 -0.8252  0.1364
 1778TIP3    H226826   2.540   6.465   1.168  0.0641  2.0003  0.7352
 1779TIP3   OH226827   0.409   6.201  12.533 -0.2537 -0.0882 -0.7518
 1779TIP3    H126828   0.416   6.284  12.486 -1.2644 -0.1499 -1.0182
 1779TIP3    H226829   0.343   6.152  12.485 -0.2002 -0.7517 -0.1522
 1780TIP3   OH226830   6.131   3.538  14.128  0.4460 -0.3431  0.5476
 1780TIP3    H126831   6.125   3.574  14.040 -1.6779 -1.7700  0.0697
 1780TIP3    H226832   6.224   3.522  14.142  0.6525 -1.8316 -2.1691
 1781TIP3   OH226833   0.913   4.084   1.612  0.1913 -0.5744  0.3555
 1781TIP3    H126834   0.860   4.105   1.689 -0.6988  1.6513 -0.8486
 1781TIP3    H226835   0.995   4.051   1.649  0.0543  1.1264  2.2810
 1782TIP3   OH226836   1.218   5.923  13.446 -0.3224  0.3153 -0.2687
 1782TIP3    H126837   1.154   5.993  13.460 -0.2792  0.4361 -0.6634
 1782TIP3    H226838   1.167   5.849  13.413 -0.4220  0.0353  0.5222
 1783TIP3   OH226839   5.340   1.923  13.506  0.1971 -0.7130  0.5846
 1783TIP3    H126840   5.332   1.887  13.594 -0.1611 -1.5248  0.2267
 1783TIP3    H226841   5.364   2.015  13.519 -2.4472 -0.1311  1.5662
 1784TIP3   OH226842   5.166   5.936   1.856  0.6746  0.4885  0.5001
 1784TIP3    H126843   5.143   5.843   1.851 -0.2485  0.7922 -1.5173
 1784TIP3    H226844   5.095   5.976   1.906  0.9802  0.1312  1.2170
 1785TIP3   OH226845   4.047   4.071  11.501  0.2205  0.1793  0.0726
 1785TIP3    H126846   3.985   4.068  11.575  0.4648  1.9963  0.3639
 1785TIP3    H226847   4.011   4.137  11.443  2.1296  1.5935  0.4703
 1786TIP3   OH226848   2.763   3.524   1.660  0.7465  0.1027  0.3149
 1786TIP3    H126849   2.806   3.502   1.742 -1.2852 -0.9208  1.1605
 1786TIP3    H226850   2.725   3.610   1.675  2.0206  0.7553 -0.2274
 1787TIP3   OH226851   3.401   0.264  15.053 -0.0807  0.3225  0.0591
 1787TIP3    H126852   3.437   0.326  15.117 -0.0034  0.6234 -0.2696
 1787TIP3    H226853   3.467   0.195  15.047  0.0101  0.4006  0.1466
 1788TIP3   OH226854   6.487   1.245   6.159 -0.2735 -0.7446 -0.3269
 1788TIP3    H126855   6.402   1.256   6.200 -0.6658 -1.0301 -1.0558
 1788TIP3    H226856   6.488   1.307   6.087  0.4136 -0.2402  0.1108
 1789TIP3   OH226857   5.986   5.773   4.641  1.3078  0.1168  0.5535
 1789TIP3    H126858   6.024   5.693   4.605  1.7046  1.5325 -2.3707
 1789TIP3    H226859   6.062   5.829   4.659  0.9221  0.9288 -0.2624
 1790TIP3   OH226860   4.902   6.452  17.135  0.1044  0.0758 -0.0774
 1790TIP3    H126861   4.809   6.431  17.139  0.6086 -2.1426  0.6197
 1790TIP3    H226862   4.905   6.548  17.133 -2.2476  0.1365 -2.1624
 1791TIP3   OH226863   0.875   2.513  16.655 -0.0425  0.4759 -0.3246
 1791TIP3    H126864   0.781   2.505  16.668 -0.0491 -0.4278 -0.8634
 1791TIP3    H226865   0.894   2.606  16.668 -1.1847  0.8703 -1.4661
 1792TIP3   OH226866   5.629   5.460   3.010 -0.0653  0.3184  0.1743
 1792TIP3    H126867   5.585   5.480   3.093  0.3354 -2.1953  1.0275
 1792TIP3    H226868   5.721   5.476   3.028 -0.1048  0.8966 -0.1414
 1793TIP3   OH226869   5.654   0.929  16.402  0.2647 -0.2213 -0.7009
 1793TIP3    H126870   5.673   0.930  16.308 -1.0437  1.4309 -0.9856
 1793TIP3    H226871   5.738   0.946  16.444  0.0886  4.2459 -1.8189
 1794TIP3   OH226872   3.139   3.693  11.808 -0.3465  0.0360  0.4358
 1794TIP3    H126873   3.166   3.671  11.718  2.3193 -3.3689  1.9289
 1794TIP3    H226874   3.044   3.698  11.804 -0.2609  0.2505 -2.6346
 1795TIP3   OH226875   1.409   5.224   2.389  0.3560 -0.5036 -0.4919
 1795TIP3    H126876   1.439   5.181   2.309  2.5589 -1.3240  0.7414
 1795TIP3    H226877   1.487   5.267   2.424 -1.0058  1.4194  0.2483
 1796TIP3   OH226878   4.301   2.559  13.733  0.1068  0.1752  0.6814
 1796TIP3    H126879   4.386   2.604  13.734 -0.5242  1.3642  2.4402
 1796TIP3    H226880   4.237   2.627  13.754 -1.3608 -0.6176 -1.0976
 1797TIP3   OH226881   1.719   2.004   6.254 -0.1109  0.3813  0.4004
 1797TIP3    H126882   1.634   1.974   6.286 -1.1696 -0.6218 -3.1066
 1797TIP3    H226883   1.731   1.958   6.171  3.1344  1.7231  0.0464
 1798TIP3   OH226884   2.808   4.736  13.986 -0.2166  0.3365 -0.4141
 1798TIP3    H126885   2.893   4.773  13.962  0.2454 -1.1310 -1.0571
 1798TIP3    H226886   2.828   4.668  14.051 -0.9116  0.0965 -0.4403
 1799TIP3   OH226887   6.086   5.984  11.594 -0.6085  0.0212 -0.1144
 1799TIP3    H126888   6.101   5.943  11.679  0.7039 -0.0290 -0.3596
 1799TIP3    H226889   6.045   5.915  11.541 -2.4841  0.3984  0.8009
 1800TIP3   OH226890   5.188   5.534  11.090  0.3314  0.4491 -0.0680
 1800TIP3    H126891   5.156   5.466  11.030  0.7384  0.3880 -0.2152
 1800TIP3    H226892   5.114   5.594  11.099 -0.6787 -0.9715  1.4848
 1801TIP3   OH226893   4.040   1.914  16.953  0.5669 -0.0138  0.5467
 1801TIP3    H126894   4.014   2.000  16.987  0.5400  0.5189 -0.7732
 1801TIP3    H226895   3.976   1.896  16.884 -1.0448 -2.3378  2.5923
 1802TIP3   OH226896   0.010   2.135  15.262 -0.3242  0.1365  0.0035
 1802TIP3    H126897  -0.048   2.124  15.187 -0.8572 -1.9155  0.6780
 1802TIP3    H226898   0.097   2.114  15.229 -0.7276 -1.9208  0.2273
 1803TIP3   OH226899   5.701   1.431   2.614  0.0355  0.2764  0.3655
 1803TIP3    H126900   5.653   1.481   2.680  0.8031  1.6175 -0.0811
 1803TIP3    H226901   5.656   1.450   2.532  0.0382 -0.1489  0.2636
 1804TIP3   OH226902   6.216   4.884   2.526 -0.1744  0.7943 -0.4893
 1804TIP3    H126903   6.138   4.895   2.580 -1.1606 -0.4376 -1.6551
 1804TIP3    H226904   6.243   4.793   2.539 -0.4087  0.4835 -2.0381
 1805TIP3   OH226905   3.561   3.716   1.957 -0.0553 -0.1883 -0.0430
 1805TIP3    H126906   3.520   3.781   1.899  0.6967  2.6299  2.4580
 1805TIP3    H226907   3.489   3.681   2.009 -0.4345 -1.2094 -1.2515
 1806TIP3   OH226908   4.232   2.339   4.000 -0.1702 -0.4760 -0.6760
 1806TIP3    H126909   4.262   2.267   3.945  0.6118  1.0211 -2.2401
 1806TIP3    H226910   4.244   2.417   3.946 -1.6479  0.7593  0.7420
 1807TIP3   OH226911   2.937   1.298  14.353 -0.3825  0.6500  0.4386
 1807TIP3    H126912   3.028   1.311  14.379 -0.3269  0.0667  0.5447
 1807TIP3    H226913   2.932   1.333  14.264 -0.0324  0.5936  0.3956
 1808TIP3   OH226914   3.520   1.700   1.872 -0.3605  0.3580  0.6683
 1808TIP3    H126915   3.609   1.732   1.859 -0.4117  0.5613  0.8277
 1808TIP3    H226916   3.519   1.615   1.828  0.0335  0.1608  1.0382
 1809TIP3   OH226917   5.056   6.536   5.792  0.0411  0.2911  0.5042
 1809TIP3    H126918   5.068   6.592   5.716 -0.7447  0.3623  0.4319
 1809TIP3    H226919   5.032   6.596   5.863 -0.1747  0.1154  0.5793
 1810TIP3   OH226920   2.275   4.365   1.010  0.5960 -0.2926 -0.0641
 1810TIP3    H126921   2.369   4.354   1.023  0.3441  0.1866  2.4360
 1810TIP3    H226922   2.265   4.456   0.984  1.0319 -1.0367 -3.0192
 1811TIP3   OH226923   2.814   0.362   5.255 -0.0749  0.1578 -0.0845
 1811TIP3    H126924   2.900   0.386   5.222  0.1001  0.4017  0.5411
 1811TIP3    H226925   2.831   0.324   5.341 -0.5621 -0.0954 -0.0967
 1812TIP3   OH226926   0.019   2.307   5.139 -0.5188 -0.6715  0.4527
 1812TIP3    H126927   0.022   2.289   5.233 -3.0264  0.9411  0.9019
 1812TIP3    H226928  -0.042   2.242   5.104  0.0798 -0.9921 -0.0104
 1813TIP3   OH226929   2.214   5.601  13.548  0.3965 -0.0097 -0.0048
 1813TIP3    H126930   2.198   5.591  13.454  1.0320  0.5499 -0.1782
 1813TIP3    H226931   2.131   5.633  13.583  1.0859  2.9874 -0.9088
 1814TIP3   OH226932   1.109   6.033   0.802 -0.2969  1.1899 -0.2350
 1814TIP3    H126933   1.117   5.985   0.720 -0.4965  1.6825 -0.5392
 1814TIP3    H226934   1.156   6.115   0.787  0.8763  0.6912  0.6021
 1815TIP3   OH226935   6.131   2.942   1.711  0.0812  0.1639 -0.3670
 1815TIP3    H126936   6.087   3.017   1.751 -1.3266 -0.3005 -1.0034
 1815TIP3    H226937   6.213   2.977   1.677  0.8298  0.7763  1.9902
 1816TIP3   OH226938   6.708   5.105   0.243 -0.1960 -0.1718  0.5495
 1816TIP3    H126939   6.677   5.190   0.212 -1.7059 -0.3947  1.4242
 1816TIP3    H226940   6.702   5.110   0.338 -0.3888 -1.3008  0.6017
 1817TIP3   OH226941   1.552   1.300  14.728  0.0796  1.0715 -0.0509
 1817TIP3    H126942   1.641   1.300  14.764 -0.3651 -1.3962  1.1392
 1817TIP3    H226943   1.563   1.321  14.635  1.9915 -0.0182 -0.0882
 1818TIP3   OH226944   2.019   4.728  17.100 -0.0473  0.0805  0.1767
 1818TIP3    H126945   2.058   4.773  17.175 -0.1425  0.2370  0.1342
 1818TIP3    H226946   1.932   4.703  17.130 -0.2478  0.5274 -0.0250
 1819TIP3   OH226947   3.242   2.178   2.861 -0.1540  0.3317 -0.6077
 1819TIP3    H126948   3.247   2.094   2.815  0.1365 -0.5167  0.9477
 1819TIP3    H226949   3.318   2.179   2.919 -0.8305  1.1203  0.2921
 1820TIP3   OH226950   5.518   4.134  11.344  0.3442 -0.6218 -0.0415
 1820TIP3    H126951   5.506   4.057  11.289  0.0468  0.3715 -1.3765
 1820TIP3    H226952   5.610   4.157  11.335  0.4204 -0.7704  0.3151
 1821TIP3   OH226953   4.718   2.212   0.587  0.0489  0.0061  0.2513
 1821TIP3    H126954   4.785   2.205   0.520  0.5386  0.3488  0.7071
 1821TIP3    H226955   4.766   2.228   0.668 -0.6358  1.1010  0.4448
 1822TIP3   OH226956   4.095   0.050   4.629 -0.0013 -0.8816 -0.1274
 1822TIP3    H126957   4.117   0.101   4.551 -1.5270 -1.1960 -0.7719
 1822TIP3    H226958   4.100   0.114   4.701  1.6439 -0.6459 -0.4318
 1823TIP3   OH226959   3.902   0.096   2.803  0.1526 -0.2636  0.6967
 1823TIP3    H126960   3.829   0.035   2.802 -0.9057  0.9803  1.0346
 1823TIP3    H226961   3.887   0.151   2.879 -1.0436  2.9448 -1.7386
 1824TIP3   OH226962   3.232   2.742   3.848  0.0597  0.2295  0.1425
 1824TIP3    H126963   3.143   2.767   3.870 -0.8046 -2.5876 -0.0189
 1824TIP3    H226964   3.262   2.690   3.923  0.9307 -0.3430 -0.5942
 1825TIP3   OH226965   2.964   0.142   5.721  0.4296  0.5768  0.1660
 1825TIP3    H126966   2.883   0.094   5.740  0.1991  0.9945  0.2628
 1825TIP3    H226967   2.935   0.233   5.712  0.8216  0.6573 -0.2825
 1826TIP3   OH226968   5.440   6.401  10.538 -0.4300  0.4364 -0.2089
 1826TIP3    H126969   5.446   6.319  10.587  0.0319  1.1977  1.0142
 1826TIP3    H226970   5.530   6.431  10.531 -0.5407  0.5726 -1.1351
 1827TIP3   OH226971   1.012   5.516  16.000 -0.0682  0.0045 -0.1155
 1827TIP3    H126972   0.946   5.472  15.946  0.5303 -1.2363  0.1445
 1827TIP3    H226973   1.019   5.604  15.962 -0.8216 -0.3251 -1.0450
 1828TIP3   OH226974   2.999   1.176  16.277  0.0307 -0.1911  0.0360
 1828TIP3    H126975   3.007   1.083  16.254  0.5360  0.1013 -0.9661
 1828TIP3    H226976   2.971   1.218  16.196 -0.7449  0.4584  0.6318
 1829TIP3   OH226977   4.474   4.347  15.644  0.0768 -0.2047 -0.0633
 1829TIP3    H126978   4.413   4.342  15.570 -1.5873  0.4032  1.2298
 1829TIP3    H226979   4.549   4.394  15.609 -0.3960 -0.5008 -1.5558
 1830TIP3   OH226980   6.250   6.261  14.758  0.0744 -0.3261 -0.3031
 1830TIP3    H126981   6.293   6.328  14.705 -0.6401  0.4749  0.1032
 1830TIP3    H226982   6.321   6.221  14.809  0.0947  2.5464  2.0746
 1831TIP3   OH226983   2.928   4.089   0.379  0.4384  0.6513 -0.3863
 1831TIP3    H126984   2.848   4.037   0.366  0.8847 -0.0060 -0.5279
 1831TIP3    H226985   2.982   4.036   0.437  1.5538  0.2447 -1.7750
 1832TIP3   OH226986   3.894   3.562  12.831  0.4646 -0.4097  0.5123
 1832TIP3    H126987   3.960   3.624  12.862  1.6059 -1.7720  0.9109
 1832TIP3    H226988   3.812   3.593  12.869  0.6602  1.9461 -0.8944
 1833TIP3   OH226989   6.235   3.182  13.959  0.3466  0.0061  0.1841
 1833TIP3    H126990   6.165   3.131  14.000  0.2573 -1.6718 -1.9776
 1833TIP3    H226991   6.314   3.157  14.006  0.0253 -0.7593  0.3232
 1834TIP3   OH226992   2.933   3.099   3.134  0.1710  0.6590 -0.0431
 1834TIP3    H126993   3.016   3.140   3.108 -0.8923  2.5601 -0.5688
 1834TIP3    H226994   2.873   3.119   3.061 -0.0980 -2.8495 -0.8442
 1835TIP3   OH226995   2.783   5.566   4.886 -0.5288  0.3756 -0.5372
 1835TIP3    H126996   2.827   5.502   4.942 -2.0270  1.2663  1.7195
 1835TIP3    H226997   2.854   5.609   4.838  0.6111 -1.8604 -0.9226
 1836TIP3   OH226998   1.682   2.466   3.496 -0.4857 -0.0467 -0.7216
 1836TIP3    H126999   1.615   2.460   3.563 -0.3551  0.4382 -0.5448
 1836TIP3    H227000   1.764   2.451   3.543 -0.3220  1.0865 -0.6169
 1837TIP3   OH227001   3.669   6.648   6.332 -0.1557 -0.2605  0.2896
 1837TIP3    H127002   3.638   6.561   6.356  1.7673 -0.6473  1.5643
 1837TIP3    H227003   3.763   6.636   6.318 -0.1617  1.2841 -1.1822
 1838TIP3   OH227004   4.163   2.956   3.613 -0.0194 -0.4706 -0.1114
 1838TIP3    H127005   4.088   3.013   3.599  0.7893  1.1750  1.8992
 1838TIP3    H227006   4.236   3.016   3.630  1.0596 -2.0831  1.1579
 1839TIP3   OH227007   2.558   1.356  15.073 -0.4518 -0.5684 -0.6068
 1839TIP3    H127008   2.523   1.268  15.090  0.1597 -0.8076 -0.5639
 1839TIP3    H227009   2.485   1.415  15.090 -0.7518 -1.0444 -0.2359
 1840TIP3   OH227010   4.810   6.255   0.918 -0.5058  0.2000 -0.3388
 1840TIP3    H127011   4.838   6.325   0.976 -3.0812  1.3948 -0.4584
 1840TIP3    H227012   4.877   6.252   0.850  1.4483  0.1712  1.5363
 1841TIP3   OH227013   1.141   1.429  11.677  0.6498 -0.3116  0.0368
 1841TIP3    H127014   1.216   1.443  11.735  0.9088 -0.6815 -0.2016
 1841TIP3    H227015   1.073   1.395  11.734 -0.6149  3.5547  0.9820
 1842TIP3   OH227016   1.728   5.619  10.413  0.0625 -0.3873  0.3270
 1842TIP3    H127017   1.734   5.680  10.486 -1.6362 -1.5678  1.5008
 1842TIP3    H227018   1.815   5.619  10.374 -0.0181  3.0488  0.0498
 1843TIP3   OH227019   1.085   0.756   0.312 -0.5640  0.0023  0.1611
 1843TIP3    H127020   1.123   0.815   0.247  1.5760 -1.6493 -0.1646
 1843TIP3    H227021   1.124   0.783   0.395 -0.5701 -0.1386  0.2094
 1844TIP3   OH227022   2.666   4.388  14.568  0.1237 -0.4794  0.1492
 1844TIP3    H127023   2.692   4.373  14.477  2.0719 -0.9577  0.7671
 1844TIP3    H227024   2.726   4.334  14.619  0.1191  1.0615  1.8066
 1845TIP3   OH227025   4.594   4.761  10.489  0.4233 -0.1129  0.1592
 1845TIP3    H127026   4.631   4.808  10.563  1.7702 -1.1935  0.1934
 1845TIP3    H227027   4.601   4.821  10.415 -2.2633  1.5306  1.1833
 1846TIP3   OH227028   3.412   4.771   0.796 -0.3674 -0.6132  0.3487
 1846TIP3    H127029   3.346   4.703   0.801 -0.4201 -0.6662 -0.8886
 1846TIP3    H227030   3.375   4.845   0.844 -0.7148 -1.1322  0.8734
 1847TIP3   OH227031   2.185   0.659  13.572  0.1789 -0.4334 -0.3349
 1847TIP3    H127032   2.096   0.678  13.603 -0.1164  1.3809 -2.1888
 1847TIP3    H227033   2.171   0.613  13.489  0.9843 -0.8652 -0.2307
 1848TIP3   OH227034   5.141   4.993   5.178 -0.3400  0.1269 -0.2729
 1848TIP3    H127035   5.191   5.025   5.253 -0.3251 -0.7469  0.1013
 1848TIP3    H227036   5.207   4.973   5.111 -0.2547 -0.1984 -0.0942
 1849TIP3   OH227037   6.122   2.520   3.602 -0.7977  0.5548  0.0880
 1849TIP3    H127038   6.191   2.575   3.639 -1.4795  0.8002  0.9930
 1849TIP3    H227039   6.135   2.434   3.642 -2.8056  1.3323  2.5623
 1850TIP3   OH227040   4.427   3.675  11.249 -0.5163 -0.5802 -0.0232
 1850TIP3    H127041   4.515   3.673  11.212 -0.7876  0.4064 -0.7248
 1850TIP3    H227042   4.399   3.766  11.241 -0.6008 -0.3300  2.5920
 1851TIP3   OH227043   1.546   1.252   1.751 -0.6787  1.0545 -0.4215
 1851TIP3    H127044   1.585   1.176   1.708  1.4523  1.3534  0.9053
 1851TIP3    H227045   1.453   1.249   1.727 -0.3070 -1.0709 -1.6564
 1852TIP3   OH227046   1.176   2.867   0.918 -0.4361  0.1761 -0.0621
 1852TIP3    H127047   1.190   2.855   1.012 -2.5326 -1.9961  0.0503
 1852TIP3    H227048   1.190   2.780   0.881 -0.4300  0.8455 -1.6513
 1853TIP3   OH227049   5.378   0.936  11.983 -0.0692  0.2851  0.2367
 1853TIP3    H127050   5.412   0.847  11.967  0.0643  0.4033 -0.1529
 1853TIP3    H227051   5.336   0.931  12.068  0.0813 -0.1157  0.2887
 1854TIP3   OH227052   1.307   0.122  15.155  0.6021 -0.8049 -0.3474
 1854TIP3    H127053   1.289   0.158  15.242  0.1880 -1.0433 -0.3337
 1854TIP3    H227054   1.293   0.195  15.095  0.9833 -0.6139 -0.2055
 1855TIP3   OH227055   6.423   1.454  15.091 -0.3559 -0.6605  0.0756
 1855TIP3    H127056   6.502   1.445  15.145 -0.8441 -2.1784  0.5810
 1855TIP3    H227057   6.448   1.420  15.006 -0.0382  0.2650 -0.2050
 1856TIP3   OH227058   2.507   2.015   0.248 -0.2903  0.8388  0.1730
 1856TIP3    H127059   2.444   2.013   0.320  0.6532 -1.9061  1.0017
 1856TIP3    H227060   2.557   2.095   0.262 -0.2991  0.4912  2.4376
 1857TIP3   OH227061   4.517   4.084  12.720 -0.3824 -0.5121  0.6813
 1857TIP3    H127062   4.589   4.022  12.726  0.9719  0.9995  0.2339
 1857TIP3    H227063   4.545   4.160  12.770 -1.1803  0.5308 -0.4115
 1858TIP3   OH227064   4.070   0.489   3.083 -0.1957 -0.2238  0.2341
 1858TIP3    H127065   4.051   0.481   3.176 -1.8227 -0.2833 -0.0961
 1858TIP3    H227066   4.165   0.496   3.079  0.0072 -1.7451  1.7877
 1859TIP3   OH227067   1.635   2.352  12.115 -0.1796 -0.2447 -0.5494
 1859TIP3    H127068   1.558   2.391  12.073 -0.4121 -2.6841 -2.5589
 1859TIP3    H227069   1.707   2.371  12.055  0.1950 -0.6317 -0.2235
 1860TIP3   OH227070   6.336   6.088  14.064  0.3287 -0.2230 -0.2660
 1860TIP3    H127071   6.270   6.019  14.069 -0.1538  0.2801  0.3806
 1860TIP3    H227072   6.391   6.063  13.990 -1.1561 -0.1335 -1.4135
 1861TIP3   OH227073   6.349   3.835   4.094  0.1580 -0.4849  0.3335
 1861TIP3    H127074   6.293   3.806   4.023  1.3059  0.2198 -0.8943
 1861TIP3    H227075   6.437   3.833   4.057  0.5476  1.9131  1.0730
 1862TIP3   OH227076   6.568   3.875   2.058  0.1213 -0.2329  0.3211
 1862TIP3    H127077   6.559   3.791   2.012  1.1369  0.4512 -1.1659
 1862TIP3    H227078   6.487   3.922   2.040 -0.9096 -1.2723  2.0229
 1863TIP3   OH227079   3.021   4.695   3.245  0.3367  0.9888 -0.9154
 1863TIP3    H127080   2.959   4.650   3.188  0.3010  0.6084 -0.5704
 1863TIP3    H227081   2.973   4.710   3.326  1.2318 -0.8291 -0.0232
 1864TIP3   OH227082   6.648   1.667   5.933 -0.0353 -0.4628  0.3089
 1864TIP3    H127083   6.721   1.637   5.988  0.4273  1.0109  0.5218
 1864TIP3    H227084   6.676   1.752   5.900 -0.7948 -0.8146 -1.3130
 1865TIP3   OH227085   5.504   6.039   5.558 -0.6422  0.3116 -0.2828
 1865TIP3    H127086   5.594   6.013   5.537 -0.5385 -1.3618  2.0729
 1865TIP3    H227087   5.514   6.120   5.608 -0.4728  0.2205 -0.1710
 1866TIP3   OH227088   0.955   3.862   0.215 -0.0608 -0.1945 -0.1707
 1866TIP3    H127089   1.002   3.812   0.282  2.9900  0.6551 -1.6048
 1866TIP3    H227090   0.974   3.953   0.235  1.0333  0.0633 -2.2387
 1867TIP3   OH227091   4.283   4.218   5.835 -0.3098 -0.1583  0.1881
 1867TIP3    H127092   4.371   4.216   5.797 -1.2149  0.2936 -1.9902
 1867TIP3    H227093   4.297   4.248   5.925  1.5657  1.8065 -0.7082
 1868TIP3   OH227094   2.810   6.116  16.821  0.4537  0.2977  0.1078
 1868TIP3    H127095   2.760   6.045  16.862 -0.2370  1.2915  1.0371
 1868TIP3    H227096   2.851   6.076  16.745  2.3457 -1.7856  2.1485
 1869TIP3   OH227097   1.532   3.552  14.108  0.1337  0.2058 -0.3698
 1869TIP3    H127098   1.587   3.607  14.052  0.1249 -1.2974 -1.8881
 1869TIP3    H227099   1.486   3.494  14.048  0.7138 -1.9979  1.2324
 1870TIP3   OH227100   1.476   3.948  12.716  0.5144  0.2822 -0.1087
 1870TIP3    H127101   1.493   3.864  12.758  0.6717  1.0404  1.4012
 1870TIP3    H227102   1.398   3.981  12.761  0.4253  0.9190 -0.7202
 1871TIP3   OH227103   5.741   4.738   2.789 -0.0551  0.4773  0.0992
 1871TIP3    H127104   5.720   4.699   2.704 -2.1858 -1.0170  1.2757
 1871TIP3    H227105   5.665   4.720   2.844  1.8776  0.0942  2.7769
 1872TIP3   OH227106   6.349   6.429   5.952 -0.2725 -0.1833  0.0455
 1872TIP3    H127107   6.346   6.518   5.917  0.3639 -0.7646 -1.5413
 1872TIP3    H227108   6.275   6.424   6.012 -0.5848  1.2691 -0.2023
 1873TIP3   OH227109   4.113   4.412  12.659  0.1525 -0.5075 -0.5663
 1873TIP3    H127110   4.107   4.497  12.616  2.5109 -0.1281 -0.1876
 1873TIP3    H227111   4.089   4.349  12.591 -1.5308  0.4203 -0.8618
 1874TIP3   OH227112   3.182   2.131   1.855 -0.0010 -0.3201  0.1284
 1874TIP3    H127113   3.264   2.173   1.829 -0.3912 -1.3297 -3.0443
 1874TIP3    H227114   3.115   2.178   1.805 -1.3000  0.0605  2.1873
 1875TIP3   OH227115   4.781   4.894  11.647 -0.2223  0.3697 -0.5920
 1875TIP3    H127116   4.766   4.826  11.713  1.1692  0.0823 -0.5351
 1875TIP3    H227117   4.831   4.961  11.693 -0.2618  0.7168 -1.0479
 1876TIP3   OH227118   5.183   2.198   3.834 -0.0396  0.7594 -0.0441
 1876TIP3    H127119   5.241   2.181   3.760 -1.1549 -1.0688 -0.5337
 1876TIP3    H227120   5.110   2.246   3.796  0.2925  1.5098  0.2479
 1877TIP3   OH227121   2.690   0.846   5.072  0.2953 -0.2569  0.3204
 1877TIP3    H127122   2.625   0.885   5.131  0.1802  0.1349 -0.0689
 1877TIP3    H227123   2.720   0.768   5.119 -2.2094 -1.7841 -0.5282
 1878TIP3   OH227124   6.010   1.814  10.938 -0.3995  0.3839 -0.2664
 1878TIP3    H127125   5.991   1.887  10.997 -0.3454  1.0565 -1.0763
 1878TIP3    H227126   6.067   1.851  10.872 -0.8894 -0.2365 -1.0457
 1879TIP3   OH227127   5.965   2.681   0.909  0.0536 -0.3608  0.0442
 1879TIP3    H127128   6.027   2.746   0.942 -1.0705  0.9525 -0.3623
 1879TIP3    H227129   6.019   2.618   0.861  1.0230  1.0093 -0.7023
 1880TIP3   OH227130   5.692   3.999  12.499  0.6725  0.6904 -0.1661
 1880TIP3    H127131   5.598   4.009  12.517  0.0319 -1.1784 -2.2429
 1880TIP3    H227132   5.709   4.062  12.429  0.4801 -0.3839 -1.2037
 1881TIP3   OH227133   5.065   0.641  13.471  0.2465  0.4142 -0.6589
 1881TIP3    H127134   5.015   0.580  13.524  0.7283  1.2833  0.8131
 1881TIP3    H227135   5.016   0.648  13.389 -1.2995  0.1909  0.2400
 1882TIP3   OH227136   3.380   4.073   6.460 -0.1485  0.5283 -0.6400
 1882TIP3    H127137   3.319   4.021   6.406 -1.2689  0.8717  0.2689
 1882TIP3    H227138   3.333   4.154   6.478 -0.2993 -0.0670  1.8564
 1883TIP3   OH227139   1.339   4.511  14.487 -0.2772  0.0469 -0.3315
 1883TIP3    H127140   1.421   4.559  14.495  0.4594 -0.8591 -2.1449
 1883TIP3    H227141   1.282   4.568  14.435 -1.8620  1.9237  3.2386
 1884TIP3   OH227142   4.087   5.716  13.851  0.4977 -0.3856 -0.3835
 1884TIP3    H127143   4.149   5.680  13.914 -0.9276 -0.4859  0.9951
 1884TIP3    H227144   4.141   5.742  13.776  2.1650 -0.6248  0.7112
 1885TIP3   OH227145   1.297   3.041  16.239 -0.1168 -0.3140  0.2392
 1885TIP3    H127146   1.246   3.119  16.263  0.3477 -0.1480  0.7023
 1885TIP3    H227147   1.307   3.047  16.144 -0.9650 -0.3471  0.1476
 1886TIP3   OH227148   2.291   3.784   3.563  0.9261  0.0815  0.0970
 1886TIP3    H127149   2.339   3.849   3.614  0.9741  0.6514 -0.6787
 1886TIP3    H227150   2.219   3.833   3.523  1.1406 -0.2905 -0.7356
 1887TIP3   OH227151   3.968   5.645   5.368 -0.5609  0.4541  0.0781
 1887TIP3    H127152   3.893   5.702   5.350 -0.8937 -0.4180 -1.3334
 1887TIP3    H227153   4.045   5.700   5.350 -0.8075  1.7684  2.7938
 1888TIP3   OH227154   5.069   6.648   5.540  0.1310  0.3559 -0.3167
 1888TIP3    H127155   5.063   6.742   5.519 -0.7259 -0.1466 -2.4976
 1888TIP3    H227156   4.988   6.611   5.505  0.1072 -1.0960  1.2150
 1889TIP3   OH227157   2.480   4.082  16.879 -0.6492  0.3863 -0.4567
 1889TIP3    H127158   2.477   4.048  16.969  1.2912  1.2362 -0.0387
 1889TIP3    H227159   2.410   4.147  16.876 -0.5578  0.5422  0.5349
 1890TIP3   OH227160   0.692   4.764  15.053 -0.0965 -0.0700  0.6306
 1890TIP3    H127161   0.690   4.749  15.148 -0.6024 -0.8540  0.4976
 1890TIP3    H227162   0.720   4.681  15.015 -0.8648 -0.0590  0.0291
 1891TIP3   OH227163   0.167   0.120  14.231  0.1611 -0.3441 -0.2636
 1891TIP3    H127164   0.121   0.039  14.208  0.2294 -0.5310  0.2588
 1891TIP3    H227165   0.113   0.190  14.194 -1.0675 -0.5102  1.1972
 1892TIP3   OH227166   5.283   0.014  14.529 -0.5516  0.2684  0.6528
 1892TIP3    H127167   5.259   0.105  14.547  0.3125  0.6543 -0.0823
 1892TIP3    H227168   5.200  -0.034  14.534 -1.3178  1.3982 -0.8145
 1893TIP3   OH227169   1.869   1.661   3.902  0.0433 -0.8835  0.3894
 1893TIP3    H127170   1.906   1.713   3.974  0.6695 -1.7798  0.7183
 1893TIP3    H227171   1.905   1.574   3.914  1.1260 -0.7509 -1.7571
 1894TIP3   OH227172   1.406   1.750   4.417 -0.8916 -0.1426  0.0253
 1894TIP3    H127173   1.475   1.692   4.383 -0.9689  0.1159 -0.5709
 1894TIP3    H227174   1.442   1.838   4.406 -0.5444 -0.0940  1.4426
 1895TIP3   OH227175   6.476   0.464   4.484  0.2667  0.7150  0.3733
 1895TIP3    H127176   6.468   0.434   4.394 -1.0928 -1.3532  1.1521
 1895TIP3    H227177   6.433   0.549   4.485 -2.3478 -0.5541 -0.3131
 1896TIP3   OH227178   2.470   6.691   5.732 -0.4358  0.4401  0.2575
 1896TIP3    H127179   2.392   6.674   5.785 -1.6044  2.0210 -0.8895
 1896TIP3    H227180   2.485   6.610   5.684 -1.1335 -0.0045  0.7748
 1897TIP3   OH227181   0.065   0.464  15.318 -0.0591  0.0594  0.1227
 1897TIP3    H127182   0.116   0.421  15.387  0.7027  0.7997  0.0223
 1897TIP3    H227183  -0.017   0.415  15.315  0.6541 -1.1509  0.2638
 1898TIP3   OH227184   5.529   6.413  15.989  0.3032  0.0054  0.6709
 1898TIP3    H127185   5.509   6.505  15.970 -0.0668 -0.0456  0.8140
 1898TIP3    H227186   5.598   6.391  15.926 -1.2777 -0.3174 -0.9854
 1899TIP3   OH227187   4.106   0.029  13.993  0.1666 -0.0826 -0.1198
 1899TIP3    H127188   4.183   0.070  14.033 -0.0864  1.1042 -0.8287
 1899TIP3    H227189   4.143  -0.030  13.927  0.4598  0.6861 -0.6459
 1900TIP3   OH227190   1.975   2.746  14.578 -0.0133 -0.1711  0.0103
 1900TIP3    H127191   1.982   2.812  14.509 -0.6226  0.2244  0.3172
 1900TIP3    H227192   1.948   2.666  14.533  0.1201 -0.0513 -0.2832
 1901TIP3   OH227193   2.309   0.281   2.408  0.7691  0.2362  0.4677
 1901TIP3    H127194   2.217   0.300   2.424  0.0399 -2.1136 -0.6799
 1901TIP3    H227195   2.336   0.228   2.483  0.1170 -2.2456 -0.9989
 1902TIP3   OH227196   1.910   3.818   4.413  0.4395  0.4782  0.4108
 1902TIP3    H127197   1.923   3.811   4.318 -1.0042 -1.1686  0.3117
 1902TIP3    H227198   1.994   3.792   4.450  1.1664  1.5789 -0.3999
 1903TIP3   OH227199   5.649   6.301  11.334  0.1980  0.0050 -0.4324
 1903TIP3    H127200   5.744   6.300  11.320  0.5106 -1.5828  1.5122
 1903TIP3    H227201   5.623   6.209  11.321 -0.8590  0.1803  0.4365
 1904TIP3   OH227202   3.598   1.685  12.669 -0.4191 -0.5595  0.5353
 1904TIP3    H127203   3.657   1.759  12.688  1.6156 -1.6178 -1.4915
 1904TIP3    H227204   3.523   1.724  12.625 -0.0804  0.4906  0.8781
 1905TIP3   OH227205   4.087   2.258   5.848  0.2854 -0.5479  0.1596
 1905TIP3    H127206   4.115   2.178   5.892 -1.4016 -1.4494 -0.3720
 1905TIP3    H227207   3.997   2.272   5.879  0.3983  0.8867 -0.1147
 1906TIP3   OH227208   0.381   4.988  12.015  0.1919 -0.2089  0.6761
 1906TIP3    H127209   0.325   5.065  12.011 -1.0324 -1.0798  0.5392
 1906TIP3    H227210   0.401   4.978  12.108 -1.3437 -0.8963  0.9492
 1907TIP3   OH227211   6.165   4.108  16.062 -0.0239 -1.2812 -0.4537
 1907TIP3    H127212   6.189   4.200  16.070  1.7026 -1.8487  1.5603
 1907TIP3    H227213   6.215   4.076  15.987 -0.0989 -0.7361 -0.7348
 1908TIP3   OH227214   6.173   6.025   5.803 -0.1528  0.0914  0.3931
 1908TIP3    H127215   6.237   5.970   5.759 -1.2599 -0.6709 -0.3111
 1908TIP3    H227216   6.186   6.009   5.896 -0.8798 -1.8699  0.1733
 1909TIP3   OH227217   2.210   0.149  10.445  0.3321 -0.5217 -0.4265
 1909TIP3    H127218   2.119   0.170  10.424  1.1443  0.8030 -2.7734
 1909TIP3    H227219   2.222   0.060  10.411 -0.5362 -1.3505  1.3843
 1910TIP3   OH227220   1.459   6.222  17.079 -0.3982 -0.1692  0.0151
 1910TIP3    H127221   1.539   6.274  17.092 -1.0129  1.6514 -2.9771
 1910TIP3    H227222   1.392   6.269  17.129 -0.2053 -0.1280  0.2382
 1911TIP3   OH227223   1.031   4.797  15.387  0.0525  0.7959 -0.9001
 1911TIP3    H127224   0.967   4.868  15.392  0.1541  0.8495 -0.2658
 1911TIP3    H227225   1.111   4.836  15.423 -0.0545  0.1761  0.0133
 1912TIP3   OH227226   2.985   5.533   3.725  0.0245  0.1091  0.3339
 1912TIP3    H127227   2.986   5.449   3.772  2.7810 -0.4616 -0.6638
 1912TIP3    H227228   3.053   5.585   3.767 -0.0465  0.9649 -0.5907
 1913TIP3   OH227229   1.656   6.304  15.737 -0.3619  0.1955  0.0628
 1913TIP3    H127230   1.616   6.366  15.675 -1.9011 -2.3201 -1.5515
 1913TIP3    H227231   1.587   6.240  15.754  0.9688 -0.6684  2.2755
 1914TIP3   OH227232   2.915   4.409   5.867  0.2214  0.4522  0.4251
 1914TIP3    H127233   2.877   4.468   5.931  0.1117 -0.6823  1.4248
 1914TIP3    H227234   2.912   4.323   5.909  0.2936 -0.2787 -1.0329
 1915TIP3   OH227235   4.569   1.207   3.067 -0.4985 -0.2997  0.4870
 1915TIP3    H127236   4.531   1.269   3.130  0.2836 -1.2576  1.9500
 1915TIP3    H227237   4.522   1.126   3.082  0.3411 -0.7899  0.4887
 1916TIP3   OH227238   6.143   2.762   3.406  0.1440  0.7778  0.1655
 1916TIP3    H127239   6.195   2.713   3.470  1.2186  2.0184  0.2632
 1916TIP3    H227240   6.121   2.697   3.338  0.4893 -0.1283  0.9102
 1917TIP3   OH227241   5.709   5.431  12.238  0.0068 -0.1169  0.2929
 1917TIP3    H127242   5.731   5.437  12.145 -1.1323 -0.0583  0.0125
 1917TIP3    H227243   5.764   5.496  12.280  0.5544 -0.1643 -0.3453
 1918TIP3   OH227244   1.062   2.441   3.762  0.0116  0.5186  0.1374
 1918TIP3    H127245   1.100   2.422   3.848 -1.7974  2.1515  1.3224
 1918TIP3    H227246   1.059   2.537   3.758 -3.1259  0.4379 -0.2780
 1919TIP3   OH227247   0.725   4.376   1.428 -0.5534 -0.1515 -0.1495
 1919TIP3    H127248   0.687   4.322   1.497 -0.9963  1.9991  1.3408
 1919TIP3    H227249   0.696   4.335   1.347 -3.6860 -0.2078  0.9468
 1920TIP3   OH227250   1.914   2.069  16.888  0.2109  0.1816  0.2677
 1920TIP3    H127251   1.903   2.128  16.814 -2.5016  0.5905  0.9341
 1920TIP3    H227252   1.915   1.981  16.850  2.3135  0.5354 -0.5422
 1921TIP3   OH227253   0.010   1.980   3.148 -0.1924 -0.1322 -0.0819
 1921TIP3    H127254   0.059   1.920   3.092 -0.3558  0.8665 -1.3190
 1921TIP3    H227255   0.057   1.978   3.232 -0.3385 -2.1379 -0.0366
 1922TIP3   OH227256   3.645   1.943   1.096 -0.1156  0.6762  0.4534
 1922TIP3    H127257   3.620   1.866   1.043 -0.5381  1.0935  0.0374
 1922TIP3    H227258   3.602   2.017   1.052  0.7181  1.2220  0.5559
 1923TIP3   OH227259   5.399   2.952   2.190 -0.3317 -0.4670 -0.7138
 1923TIP3    H127260   5.437   2.899   2.260  0.0982 -2.9007 -2.7136
 1923TIP3    H227261   5.436   3.039   2.203  0.4673 -1.1030  1.5067
 1924TIP3   OH227262   0.702   4.912   4.029  0.9768 -0.5720  0.4074
 1924TIP3    H127263   0.722   4.922   4.122  2.9997  0.4282 -0.1010
 1924TIP3    H227264   0.783   4.938   3.984 -0.0375 -0.8321 -1.6323
 1925TIP3   OH227265   2.974   0.240   5.437  0.3904  0.3333  0.9263
 1925TIP3    H127266   2.986   0.231   5.532 -0.5941  0.5360  1.0680
 1925TIP3    H227267   3.059   0.271   5.406  1.4112 -1.8083  1.4510
 1926TIP3   OH227268   2.675   1.654   5.144  0.2246 -0.3766 -0.5369
 1926TIP3    H127269   2.627   1.698   5.073  0.1169  0.5281  0.0835
 1926TIP3    H227270   2.606   1.619   5.201  0.2903  0.7927  0.2738
 1927TIP3   OH227271   4.560   4.125  11.270 -0.5647 -0.0163  0.0489
 1927TIP3    H127272   4.503   4.048  11.271 -0.1999 -0.4103 -3.1369
 1927TIP3    H227273   4.514   4.189  11.324 -2.0805 -1.6555  0.7762
 1928TIP3   OH227274   6.620   4.264  10.694 -0.3858  0.1151 -0.0732
 1928TIP3    H127275   6.563   4.209  10.639 -0.9269 -0.9877  1.5607
 1928TIP3    H227276   6.706   4.222  10.688 -0.0984  0.8218 -1.1909
 1929TIP3   OH227277   4.082   3.979   1.411  0.0964  0.2944 -0.0816
 1929TIP3    H127278   4.086   4.074   1.402  2.1098  0.1416 -0.8935
 1929TIP3    H227279   4.153   3.957   1.471 -1.6167 -0.5325  1.7159
 1930TIP3   OH227280   3.851   6.248  11.489 -0.2991 -1.2938 -0.5182
 1930TIP3    H127281   3.765   6.264  11.529  0.4871  1.5723  0.1762
 1930TIP3    H227282   3.834   6.246  11.395 -1.0444 -0.0099 -0.4241
 1931TIP3   OH227283   6.091   3.030  15.909  0.3086  0.5365  0.4708
 1931TIP3    H127284   6.152   2.960  15.936  0.3677  0.3318 -0.1755
 1931TIP3    H227285   6.043   2.992  15.835 -0.7749  0.6175  1.1331
 1932TIP3   OH227286   2.007   4.970   2.419  0.6535  0.3818 -0.1515
 1932TIP3    H127287   2.003   4.876   2.437  0.4703  0.2811 -0.7361
 1932TIP3    H227288   1.917   4.996   2.399  0.8029  0.5653 -0.5901
 1933TIP3   OH227289   2.450   5.323   2.679  0.0845 -0.6606  0.5772
 1933TIP3    H127290   2.525   5.381   2.668 -0.6162  0.3394  0.9331
 1933TIP3    H227291   2.437   5.284   2.593  0.7527 -0.5239  0.4106
 1934TIP3   OH227292   0.080   4.239  12.878 -0.2652  0.0348 -0.1703
 1934TIP3    H127293   0.110   4.302  12.811 -0.6577  0.8321  0.3902
 1934TIP3    H227294   0.056   4.161  12.828  1.4197 -0.1337 -0.7601
 1935TIP3   OH227295   1.558   3.118  14.332  0.5767 -0.5969 -0.2767
 1935TIP3    H127296   1.467   3.119  14.303  0.4286 -0.1556  0.1903
 1935TIP3    H227297   1.609   3.099  14.253  0.1449  0.0565 -0.7208
 1936TIP3   OH227298   5.909   0.737  16.436  0.9318 -0.3006  0.0121
 1936TIP3    H127299   5.889   0.658  16.386 -1.9005  0.5961 -0.3994
 1936TIP3    H227300   5.922   0.805  16.370  0.3510  0.2032  0.4012
 1937TIP3   OH227301   1.022   5.063   3.595 -0.2903 -0.4589  0.0232
 1937TIP3    H127302   1.088   5.001   3.565 -0.4254 -1.4987  1.7604
 1937TIP3    H227303   1.072   5.135   3.633 -0.1336  0.4423 -1.8498
 1938TIP3   OH227304   1.859   4.994  14.220  0.3086  0.3536  0.7841
 1938TIP3    H127305   1.859   4.900  14.204 -1.6795  0.3276  0.7521
 1938TIP3    H227306   1.936   5.027  14.174  0.1501 -1.0527 -0.5154
 1939TIP3   OH227307   0.476   6.548   4.103  0.5863  0.1937 -0.1305
 1939TIP3    H127308   0.502   6.457   4.118 -0.8698 -0.2881 -0.3722
 1939TIP3    H227309   0.437   6.576   4.186 -1.4415 -0.3096 -0.8838
 1940TIP3   OH227310   3.283   4.137  11.671 -0.1802 -0.3565  0.1251
 1940TIP3    H127311   3.363   4.107  11.627 -0.3320 -0.1494 -0.3036
 1940TIP3    H227312   3.213   4.116  11.609 -0.2800  0.9403 -0.2187
 1941TIP3   OH227313   5.118   3.155   0.951 -0.5181  0.5684  0.3047
 1941TIP3    H127314   5.134   3.247   0.929 -0.5037  0.5994  0.4469
 1941TIP3    H227315   5.054   3.158   1.022 -1.9170  0.4195 -0.9320
 1942TIP3   OH227316   6.740   2.652  12.954  0.3276 -0.0694  0.4082
 1942TIP3    H127317   6.756   2.652  13.049  1.3260  1.0494  0.2613
 1942TIP3    H227318   6.802   2.588  12.920  1.3322  0.9322  0.3226
 1943TIP3   OH227319   3.316   3.988   5.928 -0.0095 -0.0582 -0.6831
 1943TIP3    H127320   3.278   4.022   6.009 -2.1947 -0.9903 -1.2806
 1943TIP3    H227321   3.245   3.937   5.888  1.8528 -1.7449 -1.9118
 1944TIP3   OH227322   3.962   2.940   6.207 -0.0896  0.2686  0.0028
 1944TIP3    H127323   4.041   2.976   6.167 -0.4502 -0.5100 -1.4358
 1944TIP3    H227324   3.994   2.885   6.278  0.6271  0.5619 -0.0955
 1945TIP3   OH227325   4.385   4.288  14.628  0.0227 -0.2564  0.0758
 1945TIP3    H127326   4.302   4.280  14.582  0.5130 -2.2638 -0.5064
 1945TIP3    H227327   4.367   4.347  14.701 -1.2118  1.5270 -1.6408
 1946TIP3   OH227328   4.713   5.188   4.122 -0.1929 -0.0141  0.2874
 1946TIP3    H127329   4.703   5.256   4.189  2.1015 -0.2961  0.9603
 1946TIP3    H227330   4.745   5.235   4.044  1.4911 -0.2839  0.7825
 1947TIP3   OH227331   5.209   0.866  15.416 -0.0605  0.6538 -0.4275
 1947TIP3    H127332   5.272   0.859  15.487 -1.2330 -0.9002  0.4953
 1947TIP3    H227333   5.142   0.926  15.448 -1.4429 -1.3202  0.4734
 1948TIP3   OH227334   4.511   3.854  11.535 -0.2741  0.3180 -0.0563
 1948TIP3    H127335   4.520   3.836  11.442  3.3162  1.6693 -0.0278
 1948TIP3    H227336   4.534   3.772  11.578 -1.1814 -0.0811 -0.3184
 1949TIP3   OH227337   0.361   2.236   0.640 -0.4981 -0.4617 -0.0207
 1949TIP3    H127338   0.270   2.212   0.628 -0.4824 -0.1970 -0.7000
 1949TIP3    H227339   0.397   2.168   0.697 -0.6042 -1.6858 -1.4150
 1950TIP3   OH227340   5.691   1.258   5.516  0.3349 -0.1117  0.5752
 1950TIP3    H127341   5.637   1.283   5.441  1.3282 -3.7537 -1.4954
 1950TIP3    H227342   5.636   1.275   5.593 -2.2987 -0.2010 -1.2441
 1951TIP3   OH227343   1.404   6.723   1.367  0.3609 -0.2973 -0.0222
 1951TIP3    H127344   1.308   6.726   1.371  0.2934 -3.3549  2.7059
 1951TIP3    H227345   1.424   6.707   1.275 -1.6728  1.3128 -0.7863
 1952TIP3   OH227346   2.097   2.600  11.093 -0.3730 -0.7879  0.4422
 1952TIP3    H127347   2.044   2.679  11.080 -1.1030 -1.4227 -0.3750
 1952TIP3    H227348   2.159   2.601  11.020  0.1274 -0.5646  0.8631
 1953TIP3   OH227349   4.320   6.438  16.311 -0.0448  0.8927 -0.1139
 1953TIP3    H127350   4.350   6.360  16.265  1.7438  1.3743  0.2198
 1953TIP3    H227351   4.378   6.447  16.386 -0.8843  1.9626  0.4288
 1954TIP3   OH227352   2.929   3.734   4.799 -0.2998  0.4650  0.3465
 1954TIP3    H127353   2.859   3.694   4.746 -0.4796 -0.6759  1.4332
 1954TIP3    H227354   2.885   3.801   4.850 -0.5907 -0.1856  0.9561
 1955TIP3   OH227355   2.758   5.714  16.436 -0.2023 -0.3942 -0.5955
 1955TIP3    H127356   2.835   5.658  16.443 -2.1495 -2.8696  1.7082
 1955TIP3    H227357   2.695   5.664  16.384 -1.4576  0.2061  0.2970
 1956TIP3   OH227358   3.186   6.387  17.144 -0.2052 -0.0160  0.0122
 1956TIP3    H127359   3.171   6.293  17.156  1.1290 -0.4321 -1.3385
 1956TIP3    H227360   3.114   6.415  17.087  1.2988 -0.9708 -2.4325
 1957TIP3   OH227361   6.193   2.722   6.539 -0.1154  0.0935  0.5380
 1957TIP3    H127362   6.149   2.789   6.488 -1.6370 -1.2060  0.1067
 1957TIP3    H227363   6.227   2.768   6.615  0.0083  1.5859 -0.4001
 1958TIP3   OH227364   2.604   1.876   2.844 -0.2686 -0.1361 -0.7010
 1958TIP3    H127365   2.543   1.885   2.918 -0.2733  1.0515 -0.8410
 1958TIP3    H227366   2.596   1.958   2.796  2.0098  0.3757 -0.2807
 1959TIP3   OH227367   1.767   5.732  12.942  0.0557 -0.1795 -0.8522
 1959TIP3    H127368   1.785   5.639  12.928 -0.7436 -0.4518 -0.0944
 1959TIP3    H227369   1.675   5.742  12.919 -0.5908 -0.1207  1.5848
 1960TIP3   OH227370   2.113   0.111  11.695 -0.3563 -0.5241 -0.2992
 1960TIP3    H127371   2.064   0.127  11.614  0.1726 -0.0820 -0.5282
 1960TIP3    H227372   2.199   0.149  11.680 -0.6117  0.5448  0.8912
 1961TIP3   OH227373   1.350   6.258   0.281 -0.0816  1.0549  0.0450
 1961TIP3    H127374   1.398   6.213   0.211 -0.2457  0.5366  0.2605
 1961TIP3    H227375   1.289   6.316   0.235  1.1191  2.1234 -0.2262
 1962TIP3   OH227376   6.630   6.170   3.265  0.5015 -0.4882 -0.2267
 1962TIP3    H127377   6.609   6.094   3.211 -0.5089 -0.8784  0.7101
 1962TIP3    H227378   6.684   6.136   3.336  0.4975 -0.2332 -0.0984
 1963TIP3   OH227379   5.822   3.778  12.481 -0.2478 -0.3986  0.2082
 1963TIP3    H127380   5.790   3.860  12.519 -1.8061 -0.2471 -1.3380
 1963TIP3    H227381   5.909   3.800  12.448 -0.7582  0.7292 -0.4334
 1964TIP3   OH227382   1.010   4.099  11.762  0.1462 -0.2484  0.0069
 1964TIP3    H127383   0.968   4.073  11.680 -0.8928 -1.1831  0.8154
 1964TIP3    H227384   1.038   4.017  11.802 -0.3912  0.0933  1.1233
 1965TIP3   OH227385   6.447   3.990   6.144 -0.2176  0.8316  0.4046
 1965TIP3    H127386   6.433   4.047   6.220 -0.0560 -0.3111  1.3014
 1965TIP3    H227387   6.451   4.050   6.069  0.6171  2.0584  1.4193
 1966TIP3   OH227388   3.451   2.209  12.304  0.0171  0.0207  0.6343
 1966TIP3    H127389   3.494   2.252  12.377 -1.1661  1.9169  0.2433
 1966TIP3    H227390   3.503   2.234  12.227  0.0746 -0.3010  0.5685
 1967TIP3   OH227391   4.785   1.326  15.348  0.1710  0.3492 -0.0201
 1967TIP3    H127392   4.791   1.324  15.444  0.5480 -0.0545 -0.0546
 1967TIP3    H227393   4.736   1.406  15.329  0.6177  0.7487  0.4875
 1968TIP3   OH227394   6.559   2.424  13.729  0.7404  0.2782  0.7301
 1968TIP3    H127395   6.551   2.394  13.639  1.0243 -1.7860  1.3746
 1968TIP3    H227396   6.567   2.519  13.722  0.3155  0.1755 -1.3814
 1969TIP3   OH227397   0.817   3.690   4.333 -0.2559 -0.4888  0.4409
 1969TIP3    H127398   0.876   3.746   4.385 -1.2439  0.8459  0.1726
 1969TIP3    H227399   0.759   3.650   4.398  0.6010 -1.3855  0.6562
 1970TIP3   OH227400   0.312   2.767  13.221 -0.6839 -0.3112 -0.1433
 1970TIP3    H127401   0.263   2.837  13.262  0.5526  0.8288 -0.5637
 1970TIP3    H227402   0.378   2.812  13.168  1.2766 -1.7826  0.9842
 1971TIP3   OH227403   6.251   2.829  13.014  0.1789 -0.3496  0.1423
 1971TIP3    H127404   6.263   2.760  13.079  0.6715 -0.1179  0.3061
 1971TIP3    H227405   6.340   2.847  12.982  0.2886  1.4852  1.4227
 1972TIP3   OH227406   2.418   4.309  14.677 -0.3632  0.3163  0.1355
 1972TIP3    H127407   2.337   4.349  14.647  0.7923  4.2759  1.9487
 1972TIP3    H227408   2.487   4.359  14.633  1.1589 -1.4209  0.4698
 1973TIP3   OH227409   1.908   5.867   0.806 -0.0212  0.2526  0.2866
 1973TIP3    H127410   1.909   5.842   0.899  1.3951 -1.3046 -0.1326
 1973TIP3    H227411   1.999   5.861   0.779 -0.7978 -2.1817 -1.9701
 1974TIP3   OH227412   1.868   1.787  15.500 -0.5189 -0.3057 -0.2411
 1974TIP3    H127413   1.867   1.858  15.565 -1.3188  0.6752 -1.3185
 1974TIP3    H227414   1.946   1.803  15.448 -0.9413  0.0313 -0.7668
 1975TIP3   OH227415   4.012   1.426   2.815 -0.0370  0.4334 -0.5785
 1975TIP3    H127416   3.984   1.516   2.832  1.3275  0.9045 -0.7581
 1975TIP3    H227417   4.061   1.402   2.894 -2.4410 -1.0224  0.5213
 1976TIP3   OH227418   5.484   1.489  16.320 -0.1987  0.3944 -0.0440
 1976TIP3    H127419   5.562   1.544  16.313  0.2383  0.0329  1.7831
 1976TIP3    H227420   5.509   1.419  16.381 -2.5941  1.3941  2.1979
 1977TIP3   OH227421   4.750   2.275  12.553 -0.5311 -0.0617  0.1832
 1977TIP3    H127422   4.804   2.353  12.564 -1.9230  0.8843  0.4202
 1977TIP3    H227423   4.690   2.298  12.483 -1.2033 -0.7881  0.5203
 1978TIP3   OH227424   3.193   1.814  16.914  0.3883  0.2388  0.5690
 1978TIP3    H127425   3.106   1.807  16.952 -0.5083  0.5211 -1.3829
 1978TIP3    H227426   3.218   1.724  16.894  0.9292  0.0734  1.9144
 1979TIP3   OH227427   5.547   4.816  13.990  0.2092  0.2044 -0.1477
 1979TIP3    H127428   5.626   4.828  13.937  0.6290  1.3885  0.7287
 1979TIP3    H227429   5.573   4.754  14.058  0.2657  0.2700 -0.1087
 1980TIP3   OH227430   1.844   0.611  16.658  0.5889 -0.0031 -0.3693
 1980TIP3    H127431   1.913   0.577  16.600  0.5221 -0.6898 -0.0523
 1980TIP3    H227432   1.873   0.587  16.746  0.1971  0.1631 -0.1941
 1981TIP3   OH227433   3.010   3.110  12.738 -0.1050 -0.4825  0.3254
 1981TIP3    H127434   2.915   3.107  12.749 -0.0023 -0.0067  1.4416
 1981TIP3    H227435   3.028   3.200  12.710 -0.0395 -0.7688 -0.5872
 1982TIP3   OH227436   2.243   1.901  13.001  0.8641  0.2635  0.0159
 1982TIP3    H127437   2.236   1.990  13.034 -0.9340  0.2853 -0.4056
 1982TIP3    H227438   2.285   1.910  12.915  1.0273  0.6580  0.1360
 1983TIP3   OH227439   4.677   2.808  11.346 -0.0442  0.6012 -0.4106
 1983TIP3    H127440   4.621   2.764  11.410  1.7808  2.3240  2.4503
 1983TIP3    H227441   4.624   2.881  11.314  0.3757  2.0911  2.1169
 1984TIP3   OH227442   4.686   1.652  14.374 -0.1710 -0.5263  0.3234
 1984TIP3    H127443   4.591   1.641  14.383 -0.5679  0.3852 -2.2935
 1984TIP3    H227444   4.714   1.578  14.321  0.3329 -0.0176 -0.1293
 1985TIP3   OH227445   2.388   3.522   6.189  0.0245 -0.6420 -0.0036
 1985TIP3    H127446   2.439   3.475   6.123  0.7645 -0.4303  0.4040
 1985TIP3    H227447   2.446   3.527   6.265 -0.7155 -0.6408  0.5688
 1986TIP3   OH227448   5.091   4.473  11.778 -0.4166  0.3288  0.6196
 1986TIP3    H127449   5.014   4.427  11.810  0.0665 -1.3082 -0.4550
 1986TIP3    H227450   5.070   4.565  11.787 -2.3332 -0.0958  0.7210
 1987TIP3   OH227451   1.956   3.076  12.592  0.1896  0.6152  0.1487
 1987TIP3    H127452   1.953   2.981  12.600 -0.8965  0.6721  0.5472
 1987TIP3    H227453   2.013   3.092  12.516  1.5076 -0.2928  0.9309
 1988TIP3   OH227454   1.923   5.588   1.968  0.6588  0.2148  0.4590
 1988TIP3    H127455   1.914   5.672   2.013  1.9306  0.0679  1.0336
 1988TIP3    H227456   1.862   5.592   1.895 -1.2123  0.6101  2.0092
 1989TIP3   OH227457   1.799   3.666  14.879 -0.0512  1.1203  0.5575
 1989TIP3    H127458   1.732   3.625  14.823 -0.4801  1.9328  0.4614
 1989TIP3    H227459   1.858   3.595  14.902 -0.8111  0.4360  0.4315
 1990TIP3   OH227460   1.723   0.874   2.182 -0.2284  0.3011 -0.2865
 1990TIP3    H127461   1.694   0.927   2.108  2.3616  2.6112  0.2564
 1990TIP3    H227462   1.645   0.827   2.211 -2.6147  3.6900 -0.9326
 1991TIP3   OH227463   4.368   5.159  16.194  0.3242  0.2814 -0.3390
 1991TIP3    H127464   4.410   5.082  16.157  2.0477  1.1726 -0.2963
 1991TIP3    H227465   4.406   5.233  16.146 -0.2943  1.1936  0.5379
 1992TIP3   OH227466   3.841   1.969   2.805  0.0403 -0.1351  0.5607
 1992TIP3    H127467   3.859   2.007   2.891  1.2854  1.8236 -0.5032
 1992TIP3    H227468   3.763   2.016   2.774  1.5019  1.5219 -0.7055
 1993TIP3   OH227469   4.432   2.532   0.751  0.7919 -0.6002 -0.1257
 1993TIP3    H127470   4.405   2.440   0.748 -0.6822 -0.3394  3.0687
 1993TIP3    H227471   4.388   2.572   0.676  0.5422 -2.2680 -0.8868
 1994TIP3   OH227472   1.662   1.684   2.332 -0.0254 -0.3103  0.0821
 1994TIP3    H127473   1.671   1.605   2.279  0.4366 -0.3606  0.2400
 1994TIP3    H227474   1.742   1.734   2.315 -0.2449  0.0567  0.1002
 1995TIP3   OH227475   6.253   2.053   0.527 -0.2528  0.2603  0.1071
 1995TIP3    H127476   6.230   2.080   0.438 -1.8208  0.9984  0.7250
 1995TIP3    H227477   6.319   1.985   0.515 -0.8060  0.0069 -1.6265
 1996TIP3   OH227478   5.932   3.914   1.278  0.4766 -0.1080  0.4494
 1996TIP3    H127479   5.933   3.919   1.183  2.2332 -3.5131  0.1977
 1996TIP3    H227480   5.887   3.832   1.298  2.9455 -1.0976  2.3612
 1997TIP3   OH227481   2.021   4.628   0.464 -0.1473 -0.7359  0.0769
 1997TIP3    H127482   2.014   4.668   0.377  0.2734 -0.2877  0.2446
 1997TIP3    H227483   1.985   4.694   0.523  0.6255 -0.5589  0.3634
 1998TIP3   OH227484   4.249   4.382  17.190  0.0171  0.7210 -0.4174
 1998TIP3    H127485   4.342   4.403  17.198 -0.6214  3.2267  1.1297
 1998TIP3    H227486   4.205   4.449  17.242 -2.5168 -2.0415  1.1233
 1999TIP3   OH227487   0.809   0.597   2.968 -0.1498  0.3719  0.3335
 1999TIP3    H127488   0.754   0.656   3.020 -1.5406  1.5547 -2.3707
 1999TIP3    H227489   0.782   0.510   2.996 -1.2523  0.9796  1.2275
 2000TIP3   OH227490   4.555   4.424  16.604  0.2983 -0.0248 -0.4037
 2000TIP3    H127491   4.529   4.332  16.599 -1.4294  0.1631  3.1676
 2000TIP3    H227492   4.492   4.469  16.547 -0.3835 -0.7796 -0.2579
 2001TIP3   OH227493   4.574   5.326  11.643  0.3324  0.1450  0.6994
 2001TIP3    H127494   4.599   5.352  11.554  1.4743  1.6739  1.4495
 2001TIP3    H227495   4.485   5.361  11.654  1.0108  1.8242  0.9078
 2002TIP3   OH227496   4.776   5.467   3.268 -0.0054  0.0290  0.0509
 2002TIP3    H127497   4.869   5.481   3.249 -0.4700  1.4230 -1.2651
 2002TIP3    H227498   4.747   5.405   3.201  0.2743 -1.4982  1.3015
 2003TIP3   OH227499   4.674   1.676   5.265  0.6299  0.4033  0.2287
 2003TIP3    H127500   4.760   1.699   5.229 -0.3291  1.0336 -1.7291
 2003TIP3    H227501   4.662   1.584   5.242  0.2028  0.6890 -0.7139
 2004TIP3   OH227502   4.047   5.710  12.562 -0.6514  0.1636 -0.4285
 2004TIP3    H127503   4.036   5.637  12.623  1.7569  0.5583  0.5487
 2004TIP3    H227504   4.142   5.723  12.557 -0.7151 -0.0810 -4.5327
 2005TIP3   OH227505   0.774   3.718   6.322  0.0216  0.1515 -0.1258
 2005TIP3    H127506   0.774   3.729   6.417  1.9162  0.6016 -0.1643
 2005TIP3    H227507   0.731   3.634   6.308 -0.1172  0.0011  1.1352
 2006TIP3   OH227508   4.014   5.343   2.633 -0.1659  0.0619  0.7761
 2006TIP3    H127509   4.030   5.346   2.727 -1.1202  0.5051  0.9260
 2006TIP3    H227510   3.926   5.378   2.622 -0.0447  0.0546 -0.2873
 2007TIP3   OH227511   0.136   3.694   4.947 -0.0191  0.4863 -0.3320
 2007TIP3    H127512   0.105   3.752   4.877  0.0622  0.0836 -0.7058
 2007TIP3    H227513   0.231   3.693   4.936 -0.1308 -0.9224 -1.2879
 2008TIP3   OH227514   4.668   1.897  11.741 -0.2625  0.2574  0.0199
 2008TIP3    H127515   4.647   1.944  11.821 -1.6843 -0.2278 -0.0630
 2008TIP3    H227516   4.708   1.815  11.771  0.1823  0.5352  0.2007
 2009TIP3   OH227517   6.495   0.252   5.250 -0.1252 -0.3533  0.8583
 2009TIP3    H127518   6.527   0.324   5.303 -0.0013  0.7131 -0.6483
 2009TIP3    H227519   6.513   0.174   5.302 -1.0198  0.7500  2.8667
 2010TIP3   OH227520   2.573   6.312  10.904  0.2976  0.6051  0.0157
 2010TIP3    H127521   2.607   6.237  10.856  0.6718  0.9525 -0.2701
 2010TIP3    H227522   2.642   6.378  10.898 -0.8489  1.7172 -1.4879
 2011TIP3   OH227523   2.341   5.911   1.102  0.1489  0.1117 -0.1746
 2011TIP3    H127524   2.410   5.845   1.098 -0.9857 -1.2001  1.0818
 2011TIP3    H227525   2.330   5.928   1.196  1.4385  3.2168 -0.5306
 2012TIP3   OH227526   3.247   1.207   6.025  0.0286  0.6445  0.1102
 2012TIP3    H127527   3.152   1.218   6.030  0.0813  1.4712 -0.5158
 2012TIP3    H227528   3.269   1.149   6.097 -0.7757  1.6158  1.1518
 2013TIP3   OH227529   6.240   1.903  15.833 -0.1974 -0.6635  0.3543
 2013TIP3    H127530   6.237   1.879  15.741 -0.6628  0.6549  0.0129
 2013TIP3    H227531   6.333   1.896  15.857  0.1146  0.2268 -0.5630
 2014TIP3   OH227532   3.862   1.263  13.079  0.5042  0.4447  0.3140
 2014TIP3    H127533   3.934   1.204  13.055 -0.0751 -0.3475  0.4896
 2014TIP3    H227534   3.786   1.205  13.088 -0.3090  1.3702 -0.5348
 2015TIP3   OH227535   4.722   0.774   1.283 -0.0242 -0.5382  0.1295
 2015TIP3    H127536   4.676   0.857   1.299 -0.2855 -0.4760 -0.9489
 2015TIP3    H227537   4.681   0.738   1.205  0.5072 -1.3928  0.2389
 2016TIP3   OH227538   2.045   5.948  14.028 -1.1290 -0.2309 -0.0561
 2016TIP3    H127539   2.106   6.013  13.991 -1.0482 -1.0877 -1.4918
 2016TIP3    H227540   2.056   5.956  14.122 -0.7444  1.4895 -0.2220
 2017TIP3   OH227541   1.086   4.958   4.186 -0.0654  0.2447  0.1976
 2017TIP3    H127542   1.088   4.913   4.102 -1.2047  0.4334  0.0653
 2017TIP3    H227543   1.101   4.889   4.250  0.2784  0.0191 -0.1228
 2018TIP3   OH227544   0.854   0.010   4.040 -0.1269 -0.3379 -0.0812
 2018TIP3    H127545   0.788   0.079   4.037 -1.1776 -1.3289 -0.3343
 2018TIP3    H227546   0.807  -0.069   4.013  1.0860 -1.1263  0.0689
 2019TIP3   OH227547   3.976   2.738  15.461 -0.3655  0.0942 -0.4733
 2019TIP3    H127548   3.955   2.726  15.368 -0.5507 -0.7957 -0.3179
 2019TIP3    H227549   4.025   2.660  15.485 -0.4520  0.2499  0.2210
 2020TIP3   OH227550   4.383   1.271  11.937  0.2498  0.2020 -0.0208
 2020TIP3    H127551   4.354   1.255  11.848  1.6249  2.9140 -1.0091
 2020TIP3    H227552   4.384   1.185  11.978  1.0207 -1.2939 -3.0598
 2021TIP3   OH227553   5.549   0.763  13.091 -0.2269  0.2605 -0.1858
 2021TIP3    H127554   5.500   0.693  13.047  0.6143  0.1571 -0.9781
 2021TIP3    H227555   5.508   0.772  13.177 -0.1898 -1.3782  0.0104
 2022TIP3   OH227556   2.443   5.040  15.068 -0.9016  0.4233 -0.4499
 2022TIP3    H127557   2.521   4.998  15.104 -1.5179  0.3167  0.8018
 2022TIP3    H227558   2.430   4.999  14.982 -0.5095 -0.7030  0.0252
 2023TIP3   OH227559   5.117   4.891   1.518  0.0032 -0.8758  0.2642
 2023TIP3    H127560   5.087   4.932   1.436  1.8136 -0.9554 -0.4548
 2023TIP3    H227561   5.036   4.863   1.561 -1.1076  0.9273 -0.5666
 2024TIP3   OH227562   4.115   1.977  11.695 -0.0154 -0.4592  0.1040
 2024TIP3    H127563   4.082   2.045  11.636  0.7778 -0.1878 -0.0243
 2024TIP3    H227564   4.210   1.977  11.682  0.3264  0.5212  2.3372
 2025TIP3   OH227565   5.381   5.322   0.120 -0.0629 -0.9317  0.4470
 2025TIP3    H127566   5.440   5.372   0.177  0.6864  0.6201 -1.6124
 2025TIP3    H227567   5.302   5.310   0.171  0.8568 -0.2146  2.0724
 2026TIP3   OH227568   0.952   1.947  15.666  0.1482 -0.3923  0.4337
 2026TIP3    H127569   0.871   1.937  15.616  1.4517 -0.8547 -1.6457
 2026TIP3    H227570   0.969   2.042  15.665  0.0283 -0.3726  0.2224
 2027TIP3   OH227571   6.429   5.353  13.648  0.2283 -0.0885 -0.6882
 2027TIP3    H127572   6.363   5.420  13.630  0.8651  0.3930 -1.2795
 2027TIP3    H227573   6.510   5.391  13.615  0.4489 -1.5108 -1.7959
 2028TIP3   OH227574   2.685   2.000  15.637  0.2344 -0.5801 -0.0790
 2028TIP3    H127575   2.702   1.993  15.543  0.2804 -0.1270 -0.1067
 2028TIP3    H227576   2.770   2.025  15.675 -1.1423  6.1214 -0.7243
 2029TIP3   OH227577   2.926   1.393  16.789  0.1260  0.1742  0.5116
 2029TIP3    H127578   2.930   1.307  16.830  0.1035  0.8936  2.0504
 2029TIP3    H227579   2.834   1.417  16.791  0.2073  0.4816  0.6161
 2030TIP3   OH227580   4.072   2.035   4.811  0.1323  0.1315 -0.0857
 2030TIP3    H127581   4.124   2.114   4.794  0.5090 -0.3954 -1.4408
 2030TIP3    H227582   4.037   2.011   4.726 -1.8471  0.1161  0.7153
 2031TIP3   OH227583   3.577   4.669  15.749  1.0398  0.6093 -0.1554
 2031TIP3    H127584   3.534   4.673  15.664  2.0150 -0.5377 -0.7188
 2031TIP3    H227585   3.585   4.760  15.777 -2.9712  0.8038  0.5995
 2032TIP3   OH227586   5.709   3.300  10.935 -0.7922  0.4986  0.0823
 2032TIP3    H127587   5.663   3.384  10.943  1.9360  1.9521  1.1965
 2032TIP3    H227588   5.694   3.274  10.844  1.2766  4.0372 -1.3876
 2033TIP3   OH227589   4.068   0.474   4.197 -0.0045 -0.0660  0.2395
 2033TIP3    H127590   4.143   0.426   4.164 -1.2599 -1.3322 -0.8636
 2033TIP3    H227591   4.016   0.494   4.119 -0.7222  0.9410  0.9608
 2034TIP3   OH227592   6.289   2.010  17.196  0.0101  0.1725 -0.5727
 2034TIP3    H127593   6.323   2.024  17.284  0.8466  0.5324 -0.9463
 2034TIP3    H227594   6.295   1.916  17.182 -1.7692 -0.1104  0.4064
 2035TIP3   OH227595   2.676   4.996  13.373  0.8216  0.2928  0.0266
 2035TIP3    H127596   2.680   4.951  13.289  0.7322 -1.2435  0.8136
 2035TIP3    H227597   2.702   4.929  13.437 -1.6036  0.6645  1.4824
 2036TIP3   OH227598   0.212   3.339  17.186 -0.0592 -0.8089  0.7351
 2036TIP3    H127599   0.269   3.346  17.109  2.3785 -0.3510  2.5026
 2036TIP3    H227600   0.272   3.322  17.258 -2.0737  0.8947  2.8893
 2037TIP3   OH227601   2.718   4.046  17.059 -0.4122 -0.3669 -0.4364
 2037TIP3    H127602   2.744   3.984  17.127  1.2312  2.0795  1.2449
 2037TIP3    H227603   2.622   4.052  17.068 -0.4606 -1.8131  0.0963
 2038TIP3   OH227604   1.457   2.525   1.672 -0.1185 -0.3731 -0.4952
 2038TIP3    H127605   1.374   2.570   1.689 -0.7530 -1.0111 -1.7902
 2038TIP3    H227606   1.523   2.594   1.670 -0.2683 -0.0835  2.7073
 2039TIP3   OH227607   4.064   0.405  15.768 -0.2485  0.2087  0.4293
 2039TIP3    H127608   4.152   0.376  15.745 -0.2956  0.3583  0.0570
 2039TIP3    H227609   4.035   0.343  15.835 -0.6433 -1.1132 -0.9300
 2040TIP3   OH227610   3.213   1.869  10.730  0.4387  0.3049  0.4171
 2040TIP3    H127611   3.250   1.932  10.668  0.2274  1.0775  1.0695
 2040TIP3    H227612   3.287   1.813  10.754  0.6185  0.2806 -0.1850
 2041TIP3   OH227613   3.747   3.781   3.143 -0.0571  0.1644 -0.5275
 2041TIP3    H127614   3.741   3.687   3.159  2.2810 -0.0526 -0.7502
 2041TIP3    H227615   3.673   3.801   3.085 -0.8928 -1.4129 -0.0343
 2042TIP3   OH227616   6.717   6.332  16.343  0.3394 -0.2893  0.0738
 2042TIP3    H127617   6.671   6.305  16.264 -0.9816 -1.5311  1.2487
 2042TIP3    H227618   6.703   6.260  16.405  1.8264  0.4122  1.2534
 2043TIP3   OH227619   5.401   4.010  15.494 -0.5309 -0.4870 -0.2760
 2043TIP3    H127620   5.398   4.088  15.438  1.4787 -1.1532 -1.3293
 2043TIP3    H227621   5.493   3.996  15.512 -1.0263 -1.4015  1.6780
 2044TIP3   OH227622   3.941   6.510  14.773 -0.3653 -0.3468 -0.4806
 2044TIP3    H127623   4.022   6.460  14.770  0.5664  1.1098  0.1005
 2044TIP3    H227624   3.876   6.453  14.731  1.0965 -1.2429 -1.5565
 2045TIP3   OH227625   0.491   3.054  12.640  0.1416  0.2163  0.0150
 2045TIP3    H127626   0.543   3.108  12.581 -0.3787  0.9870  0.2571
 2045TIP3    H227627   0.554   3.023  12.706  1.1331 -2.2056 -1.9768
 2046TIP3   OH227628   0.903   4.376  12.210  0.3679 -0.0071  0.0239
 2046TIP3    H127629   0.931   4.307  12.150  2.0489  0.6992 -0.0553
 2046TIP3    H227630   0.920   4.340  12.297 -0.3911 -0.3565  0.0240
 2047TIP3   OH227631   2.442   3.640  15.512  0.3830  0.2491  0.1044
 2047TIP3    H127632   2.480   3.723  15.483  0.6803 -0.1850 -0.7553
 2047TIP3    H227633   2.485   3.574  15.458 -2.2883 -0.1729 -1.5934
 2048TIP3   OH227634   6.314   2.980   5.479 -0.7096 -0.4441 -0.7540
 2048TIP3    H127635   6.364   3.046   5.431  1.3983  0.5941  2.6472
 2048TIP3    H227636   6.263   3.031   5.542  0.5692 -1.9727  1.6013
 2049TIP3   OH227637   2.192   3.499  14.424 -0.6594 -0.2316 -1.1960
 2049TIP3    H127638   2.190   3.595  14.431  1.3222 -0.2955  0.7158
 2049TIP3    H227639   2.101   3.473  14.439 -1.1445  1.3381 -1.2921
 2050TIP3   OH227640   2.038   4.650   2.642 -0.2417 -0.1898 -0.3719
 2050TIP3    H127641   2.017   4.743   2.635  1.1429  0.2256  0.8770
 2050TIP3    H227642   2.132   4.645   2.630  0.7070 -0.6621  5.5346
 2051TIP3   OH227643   0.839   0.530  12.051 -0.4119  0.0014  0.0839
 2051TIP3    H127644   0.762   0.473  12.060 -0.0307 -0.3777  0.9635
 2051TIP3    H227645   0.839   0.582  12.131  1.4535 -1.4633  1.0463
 2052TIP3   OH227646   0.698   5.499   2.213  0.0851 -0.5633  0.0520
 2052TIP3    H127647   0.769   5.483   2.276 -0.1608  0.3521  0.5673
 2052TIP3    H227648   0.673   5.591   2.228 -0.4697 -0.5606 -0.8781
 2053TIP3   OH227649   6.300   1.616   4.565 -0.0973  0.0249 -0.4436
 2053TIP3    H127650   6.352   1.659   4.633 -2.4427  1.4958  0.4500
 2053TIP3    H227651   6.359   1.610   4.490  0.8797  3.0536  0.0361
 2054TIP3   OH227652   2.513   5.795   6.906  0.4934  0.3117  0.5076
 2054TIP3    H127653   2.575   5.859   6.871  1.2735  0.4179  2.0418
 2054TIP3    H227654   2.427   5.832   6.887  0.9284  1.2885  0.4146
 2055TIP3   OH227655   2.655   2.229   0.369  0.0944 -0.0000 -0.1321
 2055TIP3    H127656   2.654   2.181   0.452  0.1725  1.1375  0.5355
 2055TIP3    H227657   2.724   2.295   0.380  0.6026 -0.2982 -1.3722
 2056TIP3   OH227658   1.608   3.345  12.638 -0.6840 -0.2218 -0.3859
 2056TIP3    H127659   1.656   3.289  12.578  1.4232  0.3244  0.7363
 2056TIP3    H227660   1.610   3.299  12.722 -2.8180 -0.5593 -0.4943
 2057TIP3   OH227661   5.997   2.193  14.787 -0.1241  0.1058 -0.0664
 2057TIP3    H127662   5.939   2.219  14.716  0.6259 -0.4482 -0.8846
 2057TIP3    H227663   5.964   2.107  14.814  0.7345 -0.5225 -0.9978
 2058TIP3   OH227664   2.088   5.996  11.242 -0.4445  0.0802  0.6990
 2058TIP3    H127665   1.998   5.969  11.261 -1.4327  2.8002  0.1054
 2058TIP3    H227666   2.088   6.014  11.148  0.8574 -0.3711  0.6092
 2059TIP3   OH227667   6.591   2.005   4.867 -0.1761  0.3839  0.4385
 2059TIP3    H127668   6.499   2.021   4.849  0.2304  2.6621  0.1767
 2059TIP3    H227669   6.598   1.910   4.877 -2.6415  0.2288  1.0461
 2060TIP3   OH227670   4.002   0.543  14.601  0.0336  0.2121 -0.1163
 2060TIP3    H127671   4.025   0.451  14.590 -0.8738 -0.1179  0.6475
 2060TIP3    H227672   3.986   0.575  14.511  2.9237  0.3586 -0.6387
 2061TIP3   OH227673   1.731   1.108   4.483 -0.2423 -0.1195  0.0124
 2061TIP3    H127674   1.821   1.135   4.466 -0.0525 -0.5536  0.3219
 2061TIP3    H227675   1.696   1.175   4.542  0.5828 -1.1365  1.6974
 2062TIP3   OH227676   5.713   5.210  14.032 -0.3019 -0.0024 -0.0719
 2062TIP3    H127677   5.679   5.179  13.948 -0.1459 -0.1922 -0.0661
 2062TIP3    H227678   5.659   5.286  14.053  0.5970  0.9476 -1.0832
 2063TIP3   OH227679   5.884   5.320   1.694 -0.1311 -0.1123 -0.5012
 2063TIP3    H127680   5.828   5.352   1.624  2.2017  1.5255 -1.6980
 2063TIP3    H227681   5.847   5.357   1.774 -1.3954 -0.0043 -1.1352
 2064TIP3   OH227682   5.858   6.545  11.881 -0.8182 -0.1194 -0.3398
 2064TIP3    H127683   5.776   6.500  11.901 -1.3255  0.4537 -1.0915
 2064TIP3    H227684   5.905   6.485  11.824  0.9247 -2.0465  2.9498
 2065TIP3   OH227685   2.497   3.646  14.364 -0.0994  0.0403 -0.4363
 2065TIP3    H127686   2.496   3.579  14.296  0.0795 -0.5767  0.1614
 2065TIP3    H227687   2.481   3.728  14.317  3.5237  0.1052 -1.7343
 2066TIP3   OH227688   3.775   5.676   1.295  0.1097  0.8431 -0.4727
 2066TIP3    H127689   3.814   5.763   1.298  1.2607  0.3392 -0.3809
 2066TIP3    H227690   3.799   5.642   1.208 -0.3403  0.6277 -0.5134
 2067TIP3   OH227691   1.410   6.183  15.195 -0.2231 -0.0098  0.1026
 2067TIP3    H127692   1.339   6.182  15.258  0.2276 -3.7351  0.6701
 2067TIP3    H227693   1.481   6.230  15.239 -0.9539  0.1659  1.1082
 2068TIP3   OH227694   4.865   5.461  13.273  0.0397 -0.5237 -0.5278
 2068TIP3    H127695   4.850   5.555  13.274 -1.6340 -0.7649 -1.4588
 2068TIP3    H227696   4.857   5.435  13.365  1.2844  0.3407 -0.1633
 2069TIP3   OH227697   0.920   6.119   0.358  0.1697  0.2459 -0.2537
 2069TIP3    H127698   0.956   6.073   0.434 -2.5341 -0.8945  0.4290
 2069TIP3    H227699   0.868   6.053   0.312 -0.5398  1.6359 -1.5146
 2070TIP3   OH227700   2.906   2.318   5.123  0.3957  0.1690  0.3115
 2070TIP3    H127701   2.937   2.276   5.042  0.6906  1.2231 -0.1290
 2070TIP3    H227702   2.819   2.281   5.137  0.4549 -0.2256 -0.3353
 2071TIP3   OH227703   6.338   5.792  15.856  0.0575 -0.3052 -0.3650
 2071TIP3    H127704   6.266   5.855  15.850  2.3752  2.4843  0.1724
 2071TIP3    H227705   6.323   5.747  15.939 -0.6903  0.6977  0.0540
 2072TIP3   OH227706   6.750   2.447   3.159  0.2876  0.1468 -0.2967
 2072TIP3    H127707   6.746   2.381   3.229  2.0521  0.5901  0.2290
 2072TIP3    H227708   6.793   2.402   3.087 -0.3988  0.0836 -0.6698
 2073TIP3   OH227709   6.382   2.696   0.523 -0.3080 -0.4710 -0.4299
 2073TIP3    H127710   6.361   2.619   0.575 -0.3635 -0.4229 -0.3816
 2073TIP3    H227711   6.403   2.763   0.587  0.6552 -0.7075 -0.4895
 2074TIP3   OH227712   4.649   4.507  16.213  0.2913 -0.7323 -0.2583
 2074TIP3    H127713   4.654   4.597  16.247  2.0127 -0.2253 -1.7808
 2074TIP3    H227714   4.700   4.455  16.276 -0.5876 -0.6237  0.5487
 2075TIP3   OH227715   2.491   6.275  16.121 -0.1252 -0.1938  0.5465
 2075TIP3    H127716   2.486   6.299  16.214 -0.1844 -3.4155  1.4391
 2075TIP3    H227717   2.568   6.218  16.116  1.2111  1.7268 -1.8498
 2076TIP3   OH227718   0.411   1.927   3.421  0.0948  0.3587 -0.2635
 2076TIP3    H127719   0.457   1.843   3.418 -2.2815 -0.9920 -0.3253
 2076TIP3    H227720   0.403   1.947   3.514 -0.7919 -0.3370 -0.1825
 2077TIP3   OH227721   4.596   3.896   4.162 -0.0356 -0.0807 -0.2118
 2077TIP3    H127722   4.508   3.916   4.129 -0.6826 -0.2565  1.3413
 2077TIP3    H227723   4.630   3.831   4.101  0.1435  2.0610 -2.4709
 2078TIP3   OH227724   0.947   3.031  16.372 -0.3317  0.2184  0.1267
 2078TIP3    H127725   0.923   2.938  16.369 -1.7148  0.5581  0.5093
 2078TIP3    H227726   0.957   3.056  16.280 -1.3670  0.0424 -0.0418
 2079TIP3   OH227727   6.362   6.039   4.122  0.0066 -0.2637 -0.1750
 2079TIP3    H127728   6.424   5.981   4.079  0.8924  0.8686 -0.4526
 2079TIP3    H227729   6.415   6.089   4.185 -0.5118  1.0575 -0.7557
 2080TIP3   OH227730   2.291   4.698  16.564  0.4885  0.2853 -0.0896
 2080TIP3    H127731   2.382   4.690  16.593  1.0889 -0.6426 -2.1398
 2080TIP3    H227732   2.273   4.792  16.569  0.8798  0.2747  2.2331
 2081TIP3   OH227733   1.838   5.137   5.336  0.2063 -0.0736  0.1533
 2081TIP3    H127734   1.863   5.127   5.427  1.2807 -1.8314 -0.3016
 2081TIP3    H227735   1.918   5.164   5.291 -0.3653  1.0017 -0.2459
 2082TIP3   OH227736   1.421   4.977  16.877 -0.1050 -0.4659  0.2214
 2082TIP3    H127737   1.399   4.951  16.787 -0.0277 -2.2666  0.6910
 2082TIP3    H227738   1.338   4.976  16.923  0.1412 -1.7948  0.6807
 2083TIP3   OH227739   6.814   4.544   4.529 -0.3533 -0.2686  0.5731
 2083TIP3    H127740   6.881   4.574   4.467 -0.4050  0.3547  0.8118
 2083TIP3    H227741   6.798   4.620   4.585 -0.0939 -0.9169  1.5419
 2084TIP3   OH227742   4.538   1.881   2.506  0.0347 -0.1774  0.0949
 2084TIP3    H127743   4.572   1.868   2.595 -1.8223  0.6635  0.9749
 2084TIP3    H227744   4.593   1.827   2.450  0.5281 -1.6033  1.9172
 2085TIP3   OH227745   0.030   2.956   5.359  0.2021 -0.1877  0.4082
 2085TIP3    H127746   0.037   3.012   5.436  1.3961  2.0862 -1.3021
 2085TIP3    H227747  -0.056   2.978   5.321  0.0102 -0.6496  0.5634
 2086TIP3   OH227748   3.448   4.433  14.887  0.2359 -0.0403 -0.9956
 2086TIP3    H127749   3.456   4.413  14.794 -1.1120  2.9317 -1.8166
 2086TIP3    H227750   3.355   4.420  14.906  0.1179  1.3928 -0.5793
 2087TIP3   OH227751   2.095   1.098   0.596 -0.0155  0.0878  0.3788
 2087TIP3    H127752   2.079   1.172   0.537 -0.5002 -1.3055 -1.2777
 2087TIP3    H227753   2.052   1.124   0.678 -1.5939  0.9617 -0.6872
 2088TIP3   OH227754   2.393   5.492  11.633 -0.1345 -0.1288  0.7802
 2088TIP3    H127755   2.370   5.476  11.541  0.3227  1.5165  0.3612
 2088TIP3    H227756   2.317   5.463  11.683 -0.9567  0.2843 -0.2211
 2089TIP3   OH227757   3.624   2.290  12.113 -0.6432  0.1284 -0.3328
 2089TIP3    H127758   3.701   2.254  12.158 -0.8598 -0.4974 -0.4550
 2089TIP3    H227759   3.660   2.351  12.049 -0.2077 -0.5718 -0.7709
 2090TIP3   OH227760   4.147   5.738  17.181 -0.0910  0.4241  0.3998
 2090TIP3    H127761   4.242   5.750  17.188  0.0681 -0.4599 -0.0554
 2090TIP3    H227762   4.116   5.817  17.138  0.4342  0.7516  0.6157
 2091TIP3   OH227763   1.747   4.971  11.590  0.4913 -0.5156  0.1902
 2091TIP3    H127764   1.679   4.962  11.656 -0.1692 -0.0423 -0.4171
 2091TIP3    H227765   1.721   4.910  11.521 -0.3924  1.0900 -0.9340
 2092TIP3   OH227766   2.859   4.082   2.234  0.0989 -0.3036 -0.0210
 2092TIP3    H127767   2.897   4.083   2.146 -0.2138  2.6918 -0.1736
 2092TIP3    H227768   2.895   4.161   2.276  0.0805 -1.5901  2.4737
 2093TIP3   OH227769   4.268   0.839  16.632  0.0251  0.1529  0.2218
 2093TIP3    H127770   4.337   0.772  16.630  0.6360  0.8135 -1.8756
 2093TIP3    H227771   4.263   0.871  16.542 -2.4790  0.6903  0.5253
 2094TIP3   OH227772   6.599   4.409  15.317 -0.4500 -0.2396  0.2537
 2094TIP3    H127773   6.584   4.486  15.372 -0.9471  0.2136 -0.5078
 2094TIP3    H227774   6.612   4.444  15.229 -0.1170 -0.9918 -0.0009
 2095TIP3   OH227775   5.336   3.147  16.229 -0.0185  0.4811 -0.0294
 2095TIP3    H127776   5.346   3.241  16.217 -0.5342  0.1701 -3.3328
 2095TIP3    H227777   5.409   3.108  16.181 -0.7145 -0.8515 -0.0487
 2096TIP3   OH227778   3.757   4.520   3.798  1.1470  0.2453 -0.1232
 2096TIP3    H127779   3.808   4.440   3.814  0.3199 -0.0135  1.2662
 2096TIP3    H227780   3.670   4.489   3.774  0.3337  0.6934  2.0606
 2097TIP3   OH227781   1.618   0.555  13.885  0.4684  0.5930 -0.5866
 2097TIP3    H127782   1.649   0.520  13.801  2.3581  2.3892 -0.6648
 2097TIP3    H227783   1.599   0.477  13.937  0.9709 -0.5581 -2.0680
 2098TIP3   OH227784   3.314   3.875  11.232 -0.2174 -0.4099  0.5965
 2098TIP3    H127785   3.241   3.885  11.171 -0.6391  1.5415  1.3589
 2098TIP3    H227786   3.337   3.965  11.256  2.3667 -1.0022  0.4642
 2099TIP3   OH227787   3.843   2.795  16.880 -0.0434  0.3581  0.4304
 2099TIP3    H127788   3.779   2.807  16.810 -0.8826  0.3434  1.1960
 2099TIP3    H227789   3.928   2.806  16.836 -0.5867  1.5545 -0.3654
 2100TIP3   OH227790   2.060   2.136   6.125 -0.1100  0.0655  0.2484
 2100TIP3    H127791   1.968   2.146   6.103  0.1722 -1.0443 -1.4693
 2100TIP3    H227792   2.079   2.044   6.111  1.5224  0.4797 -0.3801
 2101TIP3   OH227793   6.329   1.749   4.806  0.0274 -0.2326 -0.1722
 2101TIP3    H127794   6.341   1.836   4.844 -1.4762  0.6800 -1.7059
 2101TIP3    H227795   6.302   1.694   4.879 -1.5911  1.2121  0.3517
 2102TIP3   OH227796   4.837   6.733  17.195  0.1282  0.4685  0.3788
 2102TIP3    H127797   4.799   6.743  17.282  2.6023 -2.1579  1.8338
 2102TIP3    H227798   4.905   6.801  17.190 -0.4196  1.0103  0.2454
 2103TIP3   OH227799   0.240   5.384   0.405  0.0591 -0.5073 -0.0537
 2103TIP3    H127800   0.244   5.300   0.359 -0.3725 -1.4442  1.5457
 2103TIP3    H227801   0.307   5.438   0.364 -0.2576 -1.3448 -1.6801
 2104TIP3   OH227802   2.515   3.394   2.575 -0.0222 -0.2369  0.0339
 2104TIP3    H127803   2.567   3.475   2.581 -0.7569  0.4290 -2.1119
 2104TIP3    H227804   2.426   3.424   2.558 -1.3505 -1.3550  4.4481
 2105TIP3   OH227805   6.273   4.575   5.224  0.5540  0.0289 -0.7622
 2105TIP3    H127806   6.314   4.661   5.227 -0.2517  0.3699  1.2479
 2105TIP3    H227807   6.291   4.537   5.310 -0.8353 -0.9814 -0.9010
 2106TIP3   OH227808   4.988   3.147   3.103  0.5159  0.3289  0.0794
 2106TIP3    H127809   5.068   3.176   3.147  0.1928 -0.8073  1.4786
 2106TIP3    H227810   4.919   3.200   3.143  0.1322 -1.1948  1.4670
 2107TIP3   OH227811   0.543   2.461   3.998 -0.0134 -0.0808  0.0593
 2107TIP3    H127812   0.638   2.462   4.004  0.0553 -4.2077  1.3598
 2107TIP3    H227813   0.513   2.487   4.085 -0.0844  0.4353 -0.1160
 2108TIP3   OH227814   4.256   5.688   4.327 -0.1402  0.3859  0.2229
 2108TIP3    H127815   4.194   5.703   4.255 -2.3546  2.0545  2.3972
 2108TIP3    H227816   4.201   5.664   4.401  1.8954  1.1882  2.0483
 2109TIP3   OH227817   6.764   0.110  16.001  0.3221 -0.0421 -0.2410
 2109TIP3    H127818   6.764   0.019  16.030 -0.9937 -0.2838 -0.9599
 2109TIP3    H227819   6.835   0.116  15.938  0.2132 -0.6461 -0.4190
 2110TIP3   OH227820   4.909   4.803   2.692  0.1871  0.1903 -0.0059
 2110TIP3    H127821   4.987   4.834   2.647 -0.1424  0.9309 -0.0654
 2110TIP3    H227822   4.888   4.720   2.648 -0.1748  0.9428 -1.2759
 2111TIP3   OH227823   0.921   3.158   4.932  0.0838 -0.0446  0.0291
 2111TIP3    H127824   0.904   3.155   5.026 -1.5487  2.8975 -0.1020
 2111TIP3    H227825   0.997   3.102   4.919  0.9002  0.2416  3.2395
 2112TIP3   OH227826   3.952   4.071  11.971  0.0446 -0.2434  0.6146
 2112TIP3    H127827   3.981   3.982  11.953  0.7799  0.2084 -0.4861
 2112TIP3    H227828   3.909   4.099  11.890 -0.8647  0.1331  1.2200
 2113TIP3   OH227829   6.582   6.724   2.326 -0.0163 -0.1484 -0.0719
 2113TIP3    H127830   6.549   6.673   2.400  0.6503  0.8055  0.8731
 2113TIP3    H227831   6.503   6.745   2.275 -0.5653 -0.1210  0.7796
 2114TIP3   OH227832   2.784   5.981   1.360 -0.7085  0.6337 -0.0392
 2114TIP3    H127833   2.860   6.021   1.402 -1.5745  0.9313  1.2870
 2114TIP3    H227834   2.772   6.030   1.279  0.7987  0.2607 -0.5088
 2115TIP3   OH227835   6.540   2.873  14.673 -0.4310  0.0216 -0.4000
 2115TIP3    H127836   6.547   2.781  14.697  0.2728  0.2143  0.1481
 2115TIP3    H227837   6.550   2.874  14.577 -1.5298 -0.5773 -0.5189
 2116TIP3   OH227838   5.205   5.848   4.347 -0.1500 -0.6356 -0.2928
 2116TIP3    H127839   5.179   5.814   4.262 -0.5197 -1.2646  0.0682
 2116TIP3    H227840   5.245   5.933   4.328 -1.1202 -0.3263 -1.0076
 2117TIP3   OH227841   1.803   1.610  17.076 -0.1662  0.0357 -0.1809
 2117TIP3    H127842   1.712   1.592  17.101 -0.1411 -0.2741 -0.3096
 2117TIP3    H227843   1.821   1.548  17.006  0.0064  0.3998 -0.4572
 2118TIP3   OH227844   2.565   1.012  16.401  0.1949  0.6821 -0.2985
 2118TIP3    H127845   2.471   1.017  16.416  0.0970 -0.0797 -0.6397
 2118TIP3    H227846   2.602   1.081  16.457 -0.5586  0.9718 -0.1545
 2119TIP3   OH227847   5.492   6.655  14.435  0.7393  0.1526 -0.0781
 2119TIP3    H127848   5.442   6.736  14.447  2.1890  0.9358  0.8119
 2119TIP3    H227849   5.440   6.588  14.480 -0.1290  0.7138 -0.2355
 2120TIP3   OH227850   0.530   3.709  13.629 -0.1862  0.2653  0.1247
 2120TIP3    H127851   0.615   3.752  13.640 -0.0042  0.2659 -1.1904
 2120TIP3    H227852   0.493   3.707  13.717  0.0502  2.6339  0.3128
 2121TIP3   OH227853   0.529   2.232  12.293  0.2103  0.5898  0.2152
 2121TIP3    H127854   0.530   2.324  12.268 -2.0251  0.4763 -0.4261
 2121TIP3    H227855   0.606   2.195  12.249 -0.8188  1.4597 -2.4774
 2122TIP3   OH227856   5.814   5.046  14.278 -0.3504 -0.2680 -0.4784
 2122TIP3    H127857   5.723   5.072  14.265  0.0530  0.6847 -1.5679
 2122TIP3    H227858   5.822   4.962  14.234 -1.2772 -1.5008  1.6737
 2123TIP3   OH227859   1.566   0.255  14.673  0.2125 -0.0677  0.2340
 2123TIP3    H127860   1.601   0.273  14.760  0.6360  1.3985 -0.2181
 2123TIP3    H227861   1.473   0.235  14.689  0.7151 -1.7092  1.1973
 2124TIP3   OH227862   4.944   1.541  10.692 -1.5379 -0.0610  0.1143
 2124TIP3    H127863   4.880   1.572  10.629 -0.9845 -0.5641 -0.6992
 2124TIP3    H227864   4.948   1.611  10.758  1.3858  2.7458 -2.8732
 2125TIP3   OH227865   5.342   5.052  12.171  0.0908 -0.1438 -0.2406
 2125TIP3    H127866   5.291   4.977  12.140 -1.3399  1.5425 -2.1380
 2125TIP3    H227867   5.322   5.122  12.108  1.6738  1.7185  1.2615
 2126TIP3   OH227868   5.416   6.220  10.056 -0.5389 -0.1556  0.5485
 2126TIP3    H127869   5.398   6.314  10.052  1.1761  0.1417 -1.9468
 2126TIP3    H227870   5.350   6.185  10.115 -1.2178  2.6110  1.5229
 2127TIP3   OH227871   6.795   5.678  14.843  0.3705  0.1478  1.0933
 2127TIP3    H127872   6.845   5.745  14.890  2.7802  1.2101 -2.7915
 2127TIP3    H227873   6.711   5.719  14.824  1.5426  1.8223 -0.5586
 2128TIP3   OH227874   2.094   1.913   5.269 -0.0215  0.6709  0.0951
 2128TIP3    H127875   2.090   1.824   5.304  0.5411  0.0124 -1.4735
 2128TIP3    H227876   2.015   1.921   5.216  0.8033  0.4810 -1.1828
 2129TIP3   OH227877   2.185   2.468   5.358 -0.0819  0.7348 -0.6719
 2129TIP3    H127878   2.134   2.423   5.425 -0.2371 -0.3900 -1.5419
 2129TIP3    H227879   2.123   2.529   5.317 -0.0328  1.2929  0.0629
 2130TIP3   OH227880   3.583   0.568   6.509  0.1700 -0.3947  0.3360
 2130TIP3    H127881   3.539   0.618   6.441 -0.5288 -2.5826 -0.8552
 2130TIP3    H227882   3.520   0.501   6.535  1.3123 -1.0756  1.4495
 2131TIP3   OH227883   4.259   3.377  10.793 -0.0736 -0.2804  0.2245
 2131TIP3    H127884   4.261   3.436  10.868 -2.1491  1.3699 -0.9774
 2131TIP3    H227885   4.262   3.434  10.717 -1.1696 -1.7577 -0.9562
 2132TIP3   OH227886   4.067   2.573   3.231  0.8303  0.1630 -0.2616
 2132TIP3    H127887   4.041   2.653   3.278 -0.5664  0.4378 -1.4605
 2132TIP3    H227888   4.059   2.596   3.139 -0.4123 -1.6084 -0.6284
 2133TIP3   OH227889   2.431   4.159   6.147 -0.0466 -0.2691  0.6688
 2133TIP3    H127890   2.475   4.146   6.231 -0.5631 -0.4017  0.9207
 2133TIP3    H227891   2.418   4.071   6.112  2.2212 -0.1185 -0.6256
 2134TIP3   OH227892   5.282   2.759  15.375 -0.0023 -0.0734 -0.6917
 2134TIP3    H127893   5.308   2.710  15.296 -0.3789  1.0366 -1.5248
 2134TIP3    H227894   5.188   2.769  15.367  0.0389  0.5693 -0.4044
 2135TIP3   OH227895   5.850   0.939  10.753 -0.1178  0.4564 -0.2037
 2135TIP3    H127896   5.840   0.941  10.657  3.5048  0.0247 -0.6483
 2135TIP3    H227897   5.938   0.974  10.769  0.4092 -2.0285  2.7876
 2136TIP3   OH227898   3.705   2.317   1.746 -0.0039  0.4613  0.2492
 2136TIP3    H127899   3.718   2.312   1.841  0.6687 -0.2515  0.1202
 2136TIP3    H227900   3.729   2.231   1.714 -0.8761  0.4918 -0.5052
 2137TIP3   OH227901   3.327   3.346   4.787 -0.0950 -0.2867  0.0872
 2137TIP3    H127902   3.412   3.364   4.745 -0.5274  0.5790 -0.4301
 2137TIP3    H227903   3.350   3.323   4.877  0.7227 -0.4895 -0.1616
 2138TIP3   OH227904   2.288   6.106   2.539  0.1378 -0.4138  0.4274
 2138TIP3    H127905   2.233   6.028   2.549  0.2257 -0.4357  0.7425
 2138TIP3    H227906   2.377   6.072   2.531  0.1754 -0.3472  0.5553
 2139TIP3   OH227907   0.201   6.726  12.266  0.1516  0.0033  0.1281
 2139TIP3    H127908   0.191   6.818  12.241 -0.5788 -0.2074 -0.3834
 2139TIP3    H227909   0.233   6.683  12.187  1.5486  0.0010  0.6815
 2140TIP3   OH227910   0.783   3.944   0.434  0.4643  0.2752  0.1465
 2140TIP3    H127911   0.800   4.023   0.383  0.5038 -0.4877 -1.0647
 2140TIP3    H227912   0.692   3.921   0.414 -0.0086  0.8303  1.6443
 2141TIP3   OH227913   0.458   5.293   1.739 -0.4549 -0.2104  0.3002
 2141TIP3    H127914   0.407   5.214   1.755 -1.5490 -0.0513 -2.1628
 2141TIP3    H227915   0.398   5.351   1.692  1.9481 -0.0789 -2.7925
 2142TIP3   OH227916   4.385   0.701   5.000  0.0330 -0.0424  0.2988
 2142TIP3    H127917   4.466   0.652   5.011 -1.1263 -3.1429 -3.8301
 2142TIP3    H227918   4.326   0.665   5.066  0.7491 -0.6264  0.6249
 2143TIP3   OH227919   0.845   5.440   2.441  0.2943  0.8480  0.0818
 2143TIP3    H127920   0.907   5.367   2.446 -0.3860  0.2064 -0.6565
 2143TIP3    H227921   0.800   5.439   2.525  1.2880  1.3369  0.6372
 2144TIP3   OH227922   1.188   2.390   5.125 -0.0326 -0.2245  0.2470
 2144TIP3    H127923   1.276   2.394   5.089  0.5016 -2.2754  1.2351
 2144TIP3    H227924   1.141   2.330   5.067 -0.9601  1.2704 -0.5880
 2145TIP3   OH227925   4.671   5.890   0.648 -0.7208 -0.0122 -0.1073
 2145TIP3    H127926   4.739   5.854   0.706 -0.9060 -1.9577 -1.0674
 2145TIP3    H227927   4.709   5.971   0.614  0.1701  0.1361  1.2083
 2146TIP3   OH227928   0.768   6.468   3.523 -0.8292 -0.5263  0.1150
 2146TIP3    H127929   0.810   6.530   3.463 -2.0042  2.1802  1.9879
 2146TIP3    H227930   0.706   6.420   3.468 -0.4377  0.4878 -1.2506
 2147TIP3   OH227931   2.068   6.494   2.516  0.0405 -0.1271 -0.3284
 2147TIP3    H127932   2.022   6.418   2.481 -0.6058  0.5137 -0.9016
 2147TIP3    H227933   2.158   6.465   2.527  0.2183 -0.4033 -2.3826
 2148TIP3   OH227934   5.190   5.012  11.694  0.8493  0.4476 -0.0090
 2148TIP3    H127935   5.192   5.072  11.619 -0.3833  2.2908  1.3743
 2148TIP3    H227936   5.282   4.997  11.715  1.1818  2.0515 -0.2459
 2149TIP3   OH227937   3.301   4.032   0.997 -0.4370  0.5523  0.2137
 2149TIP3    H127938   3.240   3.975   1.044 -1.7351  1.8624  0.1433
 2149TIP3    H227939   3.329   3.980   0.921 -1.2136 -0.1792  0.4238
 2150TIP3   OH227940   5.672   2.419  11.499  0.6974 -0.3244  0.5575
 2150TIP3    H127941   5.650   2.512  11.506  1.6762 -0.2021  2.2789
 2150TIP3    H227942   5.628   2.390  11.419 -0.3247  1.4139  0.4612
 2151TIP3   OH227943   4.683   4.059   6.399  0.3447  0.0068 -0.7856
 2151TIP3    H127944   4.619   4.012   6.345 -0.7381  0.9491 -0.3497
 2151TIP3    H227945   4.689   4.145   6.358  0.4118  0.3285 -0.1036
 2152TIP3   OH227946   1.483   2.944   1.486 -0.1940 -0.0807  0.2989
 2152TIP3    H127947   1.479   3.039   1.501 -0.0491 -0.0516  0.1504
 2152TIP3    H227948   1.392   2.918   1.477 -0.1539  0.3174 -1.3739
 2153TIP3   OH227949   2.408   5.587   0.129 -0.7286 -0.0085 -0.1291
 2153TIP3    H127950   2.351   5.645   0.180  1.0219  0.7935  0.9867
 2153TIP3    H227951   2.350   5.521   0.092 -2.3848  0.8918  0.8384
 2154TIP3   OH227952   0.710   1.774  12.516 -0.4644  1.0718 -0.3042
 2154TIP3    H127953   0.645   1.844  12.520  1.2721  2.8246 -1.7197
 2154TIP3    H227954   0.697   1.734  12.431  0.1519  1.2991 -0.5097
 2155TIP3   OH227955   5.591   2.181   3.708  0.0695  0.1348  0.2714
 2155TIP3    H127956   5.637   2.230   3.777 -0.2080 -0.0657  0.6052
 2155TIP3    H227957   5.655   2.173   3.638  0.6084 -0.2824  0.7963
 2156TIP3   OH227958   0.927   6.440  10.449 -0.1485 -0.2627 -0.0778
 2156TIP3    H127959   0.999   6.470  10.505  0.1244  0.1722 -0.6491
 2156TIP3    H227960   0.861   6.406  10.510 -0.9068  2.4148  0.6919
 2157TIP3   OH227961   2.748   6.261   5.006  0.3036  0.1270 -0.0272
 2157TIP3    H127962   2.811   6.309   4.952 -0.1340 -0.5483 -1.1772
 2157TIP3    H227963   2.664   6.277   4.963  0.1653 -1.7059 -0.4685
 2158TIP3   OH227964   6.235   6.328  15.234  0.0139  0.5965 -0.1008
 2158TIP3    H127965   6.183   6.303  15.157  0.4951 -0.7858  0.0211
 2158TIP3    H227966   6.320   6.287  15.220 -0.0062  0.0438  1.3379
 2159TIP3   OH227967   0.439   1.209   2.907 -1.0710  0.2644  0.2549
 2159TIP3    H127968   0.470   1.296   2.932  1.0042  0.5647 -3.0316
 2159TIP3    H227969   0.499   1.149   2.952  0.9570  0.7267 -1.7302
 2160TIP3   OH227970   2.714   5.990  11.506 -0.5364  0.0916  0.3852
 2160TIP3    H127971   2.702   6.024  11.418 -0.3164  0.4968  0.5137
 2160TIP3    H227972   2.809   5.982  11.517 -0.5865 -0.8010  0.2621
 2161TIP3   OH227973   4.412   6.273  15.204 -0.3706 -0.2324  0.4313
 2161TIP3    H127974   4.492   6.266  15.255 -0.1892  0.9482  0.3156
 2161TIP3    H227975   4.375   6.184  15.205  0.4458 -0.5682  1.2692
 2162TIP3   OH227976   1.497   5.467   1.134 -0.2005  0.0183 -0.2078
 2162TIP3    H127977   1.488   5.448   1.040 -3.2840  1.3412 -0.2451
 2162TIP3    H227978   1.544   5.550   1.137 -0.2878  0.0849 -0.6058
 2163TIP3   OH227979   0.217   1.274   0.846 -0.2754  0.3779 -0.1368
 2163TIP3    H127980   0.208   1.311   0.933  1.4769 -2.1020  1.1481
 2163TIP3    H227981   0.155   1.200   0.844  1.1392 -0.8319 -0.2303
 2164TIP3   OH227982   4.791   3.301  12.883  0.1013 -0.3204 -0.2575
 2164TIP3    H127983   4.739   3.240  12.936  0.4692  0.1618  0.6703
 2164TIP3    H227984   4.876   3.258  12.874 -0.2595 -0.8330 -1.2637
 2165TIP3   OH227985   2.614   3.626  13.605 -0.4783  0.5653  0.0784
 2165TIP3    H127986   2.687   3.658  13.553 -1.6560  0.6337 -1.5735
 2165TIP3    H227987   2.638   3.537  13.629  0.8161  1.1187  0.8579
 2166TIP3   OH227988   4.227   0.642  13.213 -0.3294 -0.7235  0.0714
 2166TIP3    H127989   4.304   0.589  13.232  0.2091 -0.1043 -0.4003
 2166TIP3    H227990   4.166   0.581  13.171 -0.1070 -1.2131  0.4516
 2167TIP3   OH227991   5.807   0.535   1.226 -0.2103 -0.1338 -0.4416
 2167TIP3    H127992   5.847   0.461   1.180  3.0303  1.8660 -1.0153
 2167TIP3    H227993   5.743   0.495   1.285  1.2477 -3.3717 -0.9347
 2168TIP3   OH227994   1.335   3.727  14.684  0.5961  0.0443 -0.0580
 2168TIP3    H127995   1.345   3.710  14.590  0.3028 -0.7708  0.0537
 2168TIP3    H227996   1.302   3.645  14.719 -1.6802  1.0981  0.3635
 2169TIP3   OH227997   3.924   2.487  11.594  0.1820  0.6015  0.0616
 2169TIP3    H127998   3.895   2.573  11.625 -3.9293 -0.6294 -0.1711
 2169TIP3    H227999   3.930   2.497  11.499 -2.3981  0.0703 -0.1775
 2170TIP3   OH228000   2.051   2.078   3.893  0.4450  0.0871 -0.3205
 2170TIP3    H128001   1.983   2.145   3.898 -0.5459 -0.8664 -0.7619
 2170TIP3    H228002   2.125   2.115   3.940 -0.3974  1.1233  0.2054
 2171TIP3   OH228003   3.385   5.798  14.745 -0.1417  0.3735  0.1055
 2171TIP3    H128004   3.390   5.851  14.666 -1.0336 -0.2168 -0.3555
 2171TIP3    H228005   3.292   5.791  14.764 -0.0488 -1.1067  0.1030
 2172TIP3   OH228006   0.199   1.314   5.487 -0.5634 -0.5307 -0.0612
 2172TIP3    H128007   0.234   1.238   5.440  2.2361  0.1281  0.9256
 2172TIP3    H228008   0.132   1.277   5.545  0.8805 -2.2738  0.5285
 2173TIP3   OH228009   0.373   4.183  13.823 -0.0240  0.4358  0.3436
 2173TIP3    H128010   0.430   4.134  13.883  1.4858  0.4233 -1.0671
 2173TIP3    H228011   0.302   4.122  13.804  0.8334 -0.5238  0.1284
 2174TIP3   OH228012   5.440   1.499   5.937  0.8599 -0.1501  0.8479
 2174TIP3    H128013   5.449   1.483   5.843 -1.3410 -0.6195  0.6845
 2174TIP3    H228014   5.448   1.413   5.977  0.5498 -0.1127  0.9868
 2175TIP3   OH228015   2.405   0.155   2.013  0.5250 -0.2883  0.2046
 2175TIP3    H128016   2.368   0.068   1.995  0.8878 -0.2558 -0.7427
 2175TIP3    H228017   2.373   0.209   1.941  0.8114  0.2135  0.4590
 2176TIP3   OH228018   0.083   5.961   0.696  0.2634 -0.5482  0.4473
 2176TIP3    H128019   0.033   5.886   0.727  0.3654 -0.2870  1.2475
 2176TIP3    H228020   0.056   6.033   0.754  1.0475 -0.2447  0.4353
 2177TIP3   OH228021   0.462   2.588  15.851 -0.6364  0.2788 -0.1240
 2177TIP3    H128022   0.522   2.538  15.795 -0.0508 -0.5749  1.2310
 2177TIP3    H228023   0.386   2.531  15.860 -0.5464  0.2250  0.2998
 2178TIP3   OH228024   2.218   3.937  15.141  0.1485  0.3993  0.4036
 2178TIP3    H128025   2.134   3.959  15.099 -0.0610  1.4651  1.3551
 2178TIP3    H228026   2.264   3.884  15.075  0.0058  2.4004 -1.3666
 2179TIP3   OH228027   2.476   1.154   1.642  0.8429 -0.2097 -0.3452
 2179TIP3    H128028   2.481   1.115   1.555  0.0441  0.6510 -0.7723
 2179TIP3    H228029   2.388   1.134   1.673  0.4621  1.1362 -0.5175
 2180TIP3   OH228030   6.717   5.075  16.226 -0.4662 -0.0712  0.4412
 2180TIP3    H128031   6.760   5.149  16.183 -0.2135  0.8008  2.1559
 2180TIP3    H228032   6.637   5.060  16.175 -0.5517  1.4243  0.1204
 2181TIP3   OH228033   6.201   3.761   0.216  0.1925  0.0519 -0.1927
 2181TIP3    H128034   6.143   3.745   0.291  0.7558  1.4719  0.5513
 2181TIP3    H228035   6.180   3.850   0.187 -0.5344 -0.7367 -2.1952
 2182TIP3   OH228036   4.072   0.503  16.429  0.3454  0.5193 -0.5859
 2182TIP3    H128037   4.026   0.552  16.361 -0.9279  0.0289 -0.0955
 2182TIP3    H228038   4.006   0.442  16.462  0.8537  0.9956  1.3266
 2183TIP3   OH228039   2.300   6.712   0.539 -0.0879 -0.4868  0.1771
 2183TIP3    H128040   2.248   6.785   0.572  0.9658  0.4234 -0.1349
 2183TIP3    H228041   2.308   6.730   0.445  1.1989 -0.3372  0.3014
 2184TIP3   OH228042   1.394   2.879   4.101  0.1287 -0.1612 -0.0703
 2184TIP3    H128043   1.475   2.914   4.139 -1.0267  2.6604 -0.1376
 2184TIP3    H228044   1.403   2.895   4.007 -0.5934  0.2861 -0.0574
 2185TIP3   OH228045   3.355   4.988   5.136 -0.1168  0.0002 -0.2681
 2185TIP3    H128046   3.370   4.894   5.139  0.1345  0.0616  0.5790
 2185TIP3    H228047   3.426   5.022   5.082  0.6834 -0.1280  0.6865
 2186TIP3   OH228048   5.677   1.053   1.905  0.6733 -0.4905 -0.5259
 2186TIP3    H128049   5.747   1.018   1.850  0.8900 -1.1756  0.1651
 2186TIP3    H228050   5.715   1.056   1.993  0.3861  0.7357 -0.4401
 2187TIP3   OH228051   3.746   2.246   4.366  0.1531 -0.1544 -0.2201
 2187TIP3    H128052   3.759   2.242   4.271  0.5302  0.3434 -0.1914
 2187TIP3    H228053   3.826   2.286   4.400 -0.3988  0.6051  0.2081
 2188TIP3   OH228054   3.066   0.868   0.792 -0.1270  0.2117  0.0425
 2188TIP3    H128055   3.129   0.928   0.753  0.1670  0.1570  0.4332
 2188TIP3    H228056   3.059   0.895   0.883 -0.7652  0.2966 -0.0242
 2189TIP3   OH228057   0.438   6.484   0.312 -1.4359 -0.1557  0.3480
 2189TIP3    H128058   0.470   6.502   0.224 -0.9806 -0.0327  0.5342
 2189TIP3    H228059   0.501   6.420   0.347  0.1750  2.0599  1.6625
 2190TIP3   OH228060   6.503   1.356   2.140  0.1453 -0.2872 -0.3186
 2190TIP3    H128061   6.575   1.419   2.136 -0.1250  0.1151  0.9356
 2190TIP3    H228062   6.424   1.410   2.135 -0.0730 -0.7446 -1.9084
 2191TIP3   OH228063   5.429   2.071   5.820  0.3092 -0.1367  1.0714
 2191TIP3    H128064   5.428   2.097   5.912  0.6740 -1.0762  1.3435
 2191TIP3    H228065   5.522   2.062   5.799  0.1917 -0.8359  0.8631
 2192TIP3   OH228066   0.032   4.225  12.174 -0.0233  0.4569 -0.2936
 2192TIP3    H128067  -0.035   4.214  12.107 -0.1267 -1.8783  0.1634
 2192TIP3    H228068   0.022   4.149  12.232  1.8291  1.0174  0.8132
 2193TIP3   OH228069   2.606   1.459  15.865  0.2496 -0.0331 -0.4642
 2193TIP3    H128070   2.560   1.429  15.944  0.6326  1.9106  0.5395
 2193TIP3    H228071   2.685   1.405  15.860  0.1881 -0.2099  0.4509
 2194TIP3   OH228072   3.442   4.966  12.220  0.0584  0.0745 -0.0589
 2194TIP3    H128073   3.446   4.980  12.125  0.8359  1.5527  0.1751
 2194TIP3    H228074   3.504   4.894  12.236 -0.6972 -0.7504 -0.7554
 2195TIP3   OH228075   2.670   4.965   3.774 -0.5779  0.6020 -0.0145
 2195TIP3    H128076   2.660   5.049   3.728 -1.0340  0.8732  0.5732
 2195TIP3    H228077   2.743   4.979   3.835 -0.1950  0.3479 -0.4085
 2196TIP3   OH228078   5.030   6.150   0.756  0.6333 -0.3541 -0.3593
 2196TIP3    H128079   5.101   6.196   0.800  0.0910  0.3019 -0.1675
 2196TIP3    H228080   5.070   6.068   0.725  1.7138  0.4518 -1.1083
 2197TIP3   OH228081   5.198   4.768  13.637 -0.2026 -0.0340  0.0252
 2197TIP3    H128082   5.281   4.802  13.605 -0.2715 -0.7641 -0.9362
 2197TIP3    H228083   5.219   4.681  13.672 -0.4741 -0.0325  0.1984
 2198TIP3   OH228084   5.289   2.439  15.226  0.0467 -0.2130 -1.2289
 2198TIP3    H128085   5.305   2.527  15.193 -1.7141  0.8762  0.6735
 2198TIP3    H228086   5.330   2.381  15.162  2.6426  2.0217 -1.6560
 2199TIP3   OH228087   3.836   2.659  11.375 -0.0022  0.7818 -0.4280
 2199TIP3    H128088   3.869   2.745  11.401  1.8432  0.1001 -0.4173
 2199TIP3    H228089   3.842   2.659  11.279  2.5029 -0.2484 -0.3197
 2200TIP3   OH228090   6.254   5.616  12.015  0.1506 -0.3284 -0.1222
 2200TIP3    H128091   6.233   5.547  12.077  0.1640 -0.6729 -0.4957
 2200TIP3    H228092   6.340   5.593  11.981  0.9036  0.7995  1.0069
 2201TIP3   OH228093   0.200   5.579  13.082 -0.4087 -0.5667  0.1931
 2201TIP3    H128094   0.174   5.509  13.021 -2.1767  0.1507  0.1061
 2201TIP3    H228095   0.134   5.577  13.150  1.1289 -0.8325  1.7110
 2202TIP3   OH228096   5.660   1.964  15.880  0.4673  0.5286 -0.4403
 2202TIP3    H128097   5.612   1.907  15.940 -0.1891  0.3117 -1.1577
 2202TIP3    H228098   5.646   1.925  15.794 -0.2969  1.9759 -0.9905
 2203TIP3   OH228099   2.847   5.332  14.315  0.4770  0.7386  0.4090
 2203TIP3    H128100   2.852   5.352  14.408 -2.3174 -1.4863  1.1221
 2203TIP3    H228101   2.907   5.258  14.303  0.4247  0.6745  0.5454
 2204TIP3   OH228102   4.332   1.139  14.708 -0.0821 -0.0512  0.5766
 2204TIP3    H128103   4.303   1.091  14.631  1.7130  0.2702 -0.2992
 2204TIP3    H228104   4.358   1.072  14.770 -1.9449 -0.3270  1.1094
 2205TIP3   OH228105   6.045   6.090   0.574  0.4397 -0.3915 -0.4546
 2205TIP3    H128106   5.983   6.151   0.535 -0.9076 -1.8096 -0.5699
 2205TIP3    H228107   6.081   6.138   0.649  0.5093  1.0728 -1.3911
 2206TIP3   OH228108   4.181   3.741   4.578 -0.0383 -0.2015  0.1485
 2206TIP3    H128109   4.177   3.786   4.662 -2.5983  0.0712 -0.0875
 2206TIP3    H228110   4.132   3.661   4.591  0.8735 -0.9051 -0.6593
 2207TIP3   OH228111   0.441   3.006   3.974  0.0852  0.4230 -0.5519
 2207TIP3    H128112   0.442   3.024   4.068 -0.8061  1.2688 -0.6969
 2207TIP3    H228113   0.453   2.911   3.968 -1.2095  0.1827  0.4715
 2208TIP3   OH228114   4.487   1.350  12.370  0.3485  0.4760 -0.7928
 2208TIP3    H128115   4.574   1.316  12.391  1.1400  2.6887 -0.4317
 2208TIP3    H228116   4.503   1.432  12.323 -1.5155  2.3323  1.6474
 2209TIP3   OH228117   0.383   2.208  16.488 -0.4187  0.0255  0.2794
 2209TIP3    H128118   0.462   2.174  16.446  1.1704  1.0429  2.3532
 2209TIP3    H228119   0.376   2.298  16.456 -0.6363 -0.0087  0.2331
 2210TIP3   OH228120   1.812   6.101  16.104  0.0367  0.1214  0.2448
 2210TIP3    H128121   1.849   6.061  16.026 -0.5076 -0.5526  0.3309
 2210TIP3    H228122   1.860   6.062  16.177 -0.1620 -0.0207  0.3011
 2211TIP3   OH228123   5.367   0.317  15.954 -0.3862 -0.1528  0.7757
 2211TIP3    H128124   5.428   0.390  15.963  1.4183 -1.5731  0.3554
 2211TIP3    H228125   5.375   0.269  16.037 -1.8864  0.3584  1.2250
 2212TIP3   OH228126   4.917   4.927  11.926 -0.1565 -0.1477  0.5456
 2212TIP3    H128127   4.829   4.958  11.947  0.6845  0.9268  2.6039
 2212TIP3    H228128   4.962   5.004  11.891 -0.1299 -0.7928 -0.8700
 2213TIP3   OH228129   4.357   1.706   0.966 -0.0063  0.8760 -0.0622
 2213TIP3    H128130   4.360   1.799   0.943 -0.9855  0.7400 -0.7790
 2213TIP3    H228131   4.329   1.662   0.886  0.3653 -0.0282  0.2994
 2214TIP3   OH228132   2.525   4.330  16.610  0.0666  0.2604 -0.0440
 2214TIP3    H128133   2.566   4.416  16.604 -1.5074  0.9023 -2.0214
 2214TIP3    H228134   2.432   4.346  16.593 -0.6702 -1.4920  2.1000
 2215TIP3   OH228135   2.793   3.141  10.307 -0.5410  0.3437 -0.0406
 2215TIP3    H128136   2.826   3.209  10.249 -0.9889  0.8665  0.3106
 2215TIP3    H228137   2.867   3.081  10.318  0.3892  1.6192  0.9262
 2216TIP3   OH228138   5.929   3.908  17.196 -0.9102 -0.5493 -0.2654
 2216TIP3    H128139   6.002   3.855  17.229 -0.8466 -0.5070 -0.3357
 2216TIP3    H228140   5.855   3.847  17.191 -1.4438 -0.0861  1.8183
 2217TIP3   OH228141   2.470   5.282   2.949  0.3913 -0.8589  0.0339
 2217TIP3    H128142   2.474   5.377   2.963 -0.7637 -0.8990  0.6857
 2217TIP3    H228143   2.466   5.273   2.854  0.5989 -0.2631 -0.0387
 2218TIP3   OH228144   1.757   3.243   1.581  0.2670 -0.4028 -0.2303
 2218TIP3    H128145   1.824   3.175   1.592  0.1964 -0.3200  0.8257
 2218TIP3    H228146   1.805   3.321   1.553  0.5615 -0.4561  0.1251
 2219TIP3   OH228147   4.221   5.362   0.243  0.2403  0.6069 -0.1287
 2219TIP3    H128148   4.188   5.354   0.332 -0.0437 -0.7720 -0.3397
 2219TIP3    H228149   4.164   5.426   0.201 -0.8693 -0.2019  0.1187
 2220TIP3   OH228150   5.012   1.171   4.387 -0.1574 -0.3163  0.6652
 2220TIP3    H128151   5.007   1.080   4.357  1.3841 -0.1564 -0.1235
 2220TIP3    H228152   5.078   1.211   4.331 -2.3010  1.8581 -0.3955
 2221TIP3   OH228153   5.484   3.574   3.671 -0.2693 -0.5256 -0.0961
 2221TIP3    H128154   5.434   3.524   3.606 -0.5402 -0.2340 -0.1131
 2221TIP3    H228155   5.464   3.531   3.754 -0.8152 -0.2015 -0.0593
 2222TIP3   OH228156   2.602   4.179   3.775  0.2466 -0.9997 -0.1493
 2222TIP3    H128157   2.546   4.242   3.818 -1.6978 -1.7448 -1.5071
 2222TIP3    H228158   2.666   4.232   3.728 -0.7253 -0.0660 -0.4402
 2223TIP3   OH228159   5.709   3.482   1.684  0.1558 -0.2761 -0.0926
 2223TIP3    H128160   5.676   3.397   1.715  1.1015 -0.1824  1.2058
 2223TIP3    H228161   5.640   3.514   1.627 -1.2556 -0.8806  1.2185
 2224TIP3   OH228162   6.627   1.146   6.566  0.4079  0.2803 -0.1477
 2224TIP3    H128163   6.621   1.066   6.618 -1.2274  0.9413  0.7446
 2224TIP3    H228164   6.561   1.204   6.605  1.2321  1.8761 -1.0843
 2225TIP3   OH228165   6.328   0.292  11.001  1.2413  0.1393 -0.3674
 2225TIP3    H128166   6.332   0.209  10.953  2.7401 -0.2136  0.3438
 2225TIP3    H228167   6.344   0.359  10.935  0.9609 -0.1964 -0.7797
 2226TIP3   OH228168   3.950   5.116  13.685  0.3646  0.4053  0.3679
 2226TIP3    H128169   3.978   5.031  13.720  1.0023  0.5418  0.2042
 2226TIP3    H228170   3.970   5.179  13.755  1.0716  0.5928  0.0000
 2227TIP3   OH228171   5.112   3.496  14.064  0.0827  0.3203 -0.6502
 2227TIP3    H128172   5.171   3.513  13.990 -0.0904  1.4690 -0.5374
 2227TIP3    H228173   5.035   3.551  14.046  0.5437  1.5205  0.9923
 2228TIP3   OH228174   6.305   1.672   0.175 -0.7885  0.0631  0.0813
 2228TIP3    H128175   6.389   1.630   0.160 -1.3573 -1.2694  0.5027
 2228TIP3    H228176   6.261   1.670   0.090 -0.6666  0.1296  0.0180
 2229TIP3   OH228177   0.113   0.456   3.893  0.5496 -0.2258  0.1870
 2229TIP3    H128178   0.203   0.446   3.862  0.7371 -0.2506  0.7455
 2229TIP3    H228179   0.121   0.472   3.987  0.0563  1.2149 -0.0026
 2230TIP3   OH228180   2.765   5.106  10.822  0.5304 -0.1482 -0.1969
 2230TIP3    H128181   2.776   5.173  10.756  2.5372  0.1810  0.4399
 2230TIP3    H228182   2.699   5.047  10.786 -1.8339  2.5439 -0.4357
 2231TIP3   OH228183   3.955   2.369  14.635  0.0144  0.1425  0.3351
 2231TIP3    H128184   3.873   2.407  14.602  1.7562  1.1435 -3.1066
 2231TIP3    H228185   3.986   2.433  14.699  0.6776  2.4516 -2.1834
 2232TIP3   OH228186   5.656   1.930   0.002  0.0519  0.3940 -0.3406
 2232TIP3    H128187   5.750   1.937  -0.016  0.3789 -4.0764 -1.0440
 2232TIP3    H228188   5.647   1.955   0.093  1.8548  1.3390 -0.3905
 2233TIP3   OH228189   6.147   5.609   1.657  0.2270  0.2930 -0.0867
 2233TIP3    H128190   6.106   5.632   1.573  2.3372  2.2053 -0.6296
 2233TIP3    H228191   6.183   5.521   1.643  0.7291  0.6799 -1.2474
 2234TIP3   OH228192   0.492   0.768  12.361  0.1967  0.1447  0.3703
 2234TIP3    H128193   0.414   0.728  12.401 -0.7918  0.4378 -1.2029
 2234TIP3    H228194   0.549   0.788  12.435 -0.5156 -1.5743  1.4195
 2235TIP3   OH228195   2.355   2.440  14.842 -0.0061 -0.3421 -0.7093
 2235TIP3    H128196   2.435   2.472  14.883 -0.4329 -0.4368  0.2119
 2235TIP3    H228197   2.315   2.518  14.803  0.3560 -0.2369 -0.8741
 2236TIP3   OH228198   4.335   4.618   4.207 -0.5150  0.4004 -0.0344
 2236TIP3    H128199   4.328   4.698   4.259 -0.8022 -0.0462  0.6104
 2236TIP3    H228200   4.426   4.618   4.176 -0.3773  0.7347  0.3616
 2237TIP3   OH228201   4.185   0.069  15.227  0.2005 -0.0997  0.3920
 2237TIP3    H128202   4.150   0.149  15.186 -2.5255  0.8232  4.1769
 2237TIP3    H228203   4.135  -0.002  15.186  0.5879  0.3726 -0.9372
 2238TIP3   OH228204   1.092   6.286   0.156  0.4451  0.4493  0.2649
 2238TIP3    H128205   1.046   6.213   0.114 -0.2972  0.4354  1.0884
 2238TIP3    H228206   1.038   6.308   0.232  1.3245  1.0482  0.7215
 2239TIP3   OH228207   3.789   6.312   0.693  0.4453 -0.0471 -0.3140
 2239TIP3    H128208   3.815   6.282   0.780 -0.3796 -1.2361 -0.4691
 2239TIP3    H228209   3.717   6.255   0.668 -1.9607  2.8007 -0.1272
 2240TIP3   OH228210   2.984   6.427  12.111 -0.4684 -0.0598  0.1090
 2240TIP3    H128211   2.971   6.414  12.205 -0.9553  0.0961  0.0605
 2240TIP3    H228212   3.018   6.516  12.104 -1.7760  0.4417  0.0201
 2241TIP3   OH228213   2.652   2.249  16.684  0.5884 -0.1232 -0.1665
 2241TIP3    H128214   2.619   2.308  16.751  1.2685  1.1760 -0.9534
 2241TIP3    H228215   2.574   2.216  16.641  0.1583 -0.7955  1.1068
 2242TIP3   OH228216   3.873   6.021   6.143  0.4845 -0.1759 -0.1049
 2242TIP3    H128217   3.897   5.940   6.187  1.0766  0.1266  0.1401
 2242TIP3    H228218   3.882   6.089   6.210  0.7149  0.1918 -0.5054
 2243TIP3   OH228219   3.704   2.320   2.751  0.0544 -0.3615  0.3439
 2243TIP3    H128220   3.719   2.415   2.754  0.5768 -0.4342  0.0193
 2243TIP3    H228221   3.700   2.299   2.658 -2.5990 -0.2605  0.4159
 2244TIP3   OH228222   6.566   2.956  11.252 -0.6877  0.1434  0.4368
 2244TIP3    H128223   6.651   2.971  11.294 -0.9691 -0.0753  1.0881
 2244TIP3    H228224   6.588   2.926  11.164 -0.0828  1.8991 -0.0504
 2245TIP3   OH228225   3.790   5.727  12.029  0.5003  0.0017  0.3247
 2245TIP3    H128226   3.853   5.784  11.986  1.5035 -1.6838 -0.4771
 2245TIP3    H228227   3.711   5.781  12.039  0.6593  0.8146 -2.4637
 2246TIP3   OH228228   1.318   0.240   5.466  0.2404 -0.5140  0.5815
 2246TIP3    H128229   1.405   0.253   5.429  0.2242 -0.0161  0.7234
 2246TIP3    H228230   1.332   0.238   5.560  0.1362 -0.7310  0.5934
 2247TIP3   OH228231   0.005   3.209   6.996 -0.3055  0.3625 -0.1951
 2247TIP3    H128232  -0.063   3.227   6.931 -0.4701  1.0288  0.1526
 2247TIP3    H228233   0.004   3.286   7.053 -0.2280 -0.2605  0.6569
 2248TIP3   OH228234   3.242   5.679  15.614 -0.5987 -0.3688 -0.5405
 2248TIP3    H128235   3.163   5.727  15.590  0.4699  1.3795 -0.6421
 2248TIP3    H228236   3.233   5.664  15.708 -0.0941  1.6708 -0.1455
 2249TIP3   OH228237   2.537   3.479  13.880  0.2254  0.0940 -0.3815
 2249TIP3    H128238   2.551   3.498  13.973 -0.0329 -1.8154  0.0700
 2249TIP3    H228239   2.621   3.443  13.851  0.3696  0.8830 -0.9349
 2250TIP3   OH228240   1.711   1.712   4.850  0.3277  0.2122 -0.1475
 2250TIP3    H128241   1.681   1.791   4.807 -0.2536 -0.0538 -0.2299
 2250TIP3    H228242   1.636   1.681   4.901  0.1900 -0.9067 -1.0064
 2251TIP3   OH228243   0.852   6.203   2.841  0.3649  0.4182  0.6843
 2251TIP3    H128244   0.876   6.173   2.754 -2.1459  0.1786  0.0319
 2251TIP3    H228245   0.818   6.125   2.885  0.1067  0.8772  1.3191
 2252TIP3   OH228246   6.160   3.425  13.022  0.0383 -0.1225  0.3008
 2252TIP3    H128247   6.236   3.470  13.058  0.5279  0.8429 -1.8580
 2252TIP3    H228248   6.193   3.341  12.991 -0.3278 -0.8361  1.8056
 2253TIP3   OH228249   2.582   4.972  12.813 -0.1006  0.1424 -0.8961
 2253TIP3    H128250   2.494   4.938  12.828  0.0916 -0.4327 -1.0760
 2253TIP3    H228251   2.639   4.895  12.814  0.5603  0.6274  0.3872
 2254TIP3   OH228252   3.766   0.631  15.862 -0.8186  0.4534  0.1404
 2254TIP3    H128253   3.836   0.621  15.798 -1.6083 -2.0209 -0.3881
 2254TIP3    H228254   3.746   0.725  15.861  1.9306  1.0731 -0.2515
 2255TIP3   OH228255   2.375   0.958   2.966  0.3208  0.2275  0.6481
 2255TIP3    H128256   2.421   0.990   3.043 -0.1134  0.7556  0.6865
 2255TIP3    H228257   2.303   1.020   2.952  0.0535 -0.1813  0.1584
 2256TIP3   OH228258   2.154   2.139   4.513  0.1668  0.0739  0.9082
 2256TIP3    H128259   2.117   2.052   4.498  1.0141 -0.2377  0.5926
 2256TIP3    H228260   2.248   2.127   4.504  0.2909  1.0330  0.8505
 2257TIP3   OH228261   6.565   5.900   3.787  0.2606  0.0704 -0.2361
 2257TIP3    H128262   6.496   5.836   3.771 -0.4751  0.9528 -0.6814
 2257TIP3    H228263   6.535   5.978   3.740  1.7135  0.3628 -0.6960
 2258TIP3   OH228264   3.129   0.506  14.225 -0.2447  0.8347  0.2236
 2258TIP3    H128265   3.165   0.594  14.214  1.3066  0.2554  0.6341
 2258TIP3    H228266   3.205   0.449  14.233 -1.2311 -0.7507 -1.4242
 2259TIP3   OH228267   5.117   5.166  15.792  0.0543  0.2524  0.6038
 2259TIP3    H128268   5.094   5.097  15.730  1.8554  0.2798 -0.1128
 2259TIP3    H228269   5.060   5.239  15.767  0.7379  0.2534 -1.0210
 2260TIP3   OH228270   5.775   6.202  16.575 -0.1526 -0.2956 -0.0927
 2260TIP3    H128271   5.808   6.260  16.644 -0.5124  0.3085 -0.4229
 2260TIP3    H228272   5.804   6.115  16.601  1.0091  0.1194  0.0445
 2261TIP3   OH228273   6.392   5.173   3.184 -0.1787  0.0005  0.1270
 2261TIP3    H128274   6.445   5.224   3.245  0.9351 -0.0339 -0.7757
 2261TIP3    H228275   6.366   5.095   3.233 -2.3073  1.6348  1.6779
 2262TIP3   OH228276   0.859   1.090  11.585 -0.2129 -0.0546 -0.2388
 2262TIP3    H128277   0.834   1.000  11.608  0.1200 -0.1124 -0.0925
 2262TIP3    H228278   0.938   1.107  11.637 -0.3968  0.3976 -0.1064
 2263TIP3   OH228279   4.382   4.980  15.604 -0.1363 -0.0983  0.1893
 2263TIP3    H128280   4.382   5.010  15.695  0.4533  0.2154  0.0923
 2263TIP3    H228281   4.300   5.014  15.568 -0.7730 -0.9405  0.8302
 2264TIP3   OH228282   0.034   4.407  11.472 -0.6017 -0.0321  0.7721
 2264TIP3    H128283   0.021   4.488  11.520 -0.2108  1.2791 -1.2701
 2264TIP3    H228284   0.056   4.435  11.383  1.7260 -2.3423  0.5598
 2265TIP3   OH228285   3.647   0.803  13.917  0.3803  0.1336 -0.2429
 2265TIP3    H128286   3.594   0.725  13.932  0.4062 -0.1334 -1.5206
 2265TIP3    H228287   3.621   0.863  13.987 -0.4544 -0.5904  0.0783
 2266TIP3   OH228288   4.651   1.265   0.509  0.7483 -0.2306 -0.9284
 2266TIP3    H128289   4.657   1.170   0.498  0.4922 -0.4336  0.5246
 2266TIP3    H228290   4.655   1.278   0.604 -0.6290  1.1082 -1.0385
 2267TIP3   OH228291   6.675   2.021  12.644  0.3411 -0.3800  0.1396
 2267TIP3    H128292   6.739   2.090  12.628  0.4060 -0.9419 -2.3077
 2267TIP3    H228293   6.635   2.043  12.728  1.1478  1.9970 -0.0736
 2268TIP3   OH228294   4.384   4.508  13.233  0.2264 -0.1858  0.2558
 2268TIP3    H128295   4.341   4.474  13.312  0.4239  0.9638  0.8677
 2268TIP3    H228296   4.316   4.559  13.189 -0.2050 -1.6910 -0.9060
 2269TIP3   OH228297   1.051   3.797   5.146 -0.7038  0.2485 -0.1275
 2269TIP3    H128298   1.110   3.847   5.089  3.1744 -3.6370  0.2095
 2269TIP3    H228299   0.998   3.745   5.086  1.3298 -1.6477 -0.3207
 2270TIP3   OH228300   2.801   2.491   0.160  0.2863  0.3958  0.4106
 2270TIP3    H128301   2.872   2.472   0.221  0.2283  1.4811  0.8317
 2270TIP3    H228302   2.788   2.409   0.112  0.1751 -0.5487  2.0107
 2271TIP3   OH228303   1.580   0.146   1.294 -0.1592  0.1671 -0.1616
 2271TIP3    H128304   1.592   0.181   1.383  2.1535 -0.9646  0.0263
 2271TIP3    H228305   1.633   0.204   1.238 -1.1067  0.5041 -0.7118
 2272TIP3   OH228306   4.730   3.445  11.354 -0.2184  0.1288  0.1025
 2272TIP3    H128307   4.713   3.512  11.287  0.2013 -0.2993 -0.4334
 2272TIP3    H228308   4.775   3.375  11.307 -1.9381 -1.1782  0.3695
 2273TIP3   OH228309   2.040   0.686   3.393  1.1223 -0.1145  0.0335
 2273TIP3    H128310   2.083   0.770   3.406 -0.0767  0.6765 -1.0632
 2273TIP3    H228311   2.006   0.663   3.480  0.0637  1.3085  0.0073
 2274TIP3   OH228312   3.832   5.160   3.635  0.0101 -0.4581  0.3572
 2274TIP3    H128313   3.795   5.082   3.594 -0.9654  0.6380 -0.8762
 2274TIP3    H228314   3.916   5.174   3.590  0.1095 -0.6817  0.4689
 2275TIP3   OH228315   4.934   0.014   5.178 -0.0036 -0.2124 -0.4175
 2275TIP3    H128316   5.016  -0.022   5.213 -0.5362 -0.3554  0.7104
 2275TIP3    H228317   4.907  -0.049   5.111 -0.6411 -1.6484  1.1579
 2276TIP3   OH228318   4.858   2.160   4.715  0.1197  0.0834 -0.1025
 2276TIP3    H128319   4.947   2.191   4.731  0.6526 -1.3772 -0.1564
 2276TIP3    H228320   4.838   2.191   4.627  0.5216  0.5354 -0.0396
 2277TIP3   OH228321   0.924   3.349   4.741 -0.2529 -0.5450  0.1813
 2277TIP3    H128322   0.908   3.313   4.828 -0.1596  1.7882  1.1879
 2277TIP3    H228323   1.019   3.345   4.730 -0.2433 -0.6050  0.2912
 2278TIP3   OH228324   1.838   0.180  16.921 -0.4165 -0.1160 -0.7396
 2278TIP3    H128325   1.822   0.133  17.003  1.4066  1.1653  0.3969
 2278TIP3    H228326   1.888   0.119  16.867  2.9021  0.8254  1.1508
 2279TIP3   OH228327   1.201   1.631  15.766 -0.2343 -0.0929  0.0156
 2279TIP3    H128328   1.254   1.680  15.829  2.1642  0.1824 -2.1079
 2279TIP3    H228329   1.234   1.541  15.773  0.0383 -0.0606 -0.8147
 2280TIP3   OH228330   4.069   2.779   2.738 -0.3622  0.2179  0.0196
 2280TIP3    H128331   4.108   2.861   2.768 -1.7896  0.8228  0.2475
 2280TIP3    H228332   3.975   2.792   2.747 -0.5854 -1.6488  0.5756
 2281TIP3   OH228333   6.672   5.245  14.798 -0.3537 -0.1194  0.3312
 2281TIP3    H128334   6.650   5.158  14.831 -0.2188 -0.3172 -0.0866
 2281TIP3    H228335   6.587   5.286  14.778 -0.3629 -0.9670 -1.4972
 2282TIP3   OH228336   5.185   5.711   3.570  0.0376  0.1059  0.3376
 2282TIP3    H128337   5.280   5.708   3.561  0.0667 -0.1641  0.7587
 2282TIP3    H228338   5.158   5.778   3.506  0.5029  0.1582  0.1908
 2283TIP3   OH228339   0.263   2.148   4.403 -0.4319 -0.2388  0.1967
 2283TIP3    H128340   0.248   2.242   4.397 -1.8274 -0.5547 -1.7798
 2283TIP3    H228341   0.358   2.137   4.390 -0.4775  0.7796 -0.9833
 2284TIP3   OH228342   6.545   3.084  13.513 -0.4534 -0.6131 -0.1390
 2284TIP3    H128343   6.608   3.016  13.487 -1.8842 -0.6674 -3.7662
 2284TIP3    H228344   6.565   3.158  13.456 -1.4109  0.6477  1.1183
 2285TIP3   OH228345   6.347   5.873  14.841  0.4653  0.3060  0.1957
 2285TIP3    H128346   6.275   5.819  14.874  0.7901 -0.0754  0.2863
 2285TIP3    H228347   6.340   5.866  14.745 -1.7004  3.0267  0.1038
 2286TIP3   OH228348   2.147   5.641  17.186  0.0565  0.0099  0.1983
 2286TIP3    H128349   2.133   5.620  17.094 -2.2691  2.0388  0.0226
 2286TIP3    H228350   2.211   5.711  17.186 -1.7522  1.7127 -0.0908
 2287TIP3   OH228351   2.131   3.840  13.657 -0.4666  0.5872  0.2194
 2287TIP3    H128352   2.105   3.791  13.579  2.0447 -3.0028  1.5308
 2287TIP3    H228353   2.222   3.864  13.640  0.0082  0.0061  1.9348
 2288TIP3   OH228354   2.017   5.333  15.706  0.3827  0.0689 -0.1019
 2288TIP3    H128355   1.948   5.283  15.749 -0.2756  0.5150 -0.6150
 2288TIP3    H228356   1.998   5.324  15.612  1.4774 -0.4466 -0.2775
 2289TIP3   OH228357   1.135   4.464   2.315  0.0287 -0.4170 -0.2356
 2289TIP3    H128358   1.113   4.396   2.251  0.1859  0.2101 -0.9752
 2289TIP3    H228359   1.064   4.461   2.378  0.0104 -1.2354 -0.2850
 2290TIP3   OH228360   2.027   5.395  12.624  0.1516 -0.0231 -0.1361
 2290TIP3    H128361   1.983   5.387  12.540  0.5372 -2.3528 -0.1477
 2290TIP3    H228362   1.966   5.358  12.687  1.1992 -1.3720  0.1226
 2291TIP3   OH228363   0.731   3.359  12.814  0.0366  0.3457 -0.1652
 2291TIP3    H128364   0.807   3.307  12.839  0.5325  1.3839  0.5410
 2291TIP3    H228365   0.660   3.295  12.805  0.6294 -0.4464  0.6790
 2292TIP3   OH228366   5.416   0.414   0.054 -0.3735 -0.1697 -0.4926
 2292TIP3    H128367   5.431   0.328   0.094  1.6925 -0.7478 -2.3651
 2292TIP3    H228368   5.489   0.424  -0.008 -0.6234  2.9113 -0.3638
 2293TIP3   OH228369   5.622   0.319  12.569  0.0197 -0.3544  0.5777
 2293TIP3    H128370   5.630   0.226  12.546 -0.8883 -0.2265 -0.2694
 2293TIP3    H228371   5.531   0.341  12.548 -0.2286  0.3267  2.2337
 2294TIP3   OH228372   3.084   5.346   0.356  0.3390  0.3238  0.5788
 2294TIP3    H128373   3.171   5.315   0.382 -0.2917 -1.5475  0.5316
 2294TIP3    H228374   3.029   5.267   0.359 -0.9497  1.1372 -1.1322
 2295TIP3   OH228375   4.475   2.648  11.480  0.1638  0.4201  0.4022
 2295TIP3    H128376   4.400   2.646  11.421 -0.1793  0.1247  0.8427
 2295TIP3    H228377   4.476   2.561  11.521  2.0522 -0.3677 -1.2081
 2296TIP3   OH228378   0.457   4.719   1.522  0.5149  0.3485  0.3553
 2296TIP3    H128379   0.536   4.666   1.526  0.4467  0.2562  0.5262
 2296TIP3    H228380   0.386   4.655   1.512  0.3923  0.3727  1.0022
 2297TIP3   OH228381   0.434   4.759   3.071 -0.8607 -0.7283 -0.2736
 2297TIP3    H128382   0.514   4.803   3.101 -1.1023 -1.0563  0.8509
 2297TIP3    H228383   0.462   4.671   3.048 -1.1728 -1.3497  1.6336
 2298TIP3   OH228384   2.129   4.674   1.276  0.3900 -0.2735  0.2746
 2298TIP3    H128385   2.128   4.768   1.289  0.1256 -0.0845 -1.0316
 2298TIP3    H228386   2.046   4.643   1.313 -0.0056  0.1392 -0.2736
 2299TIP3   OH228387   1.858   1.614   2.663  0.3203  0.6788 -0.0565
 2299TIP3    H128388   1.790   1.574   2.608  0.1082  0.6097  0.2497
 2299TIP3    H228389   1.841   1.579   2.750  0.9541  0.4068 -0.0388
 2300TIP3   OH228390   0.627   4.965   1.464 -0.0349 -0.4049  0.2708
 2300TIP3    H128391   0.598   4.876   1.486 -0.0754 -0.4998 -0.1732
 2300TIP3    H228392   0.685   4.989   1.537  1.3833 -1.4669 -0.4767
 2301TIP3   OH228393   4.957   4.169   3.341  0.1011  1.0204  0.0082
 2301TIP3    H128394   4.968   4.161   3.436 -0.8309 -1.6708 -0.0747
 2301TIP3    H228395   5.042   4.143   3.304  0.2487  1.4219  0.0540
 2302TIP3   OH228396   3.836   1.319  12.700  0.2583 -0.4206  0.1511
 2302TIP3    H128397   3.926   1.296  12.724  0.4542 -0.6391 -0.7732
 2302TIP3    H228398   3.783   1.286  12.773  0.6776 -2.5303 -0.4736
 2303TIP3   OH228399   1.568   3.260  16.278  0.0773  0.0933 -0.3510
 2303TIP3    H128400   1.553   3.311  16.198 -1.7921 -0.8182 -0.6110
 2303TIP3    H228401   1.489   3.274  16.330 -0.4419 -2.4649 -0.3971
 2304TIP3   OH228402   5.997   3.475   0.104  0.9768 -0.7647  0.2122
 2304TIP3    H128403   5.971   3.507   0.191  2.3227 -2.9130  1.4582
 2304TIP3    H228404   5.924   3.419   0.077  0.6403 -0.2437  0.0433
 2305TIP3   OH228405   5.609   0.674  14.507  0.5718  0.0098 -0.1815
 2305TIP3    H128406   5.626   0.585  14.476 -1.5404 -1.2234  2.0099
 2305TIP3    H228407   5.695   0.716  14.506  1.9598 -2.6642  0.5995
 2306TIP3   OH228408   0.982   3.517  16.635  0.0052  0.2039 -0.1263
 2306TIP3    H128409   1.029   3.594  16.667 -0.8012  0.3915  0.6126
 2306TIP3    H228410   0.951   3.474  16.715 -1.4040  0.2826 -0.6274
 2307TIP3   OH228411   5.586   4.164   5.654 -0.0105 -0.4228 -0.1756
 2307TIP3    H128412   5.640   4.192   5.580  0.1094  1.1861  0.4998
 2307TIP3    H228413   5.529   4.239   5.672  0.3392 -0.5879  1.7164
 2308TIP3   OH228414   3.845   2.683   1.081  0.7624  0.4308 -0.1566
 2308TIP3    H128415   3.760   2.722   1.060  1.5721  2.1049 -0.3835
 2308TIP3    H228416   3.836   2.653   1.172 -0.0358  0.6939 -0.1469
 2309TIP3   OH228417   4.401   0.645  16.251  0.0122  0.0829  0.6635
 2309TIP3    H128418   4.398   0.561  16.205 -0.2029  0.4901 -0.0729
 2309TIP3    H228419   4.431   0.707  16.184 -0.8745  0.7856  0.9132
 2310TIP3   OH228420   4.730   4.441   0.396  0.0049 -0.5471 -0.3676
 2310TIP3    H128421   4.788   4.380   0.352 -1.8593 -0.1870 -3.4986
 2310TIP3    H228422   4.781   4.521   0.406  0.8755 -1.0636 -0.6948
 2311TIP3   OH228423   0.312   3.272   5.934  0.0757  0.5041  0.2205
 2311TIP3    H128424   0.385   3.237   5.985 -1.7133 -1.4726  1.4789
 2311TIP3    H228425   0.327   3.367   5.932  2.9773  0.0654 -0.0663
 2312TIP3   OH228426   2.109   3.033  11.112  0.0925  0.0094 -0.1599
 2312TIP3    H128427   2.133   3.074  11.029 -1.7601  1.6461  0.0949
 2312TIP3    H228428   2.098   3.106  11.173 -2.5450 -0.8850  0.4857
 2313TIP3   OH228429   4.178   3.162  11.932  0.5912  0.1788  0.0055
 2313TIP3    H128430   4.222   3.132  12.011 -0.2318  1.7252  1.0793
 2313TIP3    H228431   4.240   3.145  11.861  1.2933 -1.3053  0.9677
 2314TIP3   OH228432   1.773   2.512  11.952  0.0875  0.3272 -0.5420
 2314TIP3    H128433   1.807   2.595  11.984 -1.8588  1.1651 -0.6064
 2314TIP3    H228434   1.824   2.495  11.873  0.9522  1.1255 -0.1650
 2315TIP3   OH228435   5.568   0.834   0.374  0.2660  0.1299  0.2137
 2315TIP3    H128436   5.626   0.763   0.348 -0.7204 -0.1075 -1.4530
 2315TIP3    H228437   5.620   0.889   0.433  1.2046 -1.6757  1.0884
 2316TIP3   OH228438   6.344   6.600   4.663  0.3448 -0.1627 -0.2744
 2316TIP3    H128439   6.309   6.632   4.746  0.3866 -1.6676  0.3534
 2316TIP3    H228440   6.414   6.660   4.641  1.2351 -0.5133  1.4781
 2317TIP3   OH228441   2.373   6.505  15.287 -0.0315 -0.0433  0.1755
 2317TIP3    H128442   2.339   6.581  15.240  1.9364  1.2842  0.8295
 2317TIP3    H228443   2.467   6.504  15.266 -0.6693 -4.7117 -3.1264
 2318TIP3   OH228444   4.130   5.514  10.621 -0.2669 -0.3303 -0.0410
 2318TIP3    H128445   4.148   5.423  10.644 -0.3784 -0.3372  0.0200
 2318TIP3    H228446   4.171   5.565  10.691  0.7545 -0.2869 -0.6506
 2319TIP3   OH228447   3.063   2.293   1.348 -0.5238  0.0857  0.7131
 2319TIP3    H128448   3.158   2.306   1.338 -0.2429 -0.5964  2.4196
 2319TIP3    H228449   3.053   2.251   1.433 -2.5114  1.7342  1.3288
 2320TIP3   OH228450   4.278   3.831  15.427 -0.4134  0.5003  0.1470
 2320TIP3    H128451   4.229   3.763  15.381 -0.8634  0.5161  0.5915
 2320TIP3    H228452   4.228   3.846  15.507  0.1677  0.7227  0.4709
 2321TIP3   OH228453   1.924   0.810  13.116 -0.0165  0.0575 -0.0231
 2321TIP3    H128454   1.878   0.730  13.093  0.7912 -0.0204 -1.3914
 2321TIP3    H228455   1.898   0.874  13.050  1.0366  0.2896 -0.2315
 2322TIP3   OH228456   3.451   3.977   5.309  0.1333 -0.0851  0.0385
 2322TIP3    H128457   3.513   3.960   5.380  1.0611  0.5833 -0.6118
 2322TIP3    H228458   3.423   4.067   5.322 -2.5552 -1.0956  1.7402
 2323TIP3   OH228459   5.709   2.153   2.230  0.0744  0.2421  0.4983
 2323TIP3    H128460   5.617   2.159   2.204 -0.0380  1.1137  1.0713
 2323TIP3    H228461   5.716   2.069   2.274 -0.6254  0.4864  1.1015
 2324TIP3   OH228462   2.488   5.975  16.488  0.6350  0.0679 -0.0044
 2324TIP3    H128463   2.434   6.017  16.554  0.4731  0.8643 -0.6336
 2324TIP3    H228464   2.573   6.018  16.495  2.0381 -2.9353  2.7462
 2325TIP3   OH228465   1.086   2.112   0.723  0.3149  0.4347 -0.2009
 2325TIP3    H128466   1.068   2.170   0.649 -0.3109  1.4525  0.7357
 2325TIP3    H228467   1.090   2.024   0.685 -0.9201  0.8431 -1.2891
 2326TIP3   OH228468   0.300   1.661   2.077  0.3279 -0.6163 -0.1671
 2326TIP3    H128469   0.224   1.635   2.024 -0.1703  0.1096  0.1760
 2326TIP3    H228470   0.262   1.686   2.162  0.4881  3.6023 -1.2471
 2327TIP3   OH228471   5.485   4.155   0.472 -0.0071  0.2848  0.4759
 2327TIP3    H128472   5.560   4.199   0.513  0.0382 -0.9541  1.7707
 2327TIP3    H228473   5.427   4.227   0.444  1.0664  1.2097  0.6073
 2328TIP3   OH228474   3.443   3.224  14.047  0.2221 -0.1425  0.7409
 2328TIP3    H128475   3.401   3.228  13.962  0.9665 -1.3289  0.3132
 2328TIP3    H228476   3.432   3.133  14.076  0.9640 -0.0314  1.3966
 2329TIP3   OH228477   2.047   1.697   2.031  0.1335 -0.4650 -0.1668
 2329TIP3    H128478   2.131   1.741   2.039 -0.3356  0.6297 -1.1707
 2329TIP3    H228479   2.051   1.651   1.947 -1.1256  1.4855 -1.3288
 2330TIP3   OH228480   2.741   1.090  14.995 -0.3507 -0.1777  0.1643
 2330TIP3    H128481   2.763   1.180  15.020  1.2541 -0.5018 -0.0454
 2330TIP3    H228482   2.739   1.042  15.078 -2.9450  0.3768  0.4765
 2331TIP3   OH228483   1.324   2.285   2.263  0.0398 -0.2306  0.2735
 2331TIP3    H128484   1.316   2.235   2.181  1.5675  0.2721 -0.1969
 2331TIP3    H228485   1.262   2.357   2.253  0.6238  0.1436 -0.6720
 2332TIP3   OH228486   6.329   6.035   0.804 -0.4290  0.1042  0.1843
 2332TIP3    H128487   6.274   6.062   0.878  0.0122  0.4864  0.3773
 2332TIP3    H228488   6.291   6.080   0.728  0.6906  1.7885  0.6100
 2333TIP3   OH228489   0.659   0.355   5.667 -0.0406  0.4401  0.3527
 2333TIP3    H128490   0.651   0.290   5.737 -0.2968 -0.9643 -0.9625
 2333TIP3    H228491   0.742   0.335   5.624  0.6482  1.9861  0.9128
 2334TIP3   OH228492   6.117   2.009   2.225  0.6247  0.4912  0.2245
 2334TIP3    H128493   6.106   2.091   2.272 -0.1117  0.1221  0.7049
 2334TIP3    H228494   6.055   2.015   2.152  1.3126  0.7961 -0.3411
 2335TIP3   OH228495   3.523   4.226  12.245 -0.1775  0.1958 -0.2465
 2335TIP3    H128496   3.588   4.180  12.192 -0.5242  1.4514 -1.7858
 2335TIP3    H228497   3.493   4.298  12.190 -2.9389 -0.3845  0.4455
 2336TIP3   OH228498   6.756   1.126  11.990  0.3533 -0.0710 -0.0777
 2336TIP3    H128499   6.676   1.082  11.961 -0.7004  0.7025  1.5862
 2336TIP3    H228500   6.776   1.188  11.920 -0.9882  0.3421 -0.1057
 2337TIP3   OH228501   2.236   4.335  11.039  0.1019  0.2193 -0.0729
 2337TIP3    H128502   2.168   4.274  11.066  0.9501 -0.1799  1.2439
 2337TIP3    H228503   2.198   4.384  10.967 -1.4789 -0.1891  0.4684
 2338TIP3   OH228504   4.951   2.079   5.378  0.6803  0.5022 -0.3033
 2338TIP3    H128505   4.998   2.009   5.334  2.5380  0.8521  1.0225
 2338TIP3    H228506   4.977   2.070   5.470 -1.0067  1.4034  0.2745
 2339TIP3   OH228507   4.083   1.092   0.427  0.1379  0.3649 -0.6136
 2339TIP3    H128508   4.054   1.184   0.432  0.8736  0.5046  1.7672
 2339TIP3    H228509   4.148   1.084   0.497 -0.2644 -2.1028 -0.4914
 2340TIP3   OH228510   6.802   2.288   3.796  0.3008  0.1300 -0.3862
 2340TIP3    H128511   6.877   2.295   3.736 -0.3116 -1.5706 -1.3838
 2340TIP3    H228512   6.842   2.277   3.882  1.2089 -0.5313 -0.8769
 2341TIP3   OH228513   4.826   1.775  11.336  0.1636 -0.6173 -0.6301
 2341TIP3    H128514   4.860   1.767  11.425 -2.6630  0.0436  0.5694
 2341TIP3    H228515   4.863   1.856  11.303 -1.5044  0.9654  1.2712
 2342TIP3   OH228516   4.229   2.452   5.757  0.7290 -0.8025 -0.5752
 2342TIP3    H128517   4.179   2.462   5.676  0.0730  0.5474 -0.0127
 2342TIP3    H228518   4.181   2.385   5.806  0.3766 -0.6560 -0.7190
 2343TIP3   OH228519   2.774   6.062   1.740 -0.2982 -0.1687 -0.6398
 2343TIP3    H128520   2.857   6.039   1.699 -1.2728 -0.4439 -2.5391
 2343TIP3    H228521   2.736   5.978   1.766  1.4391  0.1414  3.2207
 2344TIP3   OH228522   6.745   2.891   0.871 -0.5291  0.5580 -0.5559
 2344TIP3    H128523   6.726   2.983   0.887 -1.4254  0.1940  0.5403
 2344TIP3    H228524   6.838   2.881   0.892 -0.6693  0.9981  0.2749
 2345TIP3   OH228525   5.677   5.013   2.272  0.2893 -0.6365  0.7478
 2345TIP3    H128526   5.610   4.953   2.239 -1.0153  0.2259  1.7698
 2345TIP3    H228527   5.644   5.042   2.357  1.3421  0.8065  0.6945
 2346TIP3   OH228528   0.772   1.876   3.612 -0.0215 -0.2265  0.1124
 2346TIP3    H128529   0.678   1.861   3.611  0.2249 -1.8637  0.1550
 2346TIP3    H228530   0.786   1.941   3.681 -1.0720 -0.3098  0.4010
 2347TIP3   OH228531   5.542   0.727  14.090  0.2249 -0.4291 -0.0803
 2347TIP3    H128532   5.475   0.707  14.025  1.1625  0.2071 -1.2664
 2347TIP3    H228533   5.610   0.661  14.076  0.7331  0.1069 -0.2153
 2348TIP3   OH228534   6.812   4.507   2.931  0.4595  0.1461  0.2267
 2348TIP3    H128535   6.738   4.492   2.872  1.0442  0.1380 -0.5194
 2348TIP3    H228536   6.780   4.481   3.017 -1.0988  2.1841  0.3010
 2349TIP3   OH228537   1.835   1.561  13.516  0.6258  0.3084  0.2238
 2349TIP3    H128538   1.907   1.615  13.483  1.3537 -0.9569 -0.2920
 2349TIP3    H228539   1.782   1.542  13.439  1.3062 -1.1044  0.0825
 2350TIP3   OH228540   5.694   4.989   3.622  0.3365 -0.3132 -0.2463
 2350TIP3    H128541   5.726   4.920   3.680 -0.6257  0.0882  0.7615
 2350TIP3    H228542   5.639   5.044   3.677 -0.2907  0.2796 -1.4494
 2351TIP3   OH228543   5.107   1.421  13.381 -0.1337  0.7304 -0.0838
 2351TIP3    H128544   5.036   1.373  13.422  0.5606  1.6978  2.3350
 2351TIP3    H228545   5.186   1.372  13.403  0.3218  1.6397  0.3404
 2352TIP3   OH228546   4.717   3.382  16.609 -0.0331 -0.2652 -0.0453
 2352TIP3    H128547   4.737   3.344  16.523  2.2464 -1.1461  0.8531
 2352TIP3    H228548   4.700   3.474  16.590  0.9813 -0.3319 -1.3759
 2353TIP3   OH228549   3.137   4.124   2.644 -0.0485  0.1585  0.8016
 2353TIP3    H128550   3.170   4.038   2.616  0.2096  0.7628 -0.8148
 2353TIP3    H228551   3.206   4.185   2.618 -0.6932  0.9736  0.9957
 2354TIP3   OH228552   2.038   6.059   4.521 -0.4009 -0.4063 -0.4358
 2354TIP3    H128553   1.967   6.106   4.566 -0.7503 -0.7026 -0.6821
 2354TIP3    H228554   2.035   5.971   4.558  0.5206 -0.1275  0.3218
 2355TIP3   OH228555   4.922   4.602  13.691 -0.2567  0.1600  0.3028
 2355TIP3    H128556   5.007   4.608  13.736 -0.8260  3.9483  1.0303
 2355TIP3    H228557   4.933   4.654  13.611 -0.9036 -2.1448 -1.3440
 2356TIP3   OH228558   1.644   3.537   1.870 -0.6020  0.0046 -0.0240
 2356TIP3    H128559   1.648   3.632   1.883  0.4250  0.0052 -0.2855
 2356TIP3    H228560   1.683   3.501   1.949  0.2757 -0.1601 -0.5300
 2357TIP3   OH228561   0.337   5.984  12.993 -0.0701 -0.3392 -0.0321
 2357TIP3    H128562   0.310   6.075  12.979  1.3652  0.4514  2.0488
 2357TIP3    H228563   0.258   5.933  12.976 -0.0472  0.9065 -4.6926
 2358TIP3   OH228564   2.810   0.929  13.556  0.0648 -0.2936 -0.6204
 2358TIP3    H128565   2.826   0.983  13.479  0.6770 -0.9167 -0.9428
 2358TIP3    H228566   2.715   0.931  13.568 -0.2235 -1.6173 -2.4556
 2359TIP3   OH228567   2.967   3.655   2.124  0.0952  0.0472  0.7412
 2359TIP3    H128568   2.976   3.560   2.111  0.7186  0.3175 -1.0061
 2359TIP3    H228569   2.874   3.668   2.141 -0.2296 -0.7581 -0.3244
 2360TIP3   OH228570   3.594   5.999  14.567  0.1208 -0.0978  0.5329
 2360TIP3    H128571   3.677   6.045  14.552  0.7089 -1.0351  0.8764
 2360TIP3    H228572   3.618   5.906  14.566 -1.0914 -0.3970 -0.3432
 2361TIP3   OH228573   2.577   4.599  16.055 -0.0769  0.0654 -0.8332
 2361TIP3    H128574   2.522   4.541  16.108  0.2396  0.7903  0.3136
 2361TIP3    H228575   2.658   4.549  16.043 -0.3047 -0.2706 -0.9821
 2362TIP3   OH228576   0.498   1.504   1.487 -0.1031 -0.3026  0.3171
 2362TIP3    H128577   0.578   1.557   1.492 -0.4211  0.2081  0.0703
 2362TIP3    H228578   0.521   1.432   1.428  0.4571 -0.6628  0.9728
 2363TIP3   OH228579   2.250   4.288   0.373 -0.0936 -0.2960  0.1951
 2363TIP3    H128580   2.248   4.314   0.465  0.3640 -0.0621  0.1403
 2363TIP3    H228581   2.332   4.239   0.363  1.7969  2.9427 -0.9439
 2364TIP3   OH228582   5.254   2.011  17.113  0.7484  0.6286 -0.1157
 2364TIP3    H128583   5.336   2.039  17.071  0.3297  2.7666  0.4726
 2364TIP3    H228584   5.260   2.046  17.202 -1.6306  2.4531 -0.6346
 2365TIP3   OH228585   5.242   2.820  11.284 -0.2375  0.0989 -0.0779
 2365TIP3    H128586   5.321   2.873  11.269 -0.4920  0.0033 -1.8606
 2365TIP3    H228587   5.180   2.881  11.325  0.0426  0.7307 -0.5857
 2366TIP3   OH228588   0.839   3.851  12.972 -0.1402 -0.5722  0.0327
 2366TIP3    H128589   0.780   3.894  12.910  1.5108  1.0794 -0.4456
 2366TIP3    H228590   0.835   3.905  13.051  0.1329 -0.9063  0.2764
 2367TIP3   OH228591   0.845   6.579  11.508  0.3780  0.9672  0.1443
 2367TIP3    H128592   0.926   6.541  11.542 -0.9111 -0.9530  1.1379
 2367TIP3    H228593   0.779   6.510  11.520 -2.0972  3.6164  2.2450
 2368TIP3   OH228594   0.227   4.326   2.093 -0.6275 -0.0569  0.3206
 2368TIP3    H128595   0.278   4.249   2.069  0.9345  1.4626 -1.4207
 2368TIP3    H228596   0.289   4.399   2.087 -1.9186  1.2810  2.5152
 2369TIP3   OH228597   2.230   1.116   1.807  0.1279  0.4163  0.1330
 2369TIP3    H128598   2.162   1.115   1.874  0.9053 -2.5917  0.9394
 2369TIP3    H228599   2.307   1.154   1.851  0.8223 -2.1290  1.1888
 2370TIP3   OH228600   5.053   2.355  14.932 -0.4850  0.2816  0.4737
 2370TIP3    H128601   4.974   2.325  14.976  0.6003 -0.5987  1.8654
 2370TIP3    H228602   5.090   2.421  14.991 -1.3265  2.3169 -1.2117
 2371TIP3   OH228603   0.890   3.061  15.810 -0.3123 -0.3792 -0.8251
 2371TIP3    H128604   0.976   3.088  15.776  0.7934 -2.7141 -0.0236
 2371TIP3    H228605   0.892   2.966  15.805 -2.6904 -0.4741 -0.3084
 2372TIP3   OH228606   0.961   3.244   3.234  0.0681 -0.6715  0.6914
 2372TIP3    H128607   0.946   3.338   3.247 -2.0309 -0.8966  0.0604
 2372TIP3    H228608   0.975   3.209   3.322 -0.9812 -0.0575  1.1139
 2373TIP3   OH228609   5.024   6.276  10.812  0.6049  0.4474  0.2893
 2373TIP3    H128610   5.095   6.213  10.799 -0.2932  0.1109 -3.2797
 2373TIP3    H228611   5.043   6.347  10.751 -1.2871  1.0797  0.4057
 2374TIP3   OH228612   3.296   6.335  14.731 -0.2383  0.0659  0.1829
 2374TIP3    H128613   3.375   6.282  14.746 -1.2612 -1.6376 -0.3555
 2374TIP3    H228614   3.237   6.310  14.802 -0.4454  1.0751  0.3747
 2375TIP3   OH228615   6.761   5.247   4.306 -0.2068 -0.1970 -0.2411
 2375TIP3    H128616   6.717   5.209   4.383 -2.5812 -0.6227 -1.7658
 2375TIP3    H228617   6.752   5.342   4.318 -0.6567 -0.2611 -0.0442
 2376TIP3   OH228618   6.641   6.419  11.331  0.1770  0.3354  0.2003
 2376TIP3    H128619   6.616   6.510  11.349  0.4077  0.1491  1.5546
 2376TIP3    H228620   6.560   6.369  11.343  0.4946  0.1150  1.5314
 2377TIP3   OH228621   2.647   0.896   5.880  0.1147  0.2056 -0.4328
 2377TIP3    H128622   2.735   0.907   5.844 -0.1032  0.5531 -0.8548
 2377TIP3    H228623   2.662   0.875   5.972  0.6903 -1.2212 -0.8428
 2378TIP3   OH228624   6.311   3.288  14.846 -0.1626 -0.0021 -0.0600
 2378TIP3    H128625   6.294   3.363  14.789  0.2469 -0.2184 -0.4735
 2378TIP3    H228626   6.227   3.270  14.888  0.2113  1.9465  1.5898
 2379TIP3   OH228627   1.751   3.723  15.651  0.3589  0.3921 -0.4319
 2379TIP3    H128628   1.814   3.789  15.681  0.6810  0.0915 -0.4523
 2379TIP3    H228629   1.705   3.697  15.731 -1.7854  2.7495 -0.8249
 2380TIP3   OH228630   0.768   6.606  16.151  0.0498 -0.0334  0.1221
 2380TIP3    H128631   0.706   6.534  16.148 -0.2829  0.1926  1.2104
 2380TIP3    H228632   0.790   6.614  16.244  3.1967 -1.3721 -0.4551
 2381TIP3   OH228633   5.793   4.440   1.465 -0.6039 -0.0209 -0.0673
 2381TIP3    H128634   5.794   4.535   1.476  1.8753 -0.1758  1.5036
 2381TIP3    H228635   5.823   4.426   1.375 -0.8226  0.6711 -0.2526
 2382TIP3   OH228636   6.720   3.895   3.389  0.7070 -0.1235 -0.1901
 2382TIP3    H128637   6.705   3.810   3.349  0.6883  0.8179 -2.2788
 2382TIP3    H228638   6.780   3.940   3.329  0.6254  1.3746  0.8024
 2383TIP3   OH228639   4.891   5.503   6.441  0.3522  0.4241  0.6934
 2383TIP3    H128640   4.961   5.447   6.473 -0.0665  0.3650  1.5341
 2383TIP3    H228641   4.921   5.592   6.461  0.0078  0.3777  1.4336
 2384TIP3   OH228642   6.088   5.890   0.179 -0.1317 -0.2540 -0.5285
 2384TIP3    H128643   6.014   5.829   0.178  0.3365 -0.8514  0.3304
 2384TIP3    H228644   6.158   5.842   0.222  0.4008  0.7169 -0.2938
 2385TIP3   OH228645   4.496   6.017   4.702  0.0770 -0.0687  0.2307
 2385TIP3    H128646   4.402   6.003   4.689  0.3453 -0.7192 -1.0431
 2385TIP3    H228647   4.514   6.102   4.661  0.2716 -0.5193 -0.6282
 2386TIP3   OH228648   6.639   1.050  15.169  0.3425 -0.4137  0.0069
 2386TIP3    H128649   6.653   0.962  15.205 -2.0540 -1.1504 -0.7779
 2386TIP3    H228650   6.653   1.108  15.243 -0.4785 -1.6385  1.1540
 2387TIP3   OH228651   1.998   5.690  16.898  0.4099  0.3548 -0.3609
 2387TIP3    H128652   2.038   5.607  16.872  0.8826  0.2012  0.7965
 2387TIP3    H228653   2.072   5.749  16.915  0.2610 -0.3125  3.0318
 2388TIP3   OH228654   5.289   1.644   3.702 -0.2888 -0.2358 -0.2400
 2388TIP3    H128655   5.199   1.673   3.712  0.6594  2.3494  1.2858
 2388TIP3    H228656   5.342   1.723   3.715  2.2181 -1.7741 -0.6569
 2389TIP3   OH228657   4.475   4.335   4.909  0.1519 -0.3133  0.4671
 2389TIP3    H128658   4.517   4.251   4.928 -0.0363 -0.7460 -0.9713
 2389TIP3    H228659   4.389   4.328   4.949  0.4700 -0.4457  1.1406
 2390TIP3   OH228660   5.199   3.307  12.625  0.1856 -0.1953  0.2583
 2390TIP3    H128661   5.193   3.240  12.557  0.3256  0.6600 -0.6153
 2390TIP3    H228662   5.182   3.389  12.579 -0.4892  0.3203  1.4079
 2391TIP3   OH228663   2.713   4.131  13.905  0.2825  0.0156  0.3583
 2391TIP3    H128664   2.761   4.083  13.838  1.8071  1.0027  0.7283
 2391TIP3    H228665   2.629   4.086  13.911  0.1107 -0.0670 -2.2348
 2392TIP3   OH228666   3.292   5.975   0.277  0.1728 -0.0893 -0.0395
 2392TIP3    H128667   3.278   5.883   0.299  0.9947  0.4285  2.7388
 2392TIP3    H228668   3.372   5.975   0.224 -0.1576 -1.0126 -0.5575
 2393TIP3   OH228669   2.480   0.463   5.833 -0.3619 -1.2320  0.1430
 2393TIP3    H128670   2.410   0.405   5.862 -1.4911 -0.6082 -1.3052
 2393TIP3    H228671   2.443   0.512   5.761  0.9592  0.4787  0.5874
 2394TIP3   OH228672   0.396   1.325  15.262  0.3708 -0.2322 -0.1344
 2394TIP3    H128673   0.447   1.342  15.341  1.4921  0.6008 -1.0281
 2394TIP3    H228674   0.450   1.265  15.211  0.1843  0.1674 -0.8088
 2395TIP3   OH228675   5.085   4.314   0.528  0.1237 -0.0112 -1.0768
 2395TIP3    H128676   5.135   4.328   0.608 -2.0811  1.2893  0.0964
 2395TIP3    H228677   5.011   4.260   0.555 -0.4488  0.1430 -2.3066
 2396TIP3   OH228678   6.664   1.461   3.465 -0.5521  0.1440 -0.2987
 2396TIP3    H128679   6.651   1.441   3.373  0.8137  0.7218 -0.6390
 2396TIP3    H228680   6.615   1.394   3.512  2.7201 -3.2472 -1.4280
 2397TIP3   OH228681   6.592   5.867   5.284  0.1416  0.1410  0.1825
 2397TIP3    H128682   6.612   5.780   5.249 -0.7018  0.0227 -0.0199
 2397TIP3    H228683   6.522   5.900   5.227 -0.9004  0.1464  1.4360
 2398TIP3   OH228684   3.054   0.407   1.914 -0.0461 -0.4353 -0.7342
 2398TIP3    H128685   3.138   0.452   1.918 -0.4182  0.1116  1.3121
 2398TIP3    H228686   3.072   0.321   1.953 -0.8267  0.3583  1.4669
 2399TIP3   OH228687   5.925   1.952  12.990 -0.1435  0.2335 -0.0575
 2399TIP3    H128688   5.899   1.904  12.911 -0.3146 -3.3227  2.0663
 2399TIP3    H228689   5.842   1.975  13.032 -0.0479  1.9689 -0.7782
 2400TIP3   OH228690   5.754   3.045  11.201  0.0622 -0.0358  0.5515
 2400TIP3    H128691   5.769   3.051  11.107 -0.3493 -3.4242  0.2152
 2400TIP3    H228692   5.815   3.109  11.239  0.6777  0.9275 -1.9635
 2401TIP3   OH228693   0.129   1.649  11.845  0.7217 -0.3877 -0.1949
 2401TIP3    H128694   0.086   1.680  11.765 -0.9554  0.0068  0.8542
 2401TIP3    H228695   0.163   1.562  11.821  0.1437 -0.3193 -1.3043
 2402TIP3   OH228696   3.925   1.559   1.039 -0.6551  0.4731 -0.4087
 2402TIP3    H128697   3.935   1.615   1.116  3.9757 -0.9357  0.1794
 2402TIP3    H228698   3.904   1.473   1.075 -1.3251  0.4314 -0.8993
 2403TIP3   OH228699   6.163   4.384   4.831 -0.0867  0.2048  0.0179
 2403TIP3    H128700   6.139   4.404   4.921  1.0479  1.0479  0.1440
 2403TIP3    H228701   6.243   4.332   4.838  0.3693  0.8191 -0.5077
 2404TIP3   OH228702   2.789   6.746   1.606  0.1273 -0.5104  0.1636
 2404TIP3    H128703   2.874   6.742   1.649 -0.3420  0.0293  1.1471
 2404TIP3    H228704   2.746   6.823   1.644 -0.6577 -0.5695 -0.5874
 2405TIP3   OH228705   0.618   3.043   5.178 -0.2540  0.5675  0.2294
 2405TIP3    H128706   0.610   3.051   5.083  1.2052 -3.0350 -0.2640
 2405TIP3    H228707   0.712   3.053   5.195 -0.5402  1.4485  1.3320
 2406TIP3   OH228708   0.358   4.735  15.677  0.1784  0.2574 -0.1989
 2406TIP3    H128709   0.344   4.721  15.584 -0.1938  1.7982 -0.4013
 2406TIP3    H228710   0.319   4.821  15.694  0.6874  0.2147  1.2718
 2407TIP3   OH228711   2.612   6.730   5.052  0.9100  0.0935  0.9873
 2407TIP3    H128712   2.606   6.768   5.140 -1.1405  0.4695  0.7182
 2407TIP3    H228713   2.542   6.665   5.049 -0.2548  1.3780 -0.9604
 2408TIP3   OH228714   4.008   4.231  10.408 -0.5125  0.0435  0.1208
 2408TIP3    H128715   3.965   4.315  10.391  0.2287  0.1401 -1.3184
 2408TIP3    H228716   4.085   4.255  10.461  0.1232  0.3813 -0.9324
 2409TIP3   OH228717   4.090   5.261  14.165  0.0249 -0.5120  0.2240
 2409TIP3    H128718   4.145   5.241  14.089 -1.0930 -1.2086 -0.4268
 2409TIP3    H228719   4.031   5.330  14.134 -0.1480 -0.4935  0.5894
 2410TIP3   OH228720   4.867   1.785   2.997  0.2487 -0.4383 -0.1922
 2410TIP3    H128721   4.802   1.715   2.988 -0.0636 -0.0602 -0.9895
 2410TIP3    H228722   4.939   1.758   2.941  0.8814 -0.9692  0.8753
 2411TIP3   OH228723   3.582   5.578   0.262  0.0480  0.0890  0.2425
 2411TIP3    H128724   3.665   5.531   0.266  0.3226  0.3716 -1.5585
 2411TIP3    H228725   3.602   5.666   0.293  0.1198 -0.2269  1.0986
 2412TIP3   OH228726   4.172   2.014   0.385  0.0381  0.0184  0.1887
 2412TIP3    H128727   4.102   2.079   0.374 -1.0452 -0.9965  0.8834
 2412TIP3    H228728   4.202   1.995   0.296 -0.4341  0.6289 -0.0993
 2413TIP3   OH228729   2.081   2.831   4.020  0.3282  0.1673  0.3664
 2413TIP3    H128730   2.117   2.820   4.108  0.8663  0.7286  0.2242
 2413TIP3    H228731   2.081   2.926   4.006 -1.1881  0.1713  0.3433
 2414TIP3   OH228732   1.404   2.829   3.813 -0.5401  0.1438  0.2785
 2414TIP3    H128733   1.432   2.747   3.853 -0.7687  0.5294  1.2623
 2414TIP3    H228734   1.347   2.803   3.741  2.7879 -0.6886 -2.2094
 2415TIP3   OH228735   2.564   0.421  13.442 -0.3954 -0.0313 -0.0791
 2415TIP3    H128736   2.571   0.495  13.503  1.3188 -0.8477  0.7326
 2415TIP3    H228737   2.632   0.438  13.376  0.2279 -1.0464  0.2960
 2416TIP3   OH228738   2.755   3.750  12.380  0.2297 -0.1222 -0.2713
 2416TIP3    H128739   2.784   3.793  12.300  0.5413 -1.6764 -0.9910
 2416TIP3    H228740   2.666   3.721  12.361  0.8568 -1.8477 -0.5854
 2417TIP3   OH228741   5.993   5.463  12.618  0.0653  0.0195 -0.0911
 2417TIP3    H128742   6.081   5.498  12.627  0.6162 -1.9837  3.5120
 2417TIP3    H228743   6.006   5.372  12.589 -0.4841 -1.4268  3.8376
 2418TIP3   OH228744   4.729   1.247  12.352  0.0298  0.3033  0.5448
 2418TIP3    H128745   4.811   1.212  12.316 -0.2896  1.0239 -0.9313
 2418TIP3    H228746   4.751   1.272  12.442  0.6658 -2.1803  1.1182
 2419TIP3   OH228747   5.980   1.594   3.974 -0.2747 -0.3274 -0.4190
 2419TIP3    H128748   5.933   1.661   4.023  1.0725 -0.1457  0.6764
 2419TIP3    H228749   6.037   1.644   3.915  1.4737 -0.4599  1.1131
 2420TIP3   OH228750   1.200   1.931  15.429  0.1249  0.4234 -0.3603
 2420TIP3    H128751   1.177   1.962  15.517  0.6722 -0.7009  0.1839
 2420TIP3    H228752   1.169   2.001  15.370 -0.4339  1.0829  0.7021
 2421TIP3   OH228753   3.466   5.841   0.534 -0.4703 -0.4707  0.4131
 2421TIP3    H128754   3.552   5.832   0.492 -1.9859 -0.6956 -2.7706
 2421TIP3    H228755   3.410   5.778   0.488 -2.5248  0.1107  2.0185
 2422TIP3   OH228756   6.011   1.716   1.078 -0.7856  0.3711 -0.0161
 2422TIP3    H128757   6.045   1.654   1.014 -0.0814  0.6164  0.1196
 2422TIP3    H228758   6.069   1.792   1.072 -4.3255  3.0099 -3.5258
 2423TIP3   OH228759   4.652   3.016  15.476  0.4651  0.5612  1.1991
 2423TIP3    H128760   4.574   3.001  15.530  1.1981  1.8334  2.6616
 2423TIP3    H228761   4.630   3.090  15.421  0.0677 -0.1245  0.4164
 2424TIP3   OH228762   0.445   2.933  13.055  0.2771 -0.2785  0.6913
 2424TIP3    H128763   0.508   2.929  12.984 -1.0787 -1.0385 -0.4961
 2424TIP3    H228764   0.467   3.012  13.103  1.4092  0.0633 -0.3800
 2425TIP3   OH228765   4.114   4.233   4.837 -0.7836 -0.8534 -0.3711
 2425TIP3    H128766   4.189   4.182   4.805 -1.8776 -1.3699 -2.1984
 2425TIP3    H228767   4.048   4.224   4.768 -2.3311  0.0611  0.9585
 2426TIP3   OH228768   2.934   4.662   1.743 -0.8154  0.1754 -0.1908
 2426TIP3    H128769   2.999   4.733   1.739 -0.5690 -0.0970 -1.2046
 2426TIP3    H228770   2.883   4.672   1.663 -1.7097  0.0876  0.3714
 2427TIP3   OH228771   4.410   3.677  16.832 -0.0467 -0.2084 -0.5992
 2427TIP3    H128772   4.443   3.737  16.898 -2.5941  0.5885  0.0048
 2427TIP3    H228773   4.471   3.603  16.833  0.7634  0.4719  1.5773
 2428TIP3   OH228774   5.745   3.098  12.430 -0.1075  0.0201  0.0062
 2428TIP3    H128775   5.664   3.085  12.480  1.4720 -0.6992  2.4730
 2428TIP3    H228776   5.754   3.193  12.423 -1.5406  0.1020 -0.9672
 2429TIP3   OH228777   1.116   1.148   1.197  0.6186 -0.6244  0.2073
 2429TIP3    H128778   1.122   1.095   1.276 -0.4393 -1.2320 -0.1117
 2429TIP3    H228779   1.074   1.229   1.225  1.0677 -0.4703  0.4406
 2430TIP3   OH228780   2.739   1.191  10.542  0.2018 -0.2517 -0.1860
 2430TIP3    H128781   2.814   1.140  10.514 -0.7719 -0.9303 -1.6263
 2430TIP3    H228782   2.701   1.141  10.614 -0.0354 -0.9508 -0.7883
 2431TIP3   OH228783   0.623   0.590  17.129  0.2488  0.6866  0.3860
 2431TIP3    H128784   0.544   0.597  17.076  0.5898  1.2419 -0.0585
 2431TIP3    H228785   0.680   0.659  17.095  1.3729 -0.4434 -0.0642
 2432TIP3   OH228786   1.066   0.897   5.257  0.4117  0.4225  0.3663
 2432TIP3    H128787   1.151   0.926   5.224 -1.3665  2.7194 -2.3667
 2432TIP3    H228788   1.017   0.872   5.180 -1.3431 -1.0992  1.9383
 2433TIP3   OH228789   5.233   5.403   4.840 -0.3496 -0.1096  0.3318
 2433TIP3    H128790   5.208   5.495   4.854  1.7222  0.4062  0.8839
 2433TIP3    H228791   5.209   5.385   4.750 -0.6276  1.0349  0.1636
 2434TIP3   OH228792   6.638   0.434   2.022  0.5484 -0.1212  0.1321
 2434TIP3    H128793   6.709   0.430   1.959 -1.2677  0.3061 -1.9990
 2434TIP3    H228794   6.660   0.507   2.079  1.7795  0.0293 -0.5231
 2435TIP3   OH228795   3.183   6.296   3.051 -0.2702 -0.1590  0.2337
 2435TIP3    H128796   3.187   6.386   3.019 -0.5249 -0.7208 -1.4028
 2435TIP3    H228797   3.135   6.302   3.134 -1.2091  1.0676 -0.3846
 2436TIP3   OH228798   0.777   5.182   4.335  0.1916 -0.1429 -0.2685
 2436TIP3    H128799   0.851   5.183   4.396 -0.9225 -0.2231  1.1066
 2436TIP3    H228800   0.790   5.259   4.280 -1.1892  2.5797  3.0417
 2437TIP3   OH228801   2.280   1.731  17.142  0.1442 -0.3381  0.5418
 2437TIP3    H128802   2.325   1.774  17.214  0.4509 -0.4618  0.4250
 2437TIP3    H228803   2.309   1.777  17.064 -1.5960  0.9817  0.6538
 2438TIP3   OH228804   2.263   2.933   1.472  0.4387  1.0917 -0.3241
 2438TIP3    H128805   2.348   2.940   1.514  0.0379 -0.2810  0.7523
 2438TIP3    H228806   2.254   2.840   1.451 -1.6400  0.8474  1.4567
 2439TIP3   OH228807   1.834   3.449   3.074  0.4678  0.2401  0.0542
 2439TIP3    H128808   1.831   3.491   2.989  1.1393  0.2950  0.0523
 2439TIP3    H228809   1.925   3.457   3.102  0.2667  0.1825  0.7556
 2440TIP3   OH228810   2.270   6.281  14.195  0.4361  0.1190 -0.4826
 2440TIP3    H128811   2.247   6.372  14.216  2.7730  0.7038 -0.3011
 2440TIP3    H228812   2.283   6.239  14.280  0.1207 -0.1855 -0.5837
 2441TIP3   OH228813   5.010   0.864   2.503 -0.2281  0.2141  0.2402
 2441TIP3    H128814   5.003   0.769   2.510 -0.1739  0.0559 -1.6466
 2441TIP3    H228815   5.011   0.882   2.409  1.1899  1.9804  0.5565
 2442TIP3   OH228816   2.545   4.573   1.253 -0.0442 -0.9069  0.5040
 2442TIP3    H128817   2.586   4.588   1.168 -0.0613 -0.6026  0.5493
 2442TIP3    H228818   2.600   4.507   1.294  0.0408 -0.9580  0.3097
 2443TIP3   OH228819   5.574   2.877  10.740 -0.3559 -0.4975  0.0558
 2443TIP3    H128820   5.658   2.914  10.769 -0.3371 -0.8036  0.3976
 2443TIP3    H228821   5.546   2.934  10.668 -0.7650  0.7432  1.1695
 2444TIP3   OH228822   5.287   3.636  11.866 -0.0896 -0.6853  0.5533
 2444TIP3    H128823   5.281   3.710  11.926 -2.3927  0.0574 -0.5062
 2444TIP3    H228824   5.294   3.676  11.779  0.0678 -1.7170  0.0801
 2445TIP3   OH228825   2.916   2.394  11.018 -0.3247  0.0868  0.0949
 2445TIP3    H128826   2.943   2.329  10.953 -2.0644 -0.0898 -0.4614
 2445TIP3    H228827   2.851   2.349  11.072 -0.4877  0.9145  0.6033
 2446TIP3   OH228828   5.777   6.546   0.895 -0.3607 -0.1999 -0.2115
 2446TIP3    H128829   5.753   6.639   0.892  0.2898  0.0029  0.8412
 2446TIP3    H228830   5.710   6.503   0.842  0.6620  1.1481 -2.6860
 2447TIP3   OH228831   3.329   6.300   1.125  0.2565  0.4755 -0.1076
 2447TIP3    H128832   3.294   6.301   1.214  0.6998 -1.8905  0.1087
 2447TIP3    H228833   3.258   6.266   1.071 -0.1826  2.3576 -0.7731
 2448TIP3   OH228834   0.730   0.142  16.212 -0.4460 -0.1928  0.2157
 2448TIP3    H128835   0.646   0.155  16.255 -0.5242  0.5443 -0.1584
 2448TIP3    H228836   0.787   0.107  16.281 -0.7766  0.2728  0.7283
 2449TIP3   OH228837   5.141   0.416   5.454 -0.6933  0.0573 -0.2500
 2449TIP3    H128838   5.131   0.476   5.380  0.5594 -0.4072 -0.8056
 2449TIP3    H228839   5.236   0.405   5.463 -0.8994 -2.1538 -0.4358
 2450TIP3   OH228840   5.570   4.106   6.809 -0.1941 -0.4436  0.0412
 2450TIP3    H128841   5.639   4.070   6.864  2.6090  2.0119 -1.7389
 2450TIP3    H228842   5.562   4.044   6.736 -0.7119 -1.3271  0.8378
 2451TIP3   OH228843   5.187   2.694  11.046 -0.1305  0.0067 -0.4499
 2451TIP3    H128844   5.280   2.702  11.025 -0.7075  2.2430 -2.4413
 2451TIP3    H228845   5.174   2.753  11.120 -0.1487  0.5334 -0.8673
 2452TIP3   OH228846   6.250   2.383   2.729  0.4017  0.5794  0.6148
 2452TIP3    H128847   6.235   2.477   2.741 -1.6606  0.1684  1.4576
 2452TIP3    H228848   6.302   2.377   2.649  0.1528  2.4228  0.2885
 2453TIP3   OH228849   4.663   2.569   5.590  0.1033  0.7780  0.4820
 2453TIP3    H128850   4.634   2.485   5.553  0.2584  0.2683  1.4935
 2453TIP3    H228851   4.587   2.600   5.640  1.0979 -0.3247  2.7426
 2454TIP3   OH228852   4.261   4.208  13.079  0.2312 -0.2273 -0.3551
 2454TIP3    H128853   4.240   4.299  13.100 -0.9778 -0.4010 -0.7744
 2454TIP3    H228854   4.183   4.174  13.036  0.8317 -1.3451 -0.5978
 2455TIP3   OH228855   1.616   3.290  12.906 -0.2870 -0.3395  0.2810
 2455TIP3    H128856   1.628   3.223  12.974 -0.0459 -0.1332  0.4412
 2455TIP3    H228857   1.696   3.342  12.909 -0.3176 -0.2697 -0.0963
 2456TIP3   OH228858   2.398   3.703  13.170 -0.7025 -0.3084  0.0354
 2456TIP3    H128859   2.340   3.630  13.153 -1.3954  0.0925  0.6511
 2456TIP3    H228860   2.341   3.772  13.203  0.1016  0.1339  0.5156
 2457TIP3   OH228861   1.499   0.023  14.954 -0.3065 -0.2136 -0.9397
 2457TIP3    H128862   1.463   0.053  15.038  2.9392  0.4738  0.2716
 2457TIP3    H228863   1.434   0.051  14.890 -0.8450  3.1179  0.9136
 2458TIP3   OH228864   1.269   5.848   3.153 -0.4783  0.0781  0.2410
 2458TIP3    H128865   1.338   5.837   3.086 -0.8004 -0.6817  0.0263
 2458TIP3    H228866   1.198   5.893   3.107 -1.1367 -1.4067 -0.2488
 2459TIP3   OH228867   2.617   3.910   0.949 -0.4638 -0.2947  0.1010
 2459TIP3    H128868   2.536   3.962   0.955 -1.4343 -1.6734 -0.6760
 2459TIP3    H228869   2.597   3.830   1.000  0.0241 -1.1148 -0.9809
 2460TIP3   OH228870   0.063   4.798   0.356  0.1632 -1.0115  0.4826
 2460TIP3    H128871   0.136   4.815   0.296 -1.3434  1.3097 -0.7839
 2460TIP3    H228872  -0.012   4.784   0.298 -0.8054 -1.3222  1.7984
 2461TIP3   OH228873   5.073   3.766   5.384 -0.2093 -0.8815  0.1275
 2461TIP3    H128874   5.120   3.721   5.454  1.6625 -0.3576 -0.7695
 2461TIP3    H228875   4.988   3.721   5.380  0.7318 -2.7983  0.7963
 2462TIP3   OH228876   2.075   5.123   4.543 -0.4106 -0.1139  0.1217
 2462TIP3    H128877   2.094   5.050   4.484 -2.8513 -0.8923  0.2068
 2462TIP3    H228878   2.054   5.081   4.627 -3.0947  0.5390 -0.1565
 2463TIP3   OH228879   2.668   3.390  11.401  0.1727  0.0921 -0.7049
 2463TIP3    H128880   2.761   3.411  11.394 -0.1397  1.6401 -0.3647
 2463TIP3    H228881   2.666   3.303  11.441  1.4776 -0.0950 -1.0259
 2464TIP3   OH228882   0.443   2.120  15.817  0.1018  0.6434 -0.1026
 2464TIP3    H128883   0.391   2.117  15.898 -1.7052 -0.8610 -1.2887
 2464TIP3    H228884   0.532   2.103  15.846 -0.4280  0.7540  1.6677
 2465TIP3   OH228885   3.963   5.202  15.172 -0.2959  0.0598  0.2059
 2465TIP3    H128886   3.941   5.221  15.263  0.0354  3.3132 -0.3305
 2465TIP3    H228887   3.912   5.125  15.151 -2.8754  1.1313  2.2095
 2466TIP3   OH228888   6.611   0.189  14.465  0.4788 -0.1070  0.2253
 2466TIP3    H128889   6.545   0.259  14.462 -0.9598 -1.4443 -0.0741
 2466TIP3    H228890   6.607   0.148  14.378  1.3584 -0.5176  0.3711
 2467TIP3   OH228891   6.084   6.342   3.505  0.2641 -0.1117  0.6679
 2467TIP3    H128892   6.179   6.346   3.519  0.7773 -1.8944 -1.8168
 2467TIP3    H228893   6.060   6.432   3.481  1.6569 -0.0005 -0.4169
 2468TIP3   OH228894   5.692   5.498  13.361  0.0262  0.0129 -0.3378
 2468TIP3    H128895   5.767   5.542  13.400  2.0659 -2.2604 -1.5502
 2468TIP3    H228896   5.711   5.494  13.268 -2.1591  0.3749 -0.8471
 2469TIP3   OH228897   0.092   1.975  14.693  0.1396  0.4198  0.4440
 2469TIP3    H128898   0.034   1.911  14.652  1.0976 -1.5935  2.1347
 2469TIP3    H228899   0.035   2.048  14.715 -1.1409 -0.1768 -0.7951
 2470TIP3   OH228900   1.725   0.717  15.375 -1.2132  0.0585 -0.2766
 2470TIP3    H128901   1.668   0.794  15.380 -2.5697 -1.0375  1.7287
 2470TIP3    H228902   1.694   0.659  15.445  0.8300 -1.6151 -0.6970
 2471TIP3   OH228903   1.473   0.584   3.862  0.3064 -0.4061 -0.2526
 2471TIP3    H128904   1.468   0.677   3.882  2.5898  0.1321 -1.9475
 2471TIP3    H228905   1.485   0.581   3.767  0.1458 -2.4377 -0.2346
 2472TIP3   OH228906   1.558   0.281  16.919  0.1493  0.7637 -0.1917
 2472TIP3    H128907   1.503   0.228  16.861 -0.7723  2.7822 -1.2106
 2472TIP3    H228908   1.648   0.255  16.897 -0.3003 -1.1565  0.1164
 2473TIP3   OH228909   2.524   2.057   5.149  0.0170  0.3160 -0.5753
 2473TIP3    H128910   2.548   2.075   5.240  2.5052  0.1136 -1.1623
 2473TIP3    H228911   2.428   2.063   5.148  0.0137  1.2742  1.8459
 2474TIP3   OH228912   5.811   4.659  12.752  0.4210  0.4619  0.8264
 2474TIP3    H128913   5.773   4.711  12.681  0.0973  1.9222  2.0428
 2474TIP3    H228914   5.785   4.705  12.832  0.3484 -1.4453  1.9301
 2475TIP3   OH228915   0.715   4.678   6.823  0.0173  0.4152 -0.6788
 2475TIP3    H128916   0.795   4.729   6.813  0.3382 -0.3237 -2.1364
 2475TIP3    H228917   0.646   4.743   6.836  0.5950  1.1665 -1.3179
 2476TIP3   OH228918   1.201   4.719   2.797  0.5532  0.0368 -0.4879
 2476TIP3    H128919   1.160   4.709   2.711  1.9166 -2.0565 -0.9225
 2476TIP3    H228920   1.293   4.699   2.782  0.6074 -1.5329  1.6766
 2477TIP3   OH228921   4.119   4.378   5.277 -0.3104 -0.4235 -0.2244
 2477TIP3    H128922   4.188   4.443   5.291  1.6889 -2.8130  1.4684
 2477TIP3    H228923   4.044   4.410   5.327  1.1570 -0.1636  1.8345
 2478TIP3   OH228924   2.377   3.088   4.077  0.0609  0.3038 -0.1089
 2478TIP3    H128925   2.315   3.098   4.149 -0.2838  0.9713 -0.4958
 2478TIP3    H228926   2.344   3.146   4.009  1.0996  0.6457 -0.3286
 2479TIP3   OH228927   1.120   4.206  13.806 -0.4615  0.0456  0.1270
 2479TIP3    H128928   1.195   4.252  13.768 -1.5046  1.2319 -0.5615
 2479TIP3    H228929   1.048   4.269  13.799 -1.4586 -0.9670  1.0327
 2480TIP3   OH228930   4.033   3.031  13.619  0.8497 -0.0514  0.1220
 2480TIP3    H128931   4.109   3.030  13.678  1.3668 -0.4066 -0.5334
 2480TIP3    H228932   4.026   2.941  13.587  0.6315  0.1511 -0.4132
 2481TIP3   OH228933   4.758   1.950   3.723 -0.3100  0.5602 -0.0037
 2481TIP3    H128934   4.735   1.878   3.781  1.3724  0.0100 -0.0006
 2481TIP3    H228935   4.781   1.908   3.640 -1.1010  1.2340 -0.5791
 2482TIP3   OH228936   1.008   1.376   0.463 -0.1512  0.3205 -0.1005
 2482TIP3    H128937   0.970   1.360   0.377 -0.8424  2.4145 -0.2022
 2482TIP3    H228938   1.090   1.327   0.462 -0.3983 -0.0880 -1.7493
 2483TIP3   OH228939   3.269   4.175   6.156 -0.6468 -0.2825  0.3150
 2483TIP3    H128940   3.326   4.239   6.199 -2.2074  0.4888  1.2845
 2483TIP3    H228941   3.186   4.182   6.202 -2.1620  0.0584 -2.3693
 2484TIP3   OH228942   5.756   5.951  12.021  0.5426 -0.0715  0.3884
 2484TIP3    H128943   5.781   5.985  11.934 -1.5614 -1.3436 -0.7581
 2484TIP3    H228944   5.789   5.861  12.022 -0.0660 -0.2984  0.6042
 2485TIP3   OH228945   1.015   5.949  15.609  0.3234 -0.0167 -0.1841
 2485TIP3    H128946   1.031   6.044  15.611  0.3909 -0.0297 -0.1054
 2485TIP3    H228947   0.987   5.932  15.519  0.8363 -0.0076 -0.3496
 2486TIP3   OH228948   5.028   1.838  14.112 -0.1421 -0.0092  0.4516
 2486TIP3    H128949   5.051   1.769  14.176  4.0876  0.5984 -0.2434
 2486TIP3    H228950   5.106   1.845  14.057 -2.7203  1.3474 -3.1461
 2487TIP3   OH228951   3.494   3.671  15.849 -0.0919 -0.3708  0.4091
 2487TIP3    H128952   3.526   3.637  15.765  0.8631 -1.0969  1.0541
 2487TIP3    H228953   3.474   3.593  15.900 -1.3155  0.0756  0.6241
 2488TIP3   OH228954   1.390   0.651  13.382  0.2333 -0.0493 -0.0491
 2488TIP3    H128955   1.324   0.692  13.439  2.2297  1.3112  1.3595
 2488TIP3    H228956   1.409   0.568  13.425  0.9362  0.4852  0.6867
 2489TIP3   OH228957   2.612   6.269   2.236 -0.4885  0.1759  0.3975
 2489TIP3    H128958   2.629   6.211   2.162  1.7770  0.1482  0.9018
 2489TIP3    H228959   2.619   6.357   2.199 -0.3498  0.1546  0.3721
 2490TIP3   OH228960   6.373   6.609   1.584  0.2979  0.4149 -0.1382
 2490TIP3    H128961   6.447   6.637   1.637  0.3443  2.0700 -1.0306
 2490TIP3    H228962   6.368   6.674   1.514 -1.9584  0.2923 -0.1313
 2491TIP3   OH228963   1.144   6.427   2.161 -0.4572  0.4363  0.8502
 2491TIP3    H128964   1.084   6.462   2.096 -0.6636 -0.0147  0.8002
 2491TIP3    H228965   1.090   6.411   2.239 -0.3075  0.4961  0.9686
 2492TIP3   OH228966   1.127   2.694   4.941  0.1170  0.6737 -0.1359
 2492TIP3    H128967   1.204   2.697   4.998 -2.2222 -1.7178  3.3447
 2492TIP3    H228968   1.097   2.785   4.936  2.2817  1.4003 -0.3086
 2493TIP3   OH228969   5.246   0.765   4.374 -0.2940 -0.7581  0.3932
 2493TIP3    H128970   5.332   0.792   4.344 -0.8823  1.1376  0.3335
 2493TIP3    H228971   5.261   0.681   4.418  1.4477 -0.8058 -0.2590
 2494TIP3   OH228972   0.278   0.616  13.306  0.1558  0.4577 -0.2128
 2494TIP3    H128973   0.295   0.527  13.275 -0.5753 -0.1038  0.9442
 2494TIP3    H228974   0.233   0.659  13.234 -1.0264 -0.6473 -0.1616
 2495TIP3   OH228975   3.482   3.724  11.671 -0.3594 -0.3175  0.0923
 2495TIP3    H128976   3.483   3.644  11.618 -1.9729  0.5714 -1.3483
 2495TIP3    H228977   3.479   3.694  11.761  0.4942 -1.8816 -0.3889
 2496TIP3   OH228978   3.328   4.599  14.449  0.4389 -0.1015  0.0553
 2496TIP3    H128979   3.394   4.535  14.423  1.4033  0.2136  1.6887
 2496TIP3    H228980   3.340   4.610  14.543 -2.2067 -0.3470  0.4668
 2497TIP3   OH228981   3.039   2.933   5.844  0.0654  0.2546 -0.1687
 2497TIP3    H128982   3.102   2.982   5.896  0.3038 -0.2804  0.0483
 2497TIP3    H228983   3.048   2.968   5.755 -0.8351  1.6598  0.2717
 2498TIP3   OH228984   2.794   2.432  13.120 -0.0705  0.1177 -0.2672
 2498TIP3    H128985   2.875   2.465  13.159  0.4205 -1.8039  0.4220
 2498TIP3    H228986   2.823   2.387  13.041 -0.3638 -1.1461  0.3290
 2499TIP3   OH228987   2.794   3.844   5.000  0.2205  0.2346 -0.0871
 2499TIP3    H128988   2.728   3.902   4.962  0.3053  1.6031  1.7710
 2499TIP3    H228989   2.744   3.777   5.045 -0.0036  2.0406  2.4954
 2500TIP3   OH228990   5.177   4.741  15.702 -0.1422  0.2262  0.3382
 2500TIP3    H128991   5.231   4.817  15.723  2.0972 -0.9175 -1.0953
 2500TIP3    H228992   5.240   4.674  15.675 -2.4104 -0.3296 -3.9906
 2501TIP3   OH228993   6.204   3.154  16.168  0.1998  0.9539  0.0575
 2501TIP3    H128994   6.199   3.116  16.080  1.2776  1.0683 -0.0540
 2501TIP3    H228995   6.124   3.124  16.211  0.1303  0.0999 -0.6509
 2502TIP3   OH228996   6.559   0.702  14.420  0.0673 -0.1323 -0.0122
 2502TIP3    H128997   6.520   0.624  14.380  0.6467  0.3202 -1.4856
 2502TIP3    H228998   6.629   0.668  14.476 -0.7694 -0.7721  0.6614
 2503TIP3   OH228999   1.634   5.872   4.168  0.0478  0.0383 -0.2707
 2503TIP3    H129000   1.696   5.840   4.102  0.2421  0.2614 -0.1988
 2503TIP3    H229001   1.648   5.814   4.243 -1.1411 -1.0762 -0.9003
 2504TIP3   OH229002   2.336   3.531  10.831  0.3639 -0.9355 -0.3030
 2504TIP3    H129003   2.362   3.611  10.875  0.8304 -1.4525  0.3609
 2504TIP3    H229004   2.288   3.481  10.897 -2.0523 -0.1642 -1.3800
 2505TIP3   OH229005   2.268   1.121  11.592  0.0047 -0.4901  0.0143
 2505TIP3    H129006   2.337   1.102  11.655 -0.5461 -0.2182  0.7139
 2505TIP3    H229007   2.212   1.044  11.594  0.7058 -1.0392 -1.1273
 2506TIP3   OH229008   1.504   3.969  16.487  0.0887 -0.0936  0.3600
 2506TIP3    H129009   1.521   4.062  16.474  2.4264 -0.5608 -0.2472
 2506TIP3    H229010   1.495   3.933  16.399  0.4397 -0.6384  0.5360
 2507TIP3   OH229011   1.890   3.836   0.560 -0.3480 -0.6432  0.2437
 2507TIP3    H129012   1.831   3.875   0.625 -1.2071 -0.4079 -0.6514
 2507TIP3    H229013   1.855   3.748   0.546  0.3638 -1.0058  0.7522
 2508TIP3   OH229014   5.690   0.263  10.592  0.9510 -0.2035 -0.3863
 2508TIP3    H129015   5.611   0.238  10.544 -0.3044 -1.8226  2.4032
 2508TIP3    H229016   5.762   0.225  10.541 -0.1163  0.4385 -2.4171
 2509TIP3   OH229017   5.495   3.069   2.962  0.6559  0.2107 -0.9352
 2509TIP3    H129018   5.579   3.036   2.932 -0.4066 -1.8674 -1.7523
 2509TIP3    H229019   5.493   3.161   2.936  1.7277 -0.3230 -2.9276
 2510TIP3   OH229020   4.448   6.716  14.142  0.1816  0.2942  0.7399
 2510TIP3    H129021   4.363   6.671  14.138 -0.2597  1.2335 -1.2453
 2510TIP3    H229022   4.513   6.646  14.134 -0.4432 -0.2595  0.4419
 2511TIP3   OH229023   4.092   2.951  15.623  0.1771 -0.1066  0.4421
 2511TIP3    H129024   4.018   2.896  15.650 -1.7700  2.1831 -0.0753
 2511TIP3    H229025   4.100   2.935  15.529 -0.3449  0.4386  0.3042
 2512TIP3   OH229026   3.953   0.150  16.211 -0.0259  0.3099  0.3199
 2512TIP3    H129027   4.027   0.208  16.231 -0.0135  0.7137 -0.8379
 2512TIP3    H229028   3.949   0.089  16.285  0.1548  1.5852  1.4083
 2513TIP3   OH229029   6.066   2.137  12.839 -0.6911 -0.0451  0.0679
 2513TIP3    H129030   6.114   2.123  12.757 -0.3503 -1.9959  0.5868
 2513TIP3    H229031   5.976   2.112  12.820 -0.2320 -2.3218  0.7907
 2514TIP3   OH229032   4.374   2.217  13.428 -0.4651  0.0623 -0.6514
 2514TIP3    H129033   4.301   2.274  13.454  0.3185  0.3525  0.9809
 2514TIP3    H229034   4.448   2.247  13.481  0.9000 -0.1041 -2.4418
 2515TIP3   OH229035   5.518   6.323  10.886  0.0546 -0.1735  0.9042
 2515TIP3    H129036   5.461   6.259  10.844 -1.5724 -0.5429  3.5965
 2515TIP3    H229037   5.573   6.356  10.815 -3.3648  0.0738 -1.7475
 2516TIP3   OH229038   5.668   3.629  13.197 -0.0854  0.2032  0.2347
 2516TIP3    H129039   5.597   3.656  13.256  0.3952  2.9123 -0.3946
 2516TIP3    H229040   5.630   3.558  13.145 -2.1104  1.1266  0.4189
 2517TIP3   OH229041   0.685   6.326   0.545  0.0150  0.2203 -0.1552
 2517TIP3    H129042   0.651   6.275   0.471 -1.6307  0.5909  0.3294
 2517TIP3    H229043   0.639   6.291   0.621  1.9086 -0.3524  0.7605
 2518TIP3   OH229044   3.878   3.228  12.230  0.1162  0.3714  0.0453
 2518TIP3    H129045   3.845   3.315  12.250 -1.0359 -0.1073  0.2876
 2518TIP3    H229046   3.828   3.200  12.154  0.6559  0.0215 -0.1845
 2519TIP3   OH229047   4.476   1.082  10.698 -0.6148  0.0191 -0.0746
 2519TIP3    H129048   4.413   1.147  10.667 -0.8268  0.4371  1.2195
 2519TIP3    H229049   4.493   1.027  10.621  0.4176  2.2751 -1.5343
 2520TIP3   OH229050   3.084   1.086  12.240 -0.5082  0.4057  0.3436
 2520TIP3    H129051   3.055   1.133  12.162  1.4032  0.0775 -0.5973
 2520TIP3    H229052   3.103   1.155  12.304 -0.8807  0.7363  0.1004
 2521TIP3   OH229053   2.975   2.810   6.116 -0.2507 -0.3433  0.3527
 2521TIP3    H129054   3.034   2.869   6.161  1.8983 -2.1438 -0.0318
 2521TIP3    H229055   3.011   2.802   6.027 -0.6884 -1.9264  0.2914
 2522TIP3   OH229056   1.458   6.797   6.547 -1.0654  0.0288  0.0300
 2522TIP3    H129057   1.505   6.816   6.466  0.1541 -0.6465  0.5691
 2522TIP3    H229058   1.524   6.806   6.616 -1.3223 -2.4954  0.6599
 2523TIP3   OH229059   2.659   3.541   5.106  0.4590  0.3866 -0.0929
 2523TIP3    H129060   2.658   3.492   5.024  0.0207 -0.5374  0.4516
 2523TIP3    H229061   2.742   3.517   5.147  1.0024  1.4119 -0.6020
 2524TIP3   OH229062   1.270   2.686   1.487 -0.3852 -0.6464 -0.3051
 2524TIP3    H129063   1.293   2.626   1.417  1.0036 -0.3854 -0.0757
 2524TIP3    H229064   1.221   2.632   1.549  0.0668 -1.3242 -0.5335
 2525TIP3   OH229065   4.594   0.599  12.419  0.2677  0.3650  0.1366
 2525TIP3    H129066   4.681   0.579  12.452  0.3927  0.5345 -0.0879
 2525TIP3    H229067   4.537   0.593  12.495  0.3979 -0.2327  0.1902
 2526TIP3   OH229068   5.510   1.002   0.665  0.0657  0.3152  0.6431
 2526TIP3    H129069   5.595   1.037   0.636  0.3180  0.6000  1.6940
 2526TIP3    H229070   5.502   1.032   0.756 -1.5859  1.0525  0.2553
 2527TIP3   OH229071   4.455   4.556  14.975  0.3771 -0.0520 -0.0519
 2527TIP3    H129072   4.490   4.629  15.026  2.3621 -0.0221 -1.4166
 2527TIP3    H229073   4.532   4.513  14.938 -0.9540 -0.7338 -2.1157
 2528TIP3   OH229074   0.888   4.773  13.808 -0.3384 -0.0644  0.3928
 2528TIP3    H129075   0.964   4.797  13.862  0.1183  1.3148 -0.8058
 2528TIP3    H229076   0.818   4.831  13.838 -0.6614 -0.6861  0.8533
 2529TIP3   OH229077   3.410   2.378   4.792 -0.4346 -0.2322  0.3351
 2529TIP3    H129078   3.428   2.346   4.704  0.9263  0.9724  0.1580
 2529TIP3    H229079   3.492   2.417   4.821 -1.4814  1.3209  1.2922
 2530TIP3   OH229080   2.244   4.538   4.577  0.1554 -0.4100 -0.3566
 2530TIP3    H129081   2.334   4.547   4.609 -0.1969 -0.6926  0.7589
 2530TIP3    H229082   2.199   4.616   4.611 -0.1030 -0.4554 -0.5979
 2531TIP3   OH229083   6.741   1.528  17.174 -0.5219  0.1804 -0.4045
 2531TIP3    H129084   6.826   1.571  17.181 -0.5666  0.3988 -1.1296
 2531TIP3    H229085   6.719   1.533  17.081 -1.0390 -0.4317 -0.3226
 2532TIP3   OH229086   6.028   0.584  13.127 -0.4679 -0.5166 -0.3978
 2532TIP3    H129087   6.034   0.491  13.150 -1.1643 -0.5153 -0.2130
 2532TIP3    H229088   5.941   0.610  13.155  0.3303  0.6232  1.0795
 2533TIP3   OH229089   1.402   4.695   3.079 -0.0170 -0.0983 -0.4519
 2533TIP3    H129090   1.412   4.708   2.985  0.1182  0.0161 -0.4203
 2533TIP3    H229091   1.367   4.606   3.086  0.6857 -0.3898 -0.5703
 2534TIP3   OH229092   6.245   1.454   2.153 -0.1749 -0.4315 -0.2305
 2534TIP3    H129093   6.181   1.387   2.128 -1.1117 -0.0389  1.0634
 2534TIP3    H229094   6.225   1.528   2.097  1.7305 -1.6528 -2.6186
 2535TIP3   OH229095   3.246   5.089  16.246 -0.1573  0.3293 -0.2254
 2535TIP3    H129096   3.207   5.030  16.310 -1.1585  2.2875  1.0223
 2535TIP3    H229097   3.219   5.055  16.161  1.8219 -2.7566  0.2869
 2536TIP3   OH229098   1.976   3.019  13.074 -0.1887 -0.6608 -1.0479
 2536TIP3    H129099   1.956   2.962  13.000  1.3770 -0.9851 -1.2382
 2536TIP3    H229100   2.065   2.994  13.100 -0.2557  0.3064  0.1528
 2537TIP3   OH229101   4.607   0.572   4.958  0.4439 -0.1637 -0.3319
 2537TIP3    H129102   4.636   0.494   5.006 -1.2521  0.6880  2.1904
 2537TIP3    H229103   4.667   0.641   4.987 -0.8137  0.4347  0.9015
 2538TIP3   OH229104   0.850   4.912  14.893  0.6440  0.5101 -0.2902
 2538TIP3    H129105   0.938   4.877  14.906 -0.1631 -1.0919  1.1164
 2538TIP3    H229106   0.798   4.873  14.964 -0.8239  2.7709 -0.0505
 2539TIP3   OH229107   3.920   1.474  15.420 -0.5032  0.0995 -0.6318
 2539TIP3    H129108   3.878   1.438  15.342 -1.7644 -0.8608  0.4653
 2539TIP3    H229109   3.889   1.419  15.491  1.2484  0.4963  0.4510
 2540TIP3   OH229110   3.943   3.802  14.165  0.1001 -0.6483 -0.4688
 2540TIP3    H129111   3.889   3.726  14.184 -0.3063 -0.2900 -0.1863
 2540TIP3    H229112   3.891   3.854  14.103 -1.7310  1.7632  2.9228
 2541TIP3   OH229113   3.593   3.987   1.841 -0.0120  0.0570  0.0013
 2541TIP3    H129114   3.542   4.064   1.816 -2.1140 -1.1257  0.5239
 2541TIP3    H229115   3.678   3.999   1.798 -0.1162  2.9205  0.5260
 2542TIP3   OH229116   4.275   1.766   1.259  0.8054 -0.0724 -0.7067
 2542TIP3    H129117   4.224   1.847   1.258 -0.4487 -0.8520 -1.1668
 2542TIP3    H229118   4.314   1.761   1.172 -1.6205 -1.4903 -1.7667
 2543TIP3   OH229119   3.977   6.467   2.272  0.9658 -0.3308 -0.0944
 2543TIP3    H129120   3.938   6.458   2.185  1.3523 -0.7007 -0.2299
 2543TIP3    H229121   4.065   6.501   2.256  0.7546  0.3550  0.2017
 2544TIP3   OH229122   5.967   2.113   2.019 -0.2332 -0.3110  0.3217
 2544TIP3    H129123   5.872   2.123   2.030 -0.4539 -1.4037 -0.4661
 2544TIP3    H229124   5.990   2.175   1.950 -0.8449 -1.9505 -1.3985
 2545TIP3   OH229125   1.845   4.309   5.269  0.8773 -0.4024 -0.3462
 2545TIP3    H129126   1.838   4.217   5.245  1.8192 -0.7749  0.7725
 2545TIP3    H229127   1.821   4.311   5.362  2.2913  0.2551  0.0209
 2546TIP3   OH229128   6.008   0.378  13.973  0.2929  0.0304  0.1870
 2546TIP3    H129129   5.940   0.355  13.910 -0.0502  1.2176  0.1204
 2546TIP3    H229130   6.002   0.310  14.040 -1.4965  0.5559  0.5878
 2547TIP3   OH229131   4.019   3.161  10.930  0.3467  0.0841 -0.3910
 2547TIP3    H129132   4.114   3.149  10.932  0.4264  0.4706 -1.6536
 2547TIP3    H229133   3.985   3.083  10.887  0.2348  0.6946 -1.4311
 2548TIP3   OH229134   5.412   3.981   0.279  0.0488  0.2431 -0.1450
 2548TIP3    H129135   5.368   4.030   0.209 -0.4278  1.3175  0.8877
 2548TIP3    H229136   5.421   4.044   0.350  1.0564 -0.6746  0.5571
 2549TIP3   OH229137   4.959   1.694  11.563  0.5745 -0.1399  0.0172
 2549TIP3    H129138   5.035   1.638  11.544  0.9050  0.3030  0.0200
 2549TIP3    H229139   4.991   1.756  11.628 -0.8315 -2.2893  2.8575
 2550TIP3   OH229140   1.949   1.505  12.083 -0.3769 -0.2012  0.1429
 2550TIP3    H129141   1.930   1.584  12.032  0.3271 -1.0681 -1.4738
 2550TIP3    H229142   1.953   1.536  12.174 -0.5447  1.5419 -0.4248
 2551TIP3   OH229143   4.952   4.630   3.058  0.7062  0.6336  0.6061
 2551TIP3    H129144   4.960   4.608   3.151 -1.8530  0.0747  0.7203
 2551TIP3    H229145   4.998   4.559   3.013 -1.8737 -1.5171  1.2678
 2552TIP3   OH229146   0.609   0.361  11.974  0.5869  0.0842  0.2590
 2552TIP3    H129147   0.576   0.274  11.994 -0.6434  0.2017 -1.1763
 2552TIP3    H229148   0.531   0.413  11.955  1.2739  1.6110  1.4895
 2553TIP3   OH229149   4.602   1.327   3.320 -0.8467 -0.4650  0.6230
 2553TIP3    H129150   4.644   1.242   3.302 -3.1069 -1.5977  0.5082
 2553TIP3    H229151   4.599   1.331   3.416  1.0379  0.4253  0.6746
 2554TIP3   OH229152   2.637   6.288  13.026  0.5289  0.3325 -0.3947
 2554TIP3    H129153   2.614   6.253  13.112  0.3675 -1.8144 -1.2783
 2554TIP3    H229154   2.706   6.351  13.044 -0.0284  0.4702  1.3905
 2555TIP3   OH229155   5.230   6.570  11.511  0.0253 -0.0598  0.2028
 2555TIP3    H129156   5.269   6.649  11.473  0.6256 -1.2801 -1.8455
 2555TIP3    H229157   5.279   6.498  11.470  0.1681 -1.4725  2.7825
 2556TIP3   OH229158   2.854   4.204   2.561  0.7738 -0.0783 -0.1486
 2556TIP3    H129159   2.941   4.166   2.570 -0.1888 -2.1097  0.7417
 2556TIP3    H229160   2.848   4.267   2.633  1.0782 -0.7886  0.5039
 2557TIP3   OH229161   3.319   2.772   0.334 -0.2523  0.1512  0.0397
 2557TIP3    H129162   3.242   2.716   0.328  0.7701 -1.3182  0.4760
 2557TIP3    H229163   3.363   2.745   0.414  0.5132  1.2456 -0.0019
 2558TIP3   OH229164   5.038   5.703  16.093 -0.0728  0.5210 -0.0886
 2558TIP3    H129165   4.954   5.664  16.115 -0.0396  0.3546 -0.2610
 2558TIP3    H229166   5.090   5.630  16.058  0.8103  0.1772  1.8448
 2559TIP3   OH229167   1.384   3.119  13.276 -0.4548 -0.3452 -0.3568
 2559TIP3    H129168   1.443   3.191  13.297  0.1437 -0.2402 -2.3505
 2559TIP3    H229169   1.416   3.046  13.330  0.3885  0.2143 -0.0875
 2560TIP3   OH229170   0.312   2.876  15.311  0.5159 -0.0993 -0.6372
 2560TIP3    H129171   0.299   2.782  15.299  1.5442 -0.2220 -0.8139
 2560TIP3    H229172   0.403   2.885  15.339  0.5026  0.8616 -0.8706
 2561TIP3   OH229173   3.300   1.780   1.043  0.0379  0.1554  0.5240
 2561TIP3    H129174   3.337   1.817   0.962  1.2602  1.3162  1.5760
 2561TIP3    H229175   3.271   1.857   1.093 -1.7946 -0.6231  0.6940
 2562TIP3   OH229176   2.329   3.894   1.412  0.0671  0.5082 -0.1065
 2562TIP3    H129177   2.392   3.841   1.462  0.3823  1.0080  0.0303
 2562TIP3    H229178   2.318   3.846   1.330  0.8294  0.5445 -0.2387
 2563TIP3   OH229179   2.082   1.434  15.353  0.6670 -0.5067 -0.1169
 2563TIP3    H129180   2.092   1.435  15.448  0.0401  1.5153 -0.0378
 2563TIP3    H229181   2.024   1.508  15.334 -0.4412 -1.7944 -1.9481
 2564TIP3   OH229182   2.822   1.772   6.395 -0.0801 -0.6126 -0.3705
 2564TIP3    H129183   2.841   1.827   6.470 -2.0620  2.3671 -1.9366
 2564TIP3    H229184   2.894   1.789   6.334 -1.6641  1.8585 -1.6423
 2565TIP3   OH229185   4.664   4.719  14.421 -0.1226 -0.5821 -0.8438
 2565TIP3    H129186   4.577   4.756  14.433 -0.6592 -1.6651 -1.3626
 2565TIP3    H229187   4.685   4.678  14.505 -0.0435 -0.1961 -0.6724
 2566TIP3   OH229188   2.074   5.648   3.544 -0.1795  0.0493 -0.2184
 2566TIP3    H129189   2.126   5.662   3.623 -0.2510 -1.9289  0.1976
 2566TIP3    H229190   2.018   5.726   3.538 -1.3276 -0.4878  2.5808
 2567TIP3   OH229191   3.051   6.267  11.912 -0.1149  0.2947 -0.2444
 2567TIP3    H129192   3.087   6.322  11.843  0.0491 -1.1507 -1.3257
 2567TIP3    H229193   3.059   6.320  11.992  1.1144  1.3622 -1.0631
 2568TIP3   OH229194   4.641   0.497   3.609 -0.6878 -0.2827  0.0890
 2568TIP3    H129195   4.704   0.568   3.593 -1.0312  0.4110  1.6898
 2568TIP3    H229196   4.606   0.476   3.523 -0.4758  1.4019 -0.4312
 2569TIP3   OH229197   4.591   6.503   1.585  0.5407 -0.0903  0.3014
 2569TIP3    H129198   4.654   6.553   1.637  1.8772  1.0932 -2.3638
 2569TIP3    H229199   4.511   6.556   1.585  1.8461  1.9793 -2.2296
 2570TIP3   OH229200   0.353   1.029  13.509 -0.0348  0.7966 -0.6341
 2570TIP3    H129201   0.370   0.940  13.540 -0.6777  0.7507 -0.4057
 2570TIP3    H229202   0.436   1.075  13.519 -0.4138  0.9841  1.7878
 2571TIP3   OH229203   6.707   5.096  13.240 -0.2707  0.0169  0.9307
 2571TIP3    H129204   6.684   5.105  13.148  0.4851 -0.7744  0.6642
 2571TIP3    H229205   6.624   5.075  13.283 -0.3258 -1.3033  0.1923
 2572TIP3   OH229206   1.868   6.731   5.322  0.4572  0.2335 -0.0455
 2572TIP3    H129207   1.774   6.717   5.320  0.3480  0.6933  1.2878
 2572TIP3    H229208   1.905   6.648   5.352  0.5745 -0.2660 -1.4979
 2573TIP3   OH229209   0.863   4.494   6.956  0.4186  0.1002  0.0920
 2573TIP3    H129210   0.813   4.569   6.923  0.8786  1.3319  2.0920
 2573TIP3    H229211   0.817   4.468   7.036  1.3115 -0.6070  0.3793
 2574TIP3   OH229212   5.767   3.716   6.107 -0.0849  0.6789 -0.1680
 2574TIP3    H129213   5.745   3.737   6.198  0.7869  0.2413  0.1590
 2574TIP3    H229214   5.753   3.622   6.100  0.6713  0.5651 -0.2382
 2575TIP3   OH229215   1.044   0.489   5.929 -0.1403 -0.8155 -0.0986
 2575TIP3    H129216   1.022   0.472   6.020 -0.1322 -0.9478 -0.1217
 2575TIP3    H229217   0.959   0.501   5.886 -0.0759  1.3597  0.3432
 2576TIP3   OH229218   0.208   5.378   3.872  0.4593  0.5284 -0.5143
 2576TIP3    H129219   0.238   5.459   3.914  2.4537  0.2715 -1.3545
 2576TIP3    H229220   0.282   5.352   3.817 -0.2304 -1.7805 -0.3871
 2577TIP3   OH229221   6.384   1.757  17.159  0.5552 -0.0008  0.0571
 2577TIP3    H129222   6.363   1.736  17.068  1.6229  1.1294 -0.4684
 2577TIP3    H229223   6.478   1.742  17.166  0.9659  2.4315  0.2402
 2578TIP3   OH229224   3.390   4.729   5.838 -0.6609  0.0351 -0.1921
 2578TIP3    H129225   3.322   4.664   5.819 -0.2150 -0.7844  0.9678
 2578TIP3    H229226   3.472   4.680   5.826 -0.3037  0.6241 -0.1394
 2579TIP3   OH229227   5.470   4.745  16.080 -0.2245  0.0415 -0.2785
 2579TIP3    H129228   5.385   4.710  16.109 -0.0653 -0.6082 -0.5982
 2579TIP3    H229229   5.534   4.686  16.118  0.0597  0.1399 -0.6094
 2580TIP3   OH229230   0.132   4.384   4.903 -0.2396 -0.5860  0.7453
 2580TIP3    H129231   0.057   4.350   4.953 -1.2955 -0.7702 -0.9468
 2580TIP3    H229232   0.110   4.475   4.887 -0.0466 -0.6135  0.3326
 2581TIP3   OH229233   0.458   2.977  11.081  0.1180 -0.5623  0.5099
 2581TIP3    H129234   0.505   2.896  11.100  0.2287 -1.0854 -1.8142
 2581TIP3    H229235   0.525   3.045  11.086  0.2192 -0.7235  1.5166
 2582TIP3   OH229236   3.668   1.831  12.268 -0.0758 -0.4197 -0.2937
 2582TIP3    H129237   3.604   1.767  12.300 -0.5315  0.3020  0.2371
 2582TIP3    H229238   3.616   1.893  12.218  0.2043  0.2015  0.1860
 2583TIP3   OH229239   0.056   5.305  15.547  0.3413  0.7014  0.6545
 2583TIP3    H129240   0.037   5.253  15.469  1.8299  2.6587 -1.0753
 2583TIP3    H229241   0.117   5.251  15.597  0.6612  0.1090 -0.3580
 2584TIP3   OH229242   5.946   5.290  13.056 -0.1265 -0.2812 -0.4416
 2584TIP3    H129243   6.025   5.299  13.003  0.0838  0.4354 -0.0100
 2584TIP3    H229244   5.939   5.373  13.103 -0.6462 -0.6818  0.1904
 2585TIP3   OH229245   1.176   1.615   6.052  0.1784 -0.2693  0.0768
 2585TIP3    H129246   1.208   1.701   6.078 -1.9099  0.8099 -0.7859
 2585TIP3    H229247   1.148   1.574   6.133 -0.9592  0.8025  0.2454
 2586TIP3   OH229248   2.777   2.230   1.598  0.5724 -0.4989 -0.3424
 2586TIP3    H129249   2.716   2.216   1.526  1.9056  2.5738 -2.1458
 2586TIP3    H229250   2.748   2.311   1.639  1.5065 -0.7537  0.8569
 2587TIP3   OH229251   4.347   5.025  15.167  0.3072  0.5608 -0.0143
 2587TIP3    H129252   4.300   4.942  15.180  0.2611  0.7637  1.2342
 2587TIP3    H229253   4.381   5.020  15.078 -0.8864 -0.1995 -0.4427
 2588TIP3   OH229254   6.696   5.809   2.320  0.9677  0.4665  0.1349
 2588TIP3    H129255   6.698   5.792   2.414  0.2441  1.5233  0.3491
 2588TIP3    H229256   6.741   5.734   2.281 -2.7514 -2.3755  0.9850
 2589TIP3   OH229257   5.086   1.586   5.385 -0.1108  0.1161 -0.2869
 2589TIP3    H129258   5.120   1.546   5.466  0.1078  1.1616  0.1541
 2589TIP3    H229259   5.026   1.521   5.350 -1.4965  0.3209  1.6056
 2590TIP3   OH229260   3.170   3.669   1.865 -0.3778 -0.1316  0.1249
 2590TIP3    H129261   3.235   3.725   1.906 -1.4276  2.0845 -1.0852
 2590TIP3    H229262   3.218   3.591   1.838  1.5773  1.0398  0.1195
 2591TIP3   OH229263   0.388   5.504  13.484  0.5628  0.1489  0.3784
 2591TIP3    H129264   0.445   5.517  13.560  1.0433  1.5168 -0.1936
 2591TIP3    H229265   0.373   5.593  13.450 -2.3348 -0.1290  0.8036
 2592TIP3   OH229266   6.779   5.444  14.979  0.8373 -0.1210 -0.9414
 2592TIP3    H129267   6.788   5.523  14.925 -1.1809 -0.3002 -1.5880
 2592TIP3    H229268   6.764   5.373  14.917  0.3610 -0.6387 -0.2562
 2593TIP3   OH229269   4.709   1.177   4.999  0.0533  0.7600  0.0389
 2593TIP3    H129270   4.652   1.109   4.965 -0.3041  1.3696 -0.6055
 2593TIP3    H229271   4.784   1.130   5.037 -0.7957 -0.0253  0.7482
 2594TIP3   OH229272   1.473   3.434  11.084  0.2275 -0.4060  0.3182
 2594TIP3    H129273   1.515   3.358  11.044  3.8170  1.6503 -0.0844
 2594TIP3    H229274   1.543   3.500  11.089 -2.5123  2.5524  1.4783
 2595TIP3   OH229275   3.000   5.948   2.039  0.0743 -0.5550 -0.7874
 2595TIP3    H129276   2.960   5.991   2.114  0.5928 -1.7236  0.1844
 2595TIP3    H229277   3.032   6.020   1.984 -1.9494  0.3374 -0.8147
 2596TIP3   OH229278   3.996   1.122   3.092  0.4262  0.1613 -0.5589
 2596TIP3    H129279   4.032   1.210   3.106 -0.0429  0.0705  1.4930
 2596TIP3    H229280   3.920   1.136   3.035 -0.1542  1.2309  0.4389
 2597TIP3   OH229281   0.825   0.456  17.259 -0.8829 -0.1589  0.8290
 2597TIP3    H129282   0.868   0.535  17.292  0.7484 -0.5172 -0.3795
 2597TIP3    H229283   0.759   0.487  17.198  0.3447  0.2450 -0.3014
 2598TIP3   OH229284   5.795   0.325   1.026  0.5427 -0.0041  0.1202
 2598TIP3    H129285   5.885   0.308   1.054  0.9181 -0.7198 -1.4531
 2598TIP3    H229286   5.796   0.309   0.931 -1.1437  0.3813  0.0218
 2599TIP3   OH229287   1.301   3.090  13.677 -0.0634 -0.2816 -0.6965
 2599TIP3    H129288   1.309   2.995  13.685 -1.1004 -0.6730 -3.5354
 2599TIP3    H229289   1.384   3.117  13.637 -0.2312 -0.1409 -0.9490
 2600TIP3   OH229290   6.120   3.255   3.391  0.5364 -0.1103  0.1453
 2600TIP3    H129291   6.092   3.266   3.482 -1.7851  2.0368 -0.7656
 2600TIP3    H229292   6.099   3.338   3.349 -1.5856 -2.1471 -3.0994
 2601TIP3   OH229293   4.640   0.254  14.391  0.3207  0.7155 -0.7524
 2601TIP3    H129294   4.673   0.198  14.320  1.0256  0.6970 -0.4223
 2601TIP3    H229295   4.717   0.306  14.417  0.6279 -0.7574  1.4094
 2602TIP3   OH229296   4.610   2.976  12.312 -0.0080  0.3497 -0.8712
 2602TIP3    H129297   4.593   3.021  12.395  1.0989  1.3525 -1.1757
 2602TIP3    H229298   4.594   2.883  12.331  0.3500  0.5549  0.4869
 2603TIP3   OH229299   6.244   6.817  16.077 -0.3275  0.4071  0.3274
 2603TIP3    H129300   6.184   6.815  16.151  0.2653  1.1198  0.8391
 2603TIP3    H229301   6.313   6.879  16.103 -0.5281  1.2900 -1.1449
 2604TIP3   OH229302   4.772   5.417  12.543  0.1992 -0.2471  0.0800
 2604TIP3    H129303   4.697   5.473  12.562  0.8283  0.8196 -0.5060
 2604TIP3    H229304   4.738   5.328  12.549 -0.4895  0.1428  2.4326
 2605TIP3   OH229305   1.519   3.572  16.626  0.1572 -0.1373  0.1715
 2605TIP3    H129306   1.521   3.606  16.716 -0.4154  0.7677 -0.1501
 2605TIP3    H229307   1.588   3.619  16.581  1.2475 -1.4587  0.4263
 2606TIP3   OH229308   1.095   2.881  13.066 -0.0333 -0.4732 -0.1996
 2606TIP3    H129309   1.027   2.885  12.998  0.5177 -0.5374 -0.7599
 2606TIP3    H229310   1.106   2.972  13.094 -0.8334 -0.5504  0.3788
 2607TIP3   OH229311   4.589   4.529   1.047  0.3764  0.0783 -0.1060
 2607TIP3    H129312   4.519   4.592   1.030  0.4795  0.3837  0.5956
 2607TIP3    H229313   4.564   4.452   0.997  1.0167  1.1766 -2.1988
 2608TIP3   OH229314   6.285   1.090  11.144  1.0192 -0.3212  0.0708
 2608TIP3    H129315   6.373   1.114  11.173  1.1862 -0.7853 -0.0536
 2608TIP3    H229316   6.286   1.104  11.050  0.9990 -0.4541  0.0512
 2609TIP3   OH229317   6.236   0.536  12.032 -0.1863  0.0586 -0.3568
 2609TIP3    H129318   6.234   0.622  11.990  0.4719 -0.1144 -0.7556
 2609TIP3    H229319   6.329   0.522  12.053 -0.1292 -1.0601 -1.3474
 2610TIP3   OH229320   0.871   0.398   4.658 -0.1932  0.2277 -0.7803
 2610TIP3    H129321   0.938   0.447   4.612 -0.7995  0.5785 -1.3071
 2610TIP3    H229322   0.871   0.312   4.617  0.9958 -0.2736  0.2657
 2611TIP3   OH229323   6.147   6.070  11.036  0.0745 -0.2927 -0.0776
 2611TIP3    H129324   6.216   6.058  10.970 -0.1858  2.0466 -0.8183
 2611TIP3    H229325   6.178   6.021  11.112  2.4754  0.5610 -0.4669
 2612TIP3   OH229326   5.906   3.151   1.741 -0.1803 -0.1076 -0.1140
 2612TIP3    H129327   5.819   3.175   1.773 -0.5640 -0.7556 -0.6742
 2612TIP3    H229328   5.891   3.113   1.655  0.8215  1.2709 -0.9207
 2613TIP3   OH229329   4.294   4.583   1.862  0.0155  0.2538 -0.1874
 2613TIP3    H129330   4.336   4.514   1.809 -1.9789 -1.0088 -0.1716
 2613TIP3    H229331   4.236   4.628   1.801  0.2329  1.0052  0.1549
 2614TIP3   OH229332   2.707   2.110  17.074 -0.8604 -0.5974  0.2693
 2614TIP3    H129333   2.749   2.076  16.995 -0.4426  0.2666  0.1065
 2614TIP3    H229334   2.675   2.032  17.120  0.5399 -1.2576  0.1679
 2615TIP3   OH229335   4.550   3.916   5.516 -0.4051  0.0488 -0.5171
 2615TIP3    H129336   4.482   3.977   5.485 -0.9835 -0.4312 -0.2066
 2615TIP3    H229337   4.508   3.830   5.514  0.9310 -0.5862 -2.5319
 2616TIP3   OH229338   3.237   4.920   3.032  0.1215 -0.4612 -0.6398
 2616TIP3    H129339   3.303   4.954   3.093  0.2346  0.7493 -1.4029
 2616TIP3    H229340   3.286   4.864   2.972  0.3934  0.0943 -0.9424
 2617TIP3   OH229341   3.631   2.201  10.589  0.4530 -0.5876  0.1224
 2617TIP3    H129342   3.559   2.246  10.634  2.0581  0.7596  1.4271
 2617TIP3    H229343   3.674   2.270  10.538 -0.1831 -1.7222 -2.0114
 2618TIP3   OH229344   3.280   0.042   2.333 -0.3488  1.0824  0.1763
 2618TIP3    H129345   3.274  -0.032   2.392 -3.2871 -0.1223 -1.4945
 2618TIP3    H229346   3.373   0.050   2.313 -0.0103 -2.4899  0.0209
 2619TIP3   OH229347   4.908   6.479   1.032  0.2348  0.5387  0.6124
 2619TIP3    H129348   4.993   6.511   1.002  1.4110 -2.6779  0.2752
 2619TIP3    H229349   4.922   6.458   1.124 -0.4616  0.8640  0.7913
 2620TIP3   OH229350   6.279   1.783   0.792 -0.6163 -0.2988 -0.1902
 2620TIP3    H129351   6.327   1.825   0.863 -0.4880 -0.1235 -0.3819
 2620TIP3    H229352   6.344   1.768   0.724 -0.4389 -1.6843  0.2514
 2621TIP3   OH229353   5.488   0.713  11.788 -0.2347 -0.5192  0.2138
 2621TIP3    H129354   5.533   0.652  11.730 -0.7797 -1.0077  0.2980
 2621TIP3    H229355   5.504   0.799  11.749 -2.0460 -0.9733 -1.6749
 2622TIP3   OH229356   0.642   3.950  14.916 -0.1616 -0.5418 -0.5162
 2622TIP3    H129357   0.731   3.956  14.949 -0.4048 -0.1542  0.0924
 2622TIP3    H229358   0.643   3.996  14.832  0.3489 -1.0759 -0.8005
 2623TIP3   OH229359   6.275   3.045   4.679  0.1211 -0.8236 -0.1689
 2623TIP3    H129360   6.304   2.955   4.658 -1.1553 -1.6755  1.6338
 2623TIP3    H229361   6.283   3.051   4.774  0.7419  1.2041 -0.3305
 2624TIP3   OH229362   4.750   1.373  10.427 -0.1340 -0.2092  0.3569
 2624TIP3    H129363   4.782   1.463  10.433  2.1647 -0.9205 -0.6821
 2624TIP3    H229364   4.668   1.380  10.377  0.6465  1.1618 -0.7624
 2625TIP3   OH229365   0.157   6.344  16.180  0.0762  0.4162 -0.5171
 2625TIP3    H129366   0.206   6.290  16.242 -0.8261  0.8825  0.6311
 2625TIP3    H229367   0.073   6.359  16.223 -1.3262 -0.8817 -2.7104
 2626TIP3   OH229368   6.153   5.003  10.791 -0.3677 -0.1689  0.7478
 2626TIP3    H129369   6.218   5.058  10.748  2.0944 -2.1637  1.7943
 2626TIP3    H229370   6.080   5.000  10.729  0.8052  1.5410 -0.7735
 2627TIP3   OH229371   5.757   3.507  13.964 -0.6917  0.4806  0.5605
 2627TIP3    H129372   5.813   3.561  13.908  1.3867 -0.4251  1.6920
 2627TIP3    H229373   5.720   3.568  14.027  0.6378  0.8137  1.0430
 2628TIP3   OH229374   2.711   2.010   1.458 -0.0371 -0.3580 -0.3511
 2628TIP3    H129375   2.733   1.922   1.428  0.6302 -0.4066  0.2729
 2628TIP3    H229376   2.770   2.026   1.532 -1.0385  0.1051  0.3680
 2629TIP3   OH229377   4.950   2.992   3.428 -0.2838  0.6799  0.1892
 2629TIP3    H129378   5.022   2.939   3.394 -0.8829  0.6051 -0.9937
 2629TIP3    H229379   4.947   2.971   3.522 -1.1535 -2.2007 -0.4324
 2630TIP3   OH229380   1.348   5.624  13.998  0.2398 -0.2164 -0.3684
 2630TIP3    H129381   1.355   5.562  14.070  0.5007  1.7981  1.3911
 2630TIP3    H229382   1.434   5.621  13.956  0.7601  0.0786  0.6597
 2631TIP3   OH229383   5.414   0.838  13.308  0.8503  0.1350  0.6031
 2631TIP3    H129384   5.370   0.922  13.321  2.7685  1.3721 -0.7024
 2631TIP3    H229385   5.438   0.810  13.396 -1.2285  0.1295  1.2050
 2632TIP3   OH229386   4.172   1.347   5.595 -0.0777  0.4356  0.5840
 2632TIP3    H129387   4.164   1.252   5.607 -1.6564  0.5425  0.4467
 2632TIP3    H229388   4.086   1.375   5.564  1.6165  1.2875 -3.6665
 2633TIP3   OH229389   3.406   6.689   2.545 -0.0372 -0.2318  0.0183
 2633TIP3    H129390   3.495   6.676   2.514 -0.4319  1.1391 -1.7491
 2633TIP3    H229391   3.416   6.725   2.633  1.1513  0.2547 -0.3140
 2634TIP3   OH229392   4.402   6.426  14.304 -0.6842  0.5928 -0.2128
 2634TIP3    H129393   4.443   6.370  14.238  1.2634  0.5945  0.9567
 2634TIP3    H229394   4.383   6.367  14.377 -0.4774  1.0697  0.2308
 2635TIP3   OH229395   3.052   6.699  13.201  0.1063 -0.5136 -0.5033
 2635TIP3    H129396   2.958   6.720  13.200 -0.1882 -1.7221  0.2600
 2635TIP3    H229397   3.079   6.715  13.291  0.1538 -2.1203 -0.2105
 2636TIP3   OH229398   1.463   5.705  14.734  0.0026 -0.3258 -0.0287
 2636TIP3    H129399   1.462   5.689  14.828  0.2725 -1.1736 -0.1640
 2636TIP3    H229400   1.554   5.727  14.715  0.1220 -0.9649 -0.2165
 2637TIP3   OH229401   2.582   0.709  16.376 -0.4315 -0.0026 -0.3652
 2637TIP3    H129402   2.589   0.792  16.423  1.6565 -0.0821 -0.4955
 2637TIP3    H229403   2.671   0.692  16.344 -1.2259 -1.3532 -1.9378
 2638TIP3   OH229404   2.029   6.384  13.194  0.0672 -0.4795  0.4543
 2638TIP3    H129405   2.109   6.430  13.168  0.1208 -0.4353  0.7043
 2638TIP3    H229406   2.003   6.425  13.276  0.2179 -1.0224  0.7742
 2639TIP3   OH229407   3.028   6.645  11.052 -0.0180  0.0664 -0.2421
 2639TIP3    H129408   3.014   6.571  10.993 -0.1790 -1.3944  1.5885
 2639TIP3    H229409   2.953   6.702  11.037 -1.2312 -1.4066  0.2046
 2640TIP3   OH229410   5.107   3.363   5.860  0.3684  0.4631 -0.3719
 2640TIP3    H129411   5.054   3.353   5.939  0.9338  0.4944  0.0086
 2640TIP3    H229412   5.183   3.414   5.888  0.9776 -0.2309 -0.7504
 2641TIP3   OH229413   6.031   2.407   1.368 -0.1820 -0.1834 -0.1182
 2641TIP3    H129414   6.098   2.393   1.435  2.6386 -1.8450 -3.1252
 2641TIP3    H229415   5.948   2.395   1.414  1.5955 -0.0149  3.3086
 2642TIP3   OH229416   1.995   4.523   3.573 -0.4216 -0.2018 -0.2075
 2642TIP3    H129417   2.018   4.492   3.486  1.4999  0.8208 -0.1073
 2642TIP3    H229418   1.958   4.447   3.617 -0.5502 -0.9665 -1.6228
 2643TIP3   OH229419   1.266   3.313   5.323 -0.1382 -0.1096 -0.6871
 2643TIP3    H129420   1.270   3.347   5.233  1.4178 -0.7448 -0.8745
 2643TIP3    H229421   1.183   3.345   5.357  0.1429  1.7876 -1.7014
 2644TIP3   OH229422   0.123   5.934  12.687  0.0296  0.5684 -0.3237
 2644TIP3    H129423   0.171   5.888  12.755 -0.7523 -0.3756 -0.4060
 2644TIP3    H229424   0.126   6.026  12.713  1.0599  0.4006  0.1663
 2645TIP3   OH229425   0.733   4.653  13.391 -0.1816  0.5119 -0.6861
 2645TIP3    H129426   0.664   4.588  13.382 -1.4595  1.4720  1.5964
 2645TIP3    H229427   0.688   4.732  13.423  1.3599  2.4460 -3.0971
 2646TIP3   OH229428   5.451   2.364  12.657 -0.1380  0.3071  0.1498
 2646TIP3    H129429   5.383   2.299  12.674  0.5187  0.0072  1.7772
 2646TIP3    H229430   5.455   2.371  12.562 -0.5219 -1.7102 -0.0389
 2647TIP3   OH229431   0.087   2.413   4.219  0.3400 -0.0325  0.4793
 2647TIP3    H129432   0.104   2.501   4.187 -0.0804  0.2531  1.0404
 2647TIP3    H229433   0.123   2.355   4.151  1.6064  0.5568  0.6275
 2648TIP3   OH229434   3.812   5.022  12.784 -0.6119  0.1254 -0.1865
 2648TIP3    H129435   3.833   4.979  12.867 -1.7586  0.6488  0.3842
 2648TIP3    H229436   3.731   4.979  12.755 -0.7827  0.6622 -0.5163
 2649TIP3   OH229437   0.946   5.501   4.425  0.3398  0.6239  0.0124
 2649TIP3    H129438   0.984   5.533   4.506 -0.4027 -0.7988  0.9572
 2649TIP3    H229439   0.975   5.410   4.419 -0.8090  0.2813 -0.5540
 2650TIP3   OH229440   0.510   5.784  12.343  0.5139 -0.1034  0.2371
 2650TIP3    H129441   0.445   5.720  12.373  0.5480  0.2709  1.1244
 2650TIP3    H229442   0.491   5.863  12.395  3.0761 -0.6792  2.1134
 2651TIP3   OH229443   0.142   2.629  13.836 -0.1816  0.1141 -0.5360
 2651TIP3    H129444   0.078   2.664  13.899 -0.4257  1.0640 -1.3018
 2651TIP3    H229445   0.227   2.649  13.875 -0.3383  0.1334 -0.2006
 2652TIP3   OH229446   4.211   3.571   1.558 -0.5746  0.0976  0.1327
 2652TIP3    H129447   4.287   3.621   1.588  2.1787 -3.2267 -1.1171
 2652TIP3    H229448   4.187   3.611   1.474 -0.1524  1.0670  0.4684
 2653TIP3   OH229449   0.965   6.244   1.055 -0.1772 -0.1035  0.0180
 2653TIP3    H129450   1.024   6.299   1.002 -0.5225 -0.3872 -0.6661
 2653TIP3    H229451   1.011   6.161   1.063  0.6261  0.4718  1.5773
 2654TIP3   OH229452   4.676   0.360  12.558 -0.0163 -0.1190  0.3121
 2654TIP3    H129453   4.638   0.302  12.624 -0.6464  0.0701  0.1199
 2654TIP3    H229454   4.738   0.305  12.510 -1.2997 -0.8798 -0.4858
 2655TIP3   OH229455   6.287   2.634  14.913  0.3550  0.4047 -0.3495
 2655TIP3    H129456   6.210   2.577  14.916  0.2234  0.6430  0.8763
 2655TIP3    H229457   6.347   2.590  14.853 -1.5236  1.2077 -2.9228
 2656TIP3   OH229458   6.755   4.754   5.868 -0.9935 -0.4923 -1.0448
 2656TIP3    H129459   6.748   4.790   5.956 -0.9890 -1.6104 -0.5757
 2656TIP3    H229460   6.749   4.659   5.880  1.0499 -0.7823 -2.0132
 2657TIP3   OH229461   2.272   0.001  14.199 -0.0353 -0.2734 -0.3561
 2657TIP3    H129462   2.320   0.082  14.183  2.3266 -1.5714 -0.1572
 2657TIP3    H229463   2.270  -0.007  14.295 -0.5473 -0.3035 -0.3665
 2658TIP3   OH229464   4.779   1.635  11.824 -0.2825  0.3197 -0.2805
 2658TIP3    H129465   4.822   1.575  11.764  0.8048  0.6102  0.1896
 2658TIP3    H229466   4.696   1.593  11.846  0.2132 -0.7355 -0.4122
 2659TIP3   OH229467   6.740   2.454   0.788  0.0406 -0.4749  0.0584
 2659TIP3    H129468   6.832   2.467   0.812 -0.4430  2.0178  0.7182
 2659TIP3    H229469   6.718   2.368   0.823  1.0296  0.5664  3.4907
 2660TIP3   OH229470   4.999   3.049  16.007  0.1302  0.3566 -0.0043
 2660TIP3    H129471   5.001   3.120  16.072 -2.6811 -0.7074  1.3372
 2660TIP3    H229472   4.988   2.969  16.059 -0.1136 -0.7214 -1.6670
 2661TIP3   OH229473   2.448   4.634  14.300  0.3111 -0.1264 -0.2633
 2661TIP3    H129474   2.432   4.700  14.232  1.0289 -0.3562 -0.6617
 2661TIP3    H229475   2.384   4.565  14.282  0.2441 -0.0126 -0.4663
 2662TIP3   OH229476   0.276   6.557  16.062  0.3593 -0.2175 -0.3994
 2662TIP3    H129477   0.318   6.508  15.992 -0.1858  0.0964 -0.9428
 2662TIP3    H229478   0.222   6.492  16.108 -0.9252  0.0201 -1.5577
 2663TIP3   OH229479   5.140   6.624  15.671 -0.0399  0.2526  0.2438
 2663TIP3    H129480   5.205   6.693  15.676  2.5052 -1.9429 -1.1294
 2663TIP3    H229481   5.125   6.598  15.762 -0.9326  2.4520  0.7638
 2664TIP3   OH229482   3.852   0.015  12.466  0.7804 -0.2785  0.3904
 2664TIP3    H129483   3.929  -0.001  12.521  0.3503 -1.7248  0.6000
 2664TIP3    H229484   3.809  -0.070  12.461 -0.1574  0.2568 -0.7158
 2665TIP3   OH229485   4.959   5.453   1.549  0.5576  0.0982 -0.8722
 2665TIP3    H129486   5.046   5.490   1.562  0.5004  0.4694 -1.5161
 2665TIP3    H229487   4.974   5.366   1.512  0.6769 -0.3203  0.1212
 2666TIP3   OH229488   3.766   0.117   5.427 -0.9409  0.3201 -0.6655
 2666TIP3    H129489   3.851   0.074   5.438 -0.9214 -0.2594 -2.8108
 2666TIP3    H229490   3.753   0.166   5.508  0.7424 -0.7925  0.3083
 2667TIP3   OH229491   0.861   2.916   2.918  0.0220 -0.2880  0.3869
 2667TIP3    H129492   0.777   2.877   2.894 -0.6026  2.5029 -2.2778
 2667TIP3    H229493   0.919   2.893   2.845  0.8311  0.1298  0.8898
 2668TIP3   OH229494   5.863   3.300  14.198  0.5618  0.0379 -0.1174
 2668TIP3    H129495   5.804   3.375  14.186 -1.7562 -1.7914 -0.4728
 2668TIP3    H229496   5.805   3.225  14.206  2.8558 -1.7489  0.1991
 2669TIP3   OH229497   3.636   0.695   2.056 -0.2062  0.4587 -0.3810
 2669TIP3    H129498   3.724   0.710   2.021 -0.9654  2.1269 -1.6113
 2669TIP3    H229499   3.620   0.769   2.113  0.0766 -1.0449  1.7222
 2670TIP3   OH229500   5.514   1.351  12.164  0.3032  0.9173  0.4062
 2670TIP3    H129501   5.528   1.434  12.119 -1.2565  0.3148 -1.2896
 2670TIP3    H229502   5.521   1.285  12.095  2.2416 -0.4416  1.8636
 2671TIP3   OH229503   4.708   6.715  16.901 -0.0194 -0.1961  0.2793
 2671TIP3    H129504   4.669   6.801  16.887  0.8789  0.1093 -0.3348
 2671TIP3    H229505   4.782   6.731  16.959 -0.3967 -0.6867  0.9070
 2672TIP3   OH229506   2.736   3.084   5.499  0.0571 -0.0574  0.7172
 2672TIP3    H129507   2.782   3.014   5.454  0.7130  1.3237 -0.7870
 2672TIP3    H229508   2.744   3.062   5.592  1.1973 -1.3692  0.3209
 2673TIP3   OH229509   6.722   1.391  13.781 -0.2414  0.2406  0.3481
 2673TIP3    H129510   6.756   1.324  13.721 -0.1466 -0.5981  1.3320
 2673TIP3    H229511   6.627   1.387  13.770 -0.1633  1.0298 -0.7372
 2674TIP3   OH229512   4.269   5.759   5.613  0.5999 -0.1586 -0.5316
 2674TIP3    H129513   4.350   5.718   5.643 -0.5501 -1.8719  0.2954
 2674TIP3    H229514   4.235   5.804   5.691 -0.9873 -2.3174  0.0442
 2675TIP3   OH229515   4.402   6.809   4.644 -0.2515  0.0935  0.1561
 2675TIP3    H129516   4.329   6.838   4.589  0.0943  0.4909 -0.0963
 2675TIP3    H229517   4.410   6.716   4.625 -0.0009  0.2699 -0.6299
 2676TIP3   OH229518   5.360   4.545   0.168  0.1555  0.0075  0.7241
 2676TIP3    H129519   5.386   4.632   0.139 -2.3096  0.8462  0.9138
 2676TIP3    H229520   5.266   4.541   0.153  0.0001 -2.1438  1.9595
 2677TIP3   OH229521   0.372   1.239  12.051 -0.2077 -0.5677 -0.5036
 2677TIP3    H129522   0.436   1.170  12.071 -0.2418 -0.5961 -0.4930
 2677TIP3    H229523   0.424   1.309  12.011  0.1377  0.1634  1.1459
 2678TIP3   OH229524   6.815   1.333   1.575  0.1534 -0.0507 -0.0456
 2678TIP3    H129525   6.882   1.366   1.515  0.4648 -2.7087 -1.2161
 2678TIP3    H229526   6.855   1.339   1.661  0.3650  2.1531 -0.2533
 2679TIP3   OH229527   3.297   1.566   1.554 -0.2779  0.0460  1.0784
 2679TIP3    H129528   3.361   1.504   1.588 -0.5368  0.0337  1.5422
 2679TIP3    H229529   3.348   1.646   1.540 -0.2884  0.2380  2.0753
 2680TIP3   OH229530   0.762   4.905   4.298 -0.2432  0.0043  0.0972
 2680TIP3    H129531   0.753   4.997   4.324 -0.1308  0.0196  0.0802
 2680TIP3    H229532   0.753   4.856   4.379 -1.4973 -0.0346 -0.0449
 2681TIP3   OH229533   3.529   0.857  13.631  0.2548 -0.2424  0.1073
 2681TIP3    H129534   3.495   0.770  13.611 -0.9519  0.1930  0.2112
 2681TIP3    H229535   3.563   0.849  13.720 -0.5413 -0.4164  0.3999
 2682TIP3   OH229536   1.664   5.576  11.447 -0.7281  0.0968  0.1748
 2682TIP3    H129537   1.701   5.585  11.359  1.8479 -0.3481  1.1867
 2682TIP3    H229538   1.641   5.666  11.472 -0.9111  0.2977 -0.6864
 2683TIP3   OH229539   6.685   1.848   3.739  0.1849  0.4971  0.0695
 2683TIP3    H129540   6.645   1.926   3.778 -0.0410  0.0285  0.8017
 2683TIP3    H229541   6.611   1.789   3.724  0.0540  1.2890 -2.5951
 2684TIP3   OH229542   3.878   4.367   4.087 -0.4295  0.1710 -0.2147
 2684TIP3    H129543   3.904   4.335   4.001 -0.1291 -1.0987  0.3459
 2684TIP3    H229544   3.960   4.377   4.135 -0.8094 -2.0438  0.9291
 2685TIP3   OH229545   3.774   5.757   1.645  0.6970  0.8959 -0.0638
 2685TIP3    H129546   3.770   5.810   1.566  0.3548 -0.8088 -1.2148
 2685TIP3    H229547   3.829   5.682   1.622  0.9272  0.5901  1.4215
 2686TIP3   OH229548   6.547   0.202   4.919 -0.6761  0.3165  0.4305
 2686TIP3    H129549   6.468   0.170   4.875 -0.1928 -1.2072  0.6619
 2686TIP3    H229550   6.515   0.265   4.983 -1.6033  0.5545 -0.2526
 2687TIP3   OH229551   5.731   4.332  12.711  0.1109 -0.2816 -0.0056
 2687TIP3    H129552   5.814   4.308  12.671  0.5036  0.9041  0.0896
 2687TIP3    H229553   5.710   4.418  12.675  0.6753  1.0145  2.5976
 2688TIP3   OH229554   2.186   5.860  16.346 -0.0900  0.4803 -0.0406
 2688TIP3    H129555   2.180   5.943  16.393 -1.7476  0.0453  0.5474
 2688TIP3    H229556   2.279   5.851  16.323  0.0098  2.7624 -0.6052
 2689TIP3   OH229557   6.779   1.394   2.045 -0.3687 -0.4883  0.3654
 2689TIP3    H129558   6.793   1.487   2.027 -1.0430 -0.2121  1.2540
 2689TIP3    H229559   6.843   1.372   2.113 -1.1451 -0.3267  1.1611
 2690TIP3   OH229560   2.802   4.328  13.673  0.2494  0.5465  0.0526
 2690TIP3    H129561   2.876   4.353  13.727  0.0094 -1.6935  1.5010
 2690TIP3    H229562   2.808   4.233  13.667 -1.0192  0.5630 -2.0046
 2691TIP3   OH229563   5.065   3.635  14.456  0.1864  0.1835 -0.2757
 2691TIP3    H129564   5.026   3.712  14.414 -1.2292 -1.0716 -1.3317
 2691TIP3    H229565   5.103   3.668  14.537 -0.2169  2.0309 -0.8244
 2692TIP3   OH229566   3.289   1.130   3.013  0.2945  0.7389 -0.5066
 2692TIP3    H129567   3.317   1.087   3.094 -1.5339  0.8749  0.2246
 2692TIP3    H229568   3.286   1.223   3.035  1.0698  0.9165 -1.1271
 2693TIP3   OH229569   1.136   5.826  13.014  0.0446 -0.1438 -0.2765
 2693TIP3    H129570   1.215   5.838  13.066  1.1044 -2.6166 -1.1916
 2693TIP3    H229571   1.064   5.846  13.073  1.2791 -1.1141  1.5911
 2694TIP3   OH229572   0.285   5.081  16.524 -0.3805  0.0166  0.7018
 2694TIP3    H129573   0.281   5.128  16.607 -1.6277  0.5261  0.3521
 2694TIP3    H229574   0.330   5.141  16.465  0.9205 -0.5261  1.1187
 2695TIP3   OH229575   5.053   6.087  11.844 -0.0087 -0.3239 -0.4447
 2695TIP3    H129576   4.971   6.050  11.810 -0.5412  0.7103 -0.2869
 2695TIP3    H229577   5.026   6.159  11.900  0.9887 -0.4443  0.2009
 2696TIP3   OH229578   1.235   2.343  11.671  0.4211 -0.4798 -0.9809
 2696TIP3    H129579   1.226   2.423  11.725  0.9858 -0.9347 -0.1944
 2696TIP3    H229580   1.268   2.375  11.587 -0.5206  0.2513 -1.0852
 2697TIP3   OH229581   0.438   5.457  13.062  0.8840 -0.7134 -0.1025
 2697TIP3    H129582   0.376   5.529  13.046  0.5317 -0.6917  1.2794
 2697TIP3    H229583   0.414   5.390  12.998 -0.3962 -0.5973  0.2367
 2698TIP3   OH229584   4.441   1.779  15.925  0.6548 -0.4895  0.0616
 2698TIP3    H129585   4.459   1.702  15.978 -1.1565 -1.5070 -0.7698
 2698TIP3    H229586   4.446   1.748  15.834  1.2907  0.6883 -0.3261
 2699TIP3   OH229587   1.521   2.438   1.015  0.1291 -0.0267 -0.0375
 2699TIP3    H129588   1.450   2.389   0.973 -0.4623  0.5084  0.3386
 2699TIP3    H229589   1.527   2.519   0.965  0.5647 -0.1258 -0.1484
 2700TIP3   OH229590   6.606   0.718  11.459 -0.3786  0.3895 -0.0587
 2700TIP3    H129591   6.639   0.678  11.539  0.4566  1.9406  0.3823
 2700TIP3    H229592   6.549   0.789  11.489 -0.9632  0.2688 -0.8460
 2701TIP3   OH229593   3.240   3.802   3.537 -0.3438 -0.3248 -0.4472
 2701TIP3    H129594   3.313   3.787   3.477  0.3683  1.6930 -0.1206
 2701TIP3    H229595   3.186   3.868   3.494  1.8168  3.5066  2.4022
 2702TIP3   OH229596   5.598   2.204   4.753  0.0646  0.5169 -0.8792
 2702TIP3    H129597   5.539   2.244   4.817 -1.7003 -2.8195 -0.3250
 2702TIP3    H229598   5.674   2.176   4.804  1.3998  3.1966 -1.3009
 2703TIP3   OH229599   5.145   2.312  14.683  0.0308  0.0090 -0.1713
 2703TIP3    H129600   5.075   2.304  14.619  1.5015  0.0259 -1.8223
 2703TIP3    H229601   5.101   2.332  14.765 -1.9003 -0.1931 -1.1423
 2704TIP3   OH229602   5.188   6.526   1.528  0.3177 -0.2552  0.2583
 2704TIP3    H129603   5.188   6.433   1.552  1.2263 -0.3828 -0.2130
 2704TIP3    H229604   5.185   6.525   1.432 -2.3862  0.2391  0.3001
 2705TIP3   OH229605   6.692   0.379   3.778 -0.3284 -0.2469  0.3280
 2705TIP3    H129606   6.683   0.365   3.684 -1.0114 -3.0381  0.7739
 2705TIP3    H229607   6.770   0.435   3.786  1.1055 -1.8758 -1.7577
 2706TIP3   OH229608   2.804   2.570  16.769 -0.3455 -0.5764 -0.2773
 2706TIP3    H129609   2.747   2.557  16.846 -0.3101  1.5983  0.1504
 2706TIP3    H229610   2.884   2.607  16.805 -0.3036  0.4035 -1.3563
 2707TIP3   OH229611   2.245   1.970  11.352  0.4017 -0.4903 -0.0106
 2707TIP3    H129612   2.243   1.876  11.367  2.7280 -0.5493  0.1852
 2707TIP3    H229613   2.294   1.980  11.270 -0.7604  0.5075 -0.6005
 2708TIP3   OH229614   3.711   3.537   0.474  0.2293 -0.0918 -0.3101
 2708TIP3    H129615   3.678   3.452   0.443  0.3839 -0.4919  0.6073
 2708TIP3    H229616   3.802   3.520   0.498 -0.4398 -0.3036  2.2795
 2709TIP3   OH229617   4.448   5.761  15.426  0.2391  0.3464  0.4406
 2709TIP3    H129618   4.435   5.758  15.331  0.2061  1.7492  0.3923
 2709TIP3    H229619   4.458   5.854  15.446  1.0657 -0.0034  1.7082
 2710TIP3   OH229620   6.506   6.386  14.911 -0.9291  0.0608 -0.0140
 2710TIP3    H129621   6.488   6.292  14.909  0.0644 -0.1117 -1.4036
 2710TIP3    H229622   6.565   6.397  14.986 -2.5641 -0.1249  1.3245
 2711TIP3   OH229623   1.017   0.910  14.446 -0.4368 -1.0795 -0.2061
 2711TIP3    H129624   0.931   0.949  14.434  0.8772  1.4217 -1.7609
 2711TIP3    H229625   1.030   0.856  14.368 -0.2431 -0.7707 -0.3886
 2712TIP3   OH229626   5.611   2.288   1.318 -0.2807 -0.0998 -0.1456
 2712TIP3    H129627   5.562   2.252   1.392  1.5543 -0.6396  0.8217
 2712TIP3    H229628   5.630   2.213   1.263 -2.7582  0.4757 -1.8801
 2713TIP3   OH229629   2.320   3.527  13.735  0.3190  0.0630 -0.5381
 2713TIP3    H129630   2.256   3.456  13.734 -1.1826  1.3810 -1.3881
 2713TIP3    H229631   2.381   3.503  13.805 -0.4529 -1.7884 -0.4624
 2714TIP3   OH229632   0.065   5.083  11.138 -0.8153  0.3099 -0.1990
 2714TIP3    H129633   0.031   5.086  11.227 -1.2205  2.0899 -0.3901
 2714TIP3    H229634  -0.008   5.113  11.084  0.5198  2.7540 -0.7471
 2715TIP3   OH229635   4.052   4.059   0.917  0.1206  0.0577  0.5182
 2715TIP3    H129636   4.087   4.094   0.999 -2.1712  0.5391  1.3114
 2715TIP3    H229637   3.968   4.019   0.942 -0.3187 -0.3032 -1.4989
 2716TIP3   OH229638   6.139   3.410  12.119 -0.0748 -0.3757  0.1989
 2716TIP3    H129639   6.108   3.401  12.209 -2.3082  2.1584 -0.2459
 2716TIP3    H229640   6.066   3.378  12.065  0.1210  0.7465 -0.7529
 2717TIP3   OH229641   5.369   2.752  11.637  0.1737  1.0783 -0.4331
 2717TIP3    H129642   5.292   2.809  11.640 -0.6743 -0.1242  0.9284
 2717TIP3    H229643   5.392   2.738  11.729  2.2609  1.7230 -0.8242
 2718TIP3   OH229644   3.685   6.053  12.780 -0.7396 -0.5196  0.1206
 2718TIP3    H129645   3.771   6.014  12.768  0.1852  1.3933  0.2452
 2718TIP3    H229646   3.627   6.004  12.721  0.3758 -1.9547  0.1910
 2719TIP3   OH229647   3.657   3.669  12.911 -0.1154  0.2457 -0.3249
 2719TIP3    H129648   3.569   3.640  12.938 -0.2146  0.4614 -0.4198
 2719TIP3    H229649   3.642   3.751  12.865  0.0441 -0.1831 -1.1503
 2720TIP3   OH229650   4.144   6.579  15.948  0.6664 -0.5281 -0.6708
 2720TIP3    H129651   4.118   6.557  16.037 -0.5637  0.2348 -0.8412
 2720TIP3    H229652   4.219   6.637  15.958  0.8306 -0.8250 -0.1526
 2721TIP3   OH229653   2.367   1.657   1.279 -0.2155 -0.4061  0.6375
 2721TIP3    H129654   2.302   1.722   1.305 -0.7539 -0.7036  0.0422
 2721TIP3    H229655   2.426   1.705   1.220 -0.6359 -0.4707  0.1652
 2722TIP3   OH229656   4.801   4.122   6.662  0.0180  0.4389 -0.7890
 2722TIP3    H129657   4.857   4.045   6.646 -0.0548  0.7177 -2.5125
 2722TIP3    H229658   4.729   4.111   6.600 -0.3144  1.5871 -0.6053
 2723TIP3   OH229659   5.700   5.565   4.459 -0.4451 -0.5042  0.1556
 2723TIP3    H129660   5.780   5.519   4.486  0.3581  1.8366  1.9636
 2723TIP3    H229661   5.732   5.639   4.407 -1.4649  0.0913  0.3707
 2724TIP3   OH229662   6.452   4.687  14.386 -0.3697  0.1851  0.1751
 2724TIP3    H129663   6.411   4.616  14.436 -1.9863  1.2771  0.4433
 2724TIP3    H229664   6.424   4.672  14.296  0.0892 -0.0683  0.0724
 2725TIP3   OH229665   1.596   3.908   5.924  0.4949  0.0148 -0.0597
 2725TIP3    H129666   1.683   3.949   5.928  0.2444  0.4044  1.7926
 2725TIP3    H229667   1.575   3.888   6.015 -1.2224 -0.3799 -0.5354
 2726TIP3   OH229668   1.273   1.834  14.739 -0.5210  0.2041 -0.6233
 2726TIP3    H129669   1.300   1.923  14.721 -0.2194  0.0739 -0.8123
 2726TIP3    H229670   1.320   1.810  14.819 -2.9767  1.2933  1.2069
 2727TIP3   OH229671   2.496   0.294  10.500  0.1643 -0.2855 -0.2095
 2727TIP3    H129672   2.481   0.241  10.422  0.2911 -0.9854  0.2415
 2727TIP3    H229673   2.541   0.372  10.467 -0.3302 -0.2894 -0.9171
 2728TIP3   OH229674   1.776   0.105  13.887 -0.2859 -0.2728 -0.7342
 2728TIP3    H129675   1.801   0.015  13.907 -0.8915 -0.1830  0.4568
 2728TIP3    H229676   1.692   0.098  13.842 -1.0676 -0.2188  0.7069
 2729TIP3   OH229677   1.944   2.190  13.002 -0.3736 -0.2588 -0.0308
 2729TIP3    H129678   1.947   2.260  12.937  1.5229 -0.3857 -0.1114
 2729TIP3    H229679   2.033   2.186  13.037 -1.5911  0.5643  3.3832
 2730TIP3   OH229680   5.038   0.262  11.231 -0.1173 -0.6905 -0.1523
 2730TIP3    H129681   5.078   0.179  11.254  0.2519 -0.1578  1.1696
 2730TIP3    H229682   5.105   0.308  11.180  0.0532 -0.7890 -0.0156
 2731TIP3   OH229683   4.864   2.727   5.734  0.4806 -0.0367  0.0711
 2731TIP3    H129684   4.804   2.731   5.809 -0.3764  0.6366 -0.6373
 2731TIP3    H229685   4.830   2.657   5.680  1.4764 -0.9551  0.6129
 2732TIP3   OH229686   3.478   1.171   1.745 -0.0577  0.1070  0.4317
 2732TIP3    H129687   3.436   1.196   1.828  0.7355 -0.4472  1.0085
 2732TIP3    H229688   3.427   1.216   1.678 -0.7019  0.5751  1.2238
 2733TIP3   OH229689   0.360   0.280  11.067  0.1074 -0.0937 -0.1192
 2733TIP3    H129690   0.392   0.221  11.135 -0.9852  0.0750  0.5575
 2733TIP3    H229691   0.299   0.227  11.015  0.4994 -0.0635 -0.6109
 2734TIP3   OH229692   1.297   1.179   4.906 -0.3490 -0.2699 -0.0250
 2734TIP3    H129693   1.216   1.217   4.871 -0.1928  1.1758  1.1414
 2734TIP3    H229694   1.307   1.096   4.859 -1.6279  0.3194 -1.3640
 2735TIP3   OH229695   1.489   0.790   2.533 -0.0772 -0.3194  0.2370
 2735TIP3    H129696   1.443   0.711   2.561  0.6754 -0.3495  1.4265
 2735TIP3    H229697   1.419   0.849   2.504 -0.9048 -0.3033  2.1725
 2736TIP3   OH229698   1.374   6.567   2.136  0.1944 -0.7711  0.2925
 2736TIP3    H129699   1.427   6.556   2.215  0.9981 -0.9306 -0.2600
 2736TIP3    H229700   1.289   6.530   2.160  0.0970  0.1579  1.4261
 2737TIP3   OH229701   6.131   5.454   2.011 -0.4985  0.4087  0.1569
 2737TIP3    H129702   6.178   5.491   1.935  1.3050 -1.3284  0.3863
 2737TIP3    H229703   6.117   5.529   2.069 -0.3305  1.4346 -1.1029
 2738TIP3   OH229704   6.038   4.069   3.977 -0.2472  0.1971  0.8738
 2738TIP3    H129705   6.050   4.029   4.063 -0.7894 -0.4044  0.6784
 2738TIP3    H229706   5.946   4.051   3.955 -0.0686  0.1949  0.0985
 2739TIP3   OH229707   3.498   5.279  13.185  0.2067  0.5942  0.0560
 2739TIP3    H129708   3.541   5.196  13.164  3.3041  2.1350  0.1043
 2739TIP3    H229709   3.536   5.305  13.269 -1.3770  1.6678  0.4571
 2740TIP3   OH229710   2.890   3.765  15.498 -0.0205 -0.6059 -0.5884
 2740TIP3    H129711   2.893   3.837  15.436  0.5207  0.0492  0.1908
 2740TIP3    H229712   2.978   3.727  15.496  0.1753 -0.2005  0.2200
 2741TIP3   OH229713   4.166   6.280  14.882  0.0857 -0.2065 -0.0037
 2741TIP3    H129714   4.253   6.242  14.894  0.7157  1.3106  0.2670
 2741TIP3    H229715   4.165   6.311  14.791  0.7737  2.1347  0.7652
 2742TIP3   OH229716   1.044   0.200  10.690  0.1951 -0.6098 -0.2449
 2742TIP3    H129717   0.971   0.145  10.662  0.1364  0.2656 -1.9170
 2742TIP3    H229718   1.038   0.202  10.785 -1.4032 -1.3154 -0.3123
 2743TIP3   OH229719   3.205   4.577  15.739  0.1617 -0.0345 -0.5998
 2743TIP3    H129720   3.188   4.565  15.645 -0.1162 -0.4430 -0.4987
 2743TIP3    H229721   3.301   4.573  15.746  0.1764 -0.1730 -0.8438
 2744TIP3   OH229722   6.815   3.726  11.721 -0.0037 -0.0414  0.6450
 2744TIP3    H129723   6.789   3.639  11.692  0.0058 -0.1115  0.8450
 2744TIP3    H229724   6.889   3.711  11.780  0.3941  0.1471  0.1952
 2745TIP3   OH229725   0.445   2.528  11.252 -0.4825 -0.5544 -0.0856
 2745TIP3    H129726   0.462   2.435  11.235 -1.5265 -0.9720  1.0849
 2745TIP3    H229727   0.351   2.533  11.269 -0.3904  0.6793  0.1388
 2746TIP3   OH229728   3.855   1.016   6.311  0.2655 -0.1150 -0.2523
 2746TIP3    H129729   3.855   1.007   6.406 -1.2021 -1.3189 -0.3363
 2746TIP3    H229730   3.764   1.036   6.289  0.3577 -0.9407 -1.4666
 2747TIP3   OH229731   1.962   5.413  12.359  0.0831 -0.1102  0.0525
 2747TIP3    H129732   1.927   5.468  12.288 -0.2486  1.5944  1.4959
 2747TIP3    H229733   2.049   5.388  12.329  0.3048  1.3502 -0.5697
 2748TIP3   OH229734   5.419   5.719  15.575  0.1843 -0.0795  0.3406
 2748TIP3    H129735   5.483   5.668  15.526  0.5394 -0.2947  1.0280
 2748TIP3    H229736   5.374   5.771  15.509 -0.2328 -1.3304 -0.3860
 2749TIP3   OH229737   3.391   2.335  17.266  0.6243  0.2121  0.5035
 2749TIP3    H129738   3.304   2.320  17.230  0.6681  0.3331  0.3466
 2749TIP3    H229739   3.406   2.260  17.324  0.5875 -0.0206  0.2113
 2750TIP3   OH229740   4.974   6.735   3.767  0.3665  0.2385 -0.3377
 2750TIP3    H129741   5.063   6.759   3.792  0.4155 -0.4627  0.2008
 2750TIP3    H229742   4.980   6.643   3.743 -0.8239 -0.7981  3.0332
 2751TIP3   OH229743   3.815   1.404   2.471  0.0924 -0.4568 -0.3507
 2751TIP3    H129744   3.744   1.427   2.531 -0.7154 -0.1268 -1.4099
 2751TIP3    H229745   3.895   1.414   2.522 -0.6938 -2.1627  1.2887
 2752TIP3   OH229746   2.402   0.249  14.662 -0.0994  0.1967  0.4728
 2752TIP3    H129747   2.412   0.241  14.757  1.1245  0.1419  0.3485
 2752TIP3    H229748   2.435   0.336  14.642 -1.0637  0.5016  0.1825
 2753TIP3   OH229749   2.536   3.887  15.448 -0.1218  0.0122  0.2004
 2753TIP3    H129750   2.549   3.929  15.532 -0.2451  1.7395 -0.6256
 2753TIP3    H229751   2.452   3.921  15.417 -0.3761 -1.0897 -0.3384
 2754TIP3   OH229752   2.908   2.171  14.149  0.0362 -0.1237  0.3629
 2754TIP3    H129753   2.852   2.225  14.204 -0.1748  0.3922 -0.3584
 2754TIP3    H229754   2.869   2.083  14.154 -1.4400  0.4353 -0.9494
 2755TIP3   OH229755   4.168   2.553  15.470  0.4480  0.5054  0.2944
 2755TIP3    H129756   4.181   2.501  15.550 -0.8689 -1.0989 -0.5102
 2755TIP3    H229757   4.235   2.521  15.410 -0.0957  0.0379 -0.0607
 2756TIP3   OH229758   2.340   3.046   0.780 -0.4250  0.5163  0.0178
 2756TIP3    H129759   2.391   3.064   0.701 -2.3448  0.6530 -1.2000
 2756TIP3    H229760   2.356   2.954   0.798 -0.2808  0.3947 -0.7264
 2757TIP3   OH229761   3.434   4.562  16.153  0.0688 -0.5195  0.0716
 2757TIP3    H129762   3.506   4.523  16.103  0.2847 -0.1841  0.1116
 2757TIP3    H229763   3.375   4.596  16.087  0.2700 -0.2259  0.0407
 2758TIP3   OH229764   2.454   1.936   3.655 -0.3231  0.6293 -0.5212
 2758TIP3    H129765   2.433   2.017   3.607 -2.3796 -0.3028 -1.2934
 2758TIP3    H229766   2.450   1.868   3.588  1.1841 -0.1524  0.1726
 2759TIP3   OH229767   6.407   1.306   3.319 -0.0870 -0.3022 -0.2488
 2759TIP3    H129768   6.461   1.265   3.386  0.3665  1.3916  0.4690
 2759TIP3    H229769   6.328   1.252   3.315  0.0989 -0.7123  1.3080
 2760TIP3   OH229770   3.987   1.782  12.427 -0.4903  0.2452  0.0145
 2760TIP3    H129771   3.939   1.842  12.370 -1.6663  0.7448  1.4752
 2760TIP3    H229772   3.934   1.702  12.428 -0.4906  0.2485  0.4178
 2761TIP3   OH229773   3.514   0.394   4.531  0.2234 -0.3910 -0.6550
 2761TIP3    H129774   3.528   0.487   4.509  1.1400 -0.6147 -1.0283
 2761TIP3    H229775   3.503   0.394   4.626 -0.3005  0.1637 -0.7110
 2762TIP3   OH229776   1.407   2.288  14.428 -0.5068  0.4438 -0.1426
 2762TIP3    H129777   1.380   2.371  14.388 -0.8399  0.5428  0.2913
 2762TIP3    H229778   1.413   2.228  14.354 -1.1217  0.6269 -0.3498
 2763TIP3   OH229779   5.819   3.397  11.414 -0.2382  0.0752  0.7107
 2763TIP3    H129780   5.909   3.401  11.383 -0.3396  0.9487  0.5080
 2763TIP3    H229781   5.823   3.341  11.492  0.4081 -0.2003  0.4872
 2764TIP3   OH229782   1.370   0.822   3.716  0.3671  0.5262  0.3403
 2764TIP3    H129783   1.276   0.841   3.713  0.3610  0.4486  0.0235
 2764TIP3    H229784   1.400   0.862   3.798 -0.0779 -0.0767  0.8025
 2765TIP3   OH229785   6.603   0.888   6.732  0.3525  0.0730  0.3880
 2765TIP3    H129786   6.584   0.833   6.655  1.2775  0.6154 -0.2396
 2765TIP3    H229787   6.688   0.858   6.763 -0.0720 -0.2240  1.2903
 2766TIP3   OH229788   3.621   3.316  15.470  0.0952  0.0518  0.6405
 2766TIP3    H129789   3.565   3.294  15.544  0.9427 -0.6825  1.0776
 2766TIP3    H229790   3.709   3.291  15.499  0.3723 -0.6571 -0.7786
 2767TIP3   OH229791   0.565   1.529   6.775  0.1761  0.6811  0.1452
 2767TIP3    H129792   0.578   1.487   6.690  0.7806  1.2866 -0.0601
 2767TIP3    H229793   0.621   1.480   6.835 -0.4755  0.0627  0.2649
 2768TIP3   OH229794   2.346   2.144  15.674  0.0306  0.1556 -0.4504
 2768TIP3    H129795   2.261   2.148  15.632  0.8069 -1.4738 -2.2616
 2768TIP3    H229796   2.365   2.050  15.682  0.7502  0.4519  1.8439
 2769TIP3   OH229797   4.529   0.359   4.398  0.0660  0.2361 -0.9192
 2769TIP3    H129798   4.532   0.324   4.487  0.7076 -1.1143 -1.4606
 2769TIP3    H229799   4.450   0.413   4.397 -0.1959 -0.0990  0.3445
 2770TIP3   OH229800   5.581   0.278   4.491 -0.3970  0.0345  0.2621
 2770TIP3    H129801   5.503   0.241   4.532 -0.6806  1.2102  0.8165
 2770TIP3    H229802   5.654   0.238   4.539 -0.6058 -1.9486 -1.0237
 2771TIP3   OH229803   4.916   6.604  11.039 -0.8098  0.5167 -0.0936
 2771TIP3    H129804   4.969   6.636  10.967 -0.7440 -0.2756 -0.3925
 2771TIP3    H229805   4.837   6.570  10.998  0.3582 -2.3619 -0.0310
 2772TIP3   OH229806   4.704   1.793   3.974 -0.3104 -0.3061 -0.1128
 2772TIP3    H129807   4.750   1.792   4.058  0.5590  0.4643 -0.5602
 2772TIP3    H229808   4.726   1.709   3.934  1.4486  0.3919 -0.6904
 2773TIP3   OH229809   4.219   4.471  13.457 -0.0788  0.0259  0.1372
 2773TIP3    H129810   4.125   4.486  13.451 -0.1547 -0.5942 -0.2537
 2773TIP3    H229811   4.228   4.400  13.520  0.1005 -0.1960 -0.1407
 2774TIP3   OH229812   5.588   5.093   5.870 -0.2941 -0.3121 -0.3758
 2774TIP3    H129813   5.666   5.144   5.892  0.6175 -1.9002  0.1223
 2774TIP3    H229814   5.580   5.100   5.775  1.3548 -1.4197 -0.6099
 2775TIP3   OH229815   0.184   4.853   5.168 -0.1967 -0.2221  0.1286
 2775TIP3    H129816   0.144   4.920   5.113 -0.4649 -0.7458 -0.3154
 2775TIP3    H229817   0.271   4.888   5.188  0.2905 -0.4878 -1.4803
 2776TIP3   OH229818   4.384   3.106   3.644 -0.1955 -0.1574 -0.0051
 2776TIP3    H129819   4.365   3.192   3.681  2.9599  0.8624 -0.6800
 2776TIP3    H229820   4.446   3.067   3.705  2.1895  0.0464 -2.2475
 2777TIP3   OH229821   4.454   2.982   0.902  0.2602 -0.0014  0.4617
 2777TIP3    H129822   4.454   3.018   0.813  2.3861 -1.9449 -0.3698
 2777TIP3    H229823   4.546   2.963   0.921 -0.2752 -0.5441  2.6871
 2778TIP3   OH229824   0.245   4.403   2.829 -0.1665  0.2914 -0.4325
 2778TIP3    H129825   0.172   4.462   2.849 -1.0299  0.1391 -3.0061
 2778TIP3    H229826   0.232   4.328   2.888 -0.8058  1.2491  0.6702
 2779TIP3   OH229827   4.302   3.548  14.423  0.0554  0.3924 -0.0148
 2779TIP3    H129828   4.390   3.511  14.429 -0.0373  0.3064  0.9425
 2779TIP3    H229829   4.258   3.495  14.356  0.2073 -0.6745  0.7100
 2780TIP3   OH229830   4.982   2.605  14.536  0.1907 -0.6733  1.0485
 2780TIP3    H129831   4.964   2.545  14.609  1.1051 -2.8843 -0.4614
 2780TIP3    H229832   4.896   2.631  14.505 -0.2304 -1.1328  1.8070
 2781TIP3   OH229833   6.275   3.117  14.631  0.2237 -0.0887 -0.4203
 2781TIP3    H129834   6.277   3.045  14.694 -2.4749 -0.4643 -0.7385
 2781TIP3    H229835   6.234   3.080  14.553 -0.3535  1.5379 -0.8995
 2782TIP3   OH229836   4.716   6.122   2.375 -0.4363  0.5693 -0.0758
 2782TIP3    H129837   4.698   6.214   2.394  0.3011  0.6528  0.2177
 2782TIP3    H229838   4.629   6.082   2.366 -0.7603  1.2074  0.2072
 2783TIP3   OH229839   1.942   1.476   5.842 -0.0143  0.2229 -0.1254
 2783TIP3    H129840   1.918   1.555   5.794  1.5218  0.2764 -0.8559
 2783TIP3    H229841   1.993   1.508   5.917  0.5101 -0.0660 -0.3575
 2784TIP3   OH229842   2.408   3.118  11.381  0.0892 -0.1426  0.3172
 2784TIP3    H129843   2.336   3.180  11.390 -0.2601 -0.4709 -0.1707
 2784TIP3    H229844   2.467   3.137  11.454 -0.7965 -0.2716  1.0593
 2785TIP3   OH229845   3.267   0.565   2.213  0.8183 -0.4592  0.4200
 2785TIP3    H129846   3.186   0.538   2.256  0.4742 -0.4555 -0.2116
 2785TIP3    H229847   3.310   0.623   2.275  1.2830 -1.9975  1.5628
 2786TIP3   OH229848   5.016   3.558  16.076 -0.1312  0.0394 -0.7649
 2786TIP3    H129849   5.093   3.508  16.103  1.2013  1.1505 -2.4179
 2786TIP3    H229850   4.943   3.498  16.091  1.0816 -1.1684  0.4744
 2787TIP3   OH229851   3.757   4.133   4.269  0.7494 -0.7822 -0.2637
 2787TIP3    H129852   3.808   4.069   4.218  1.5689  0.7299 -1.3796
 2787TIP3    H229853   3.756   4.212   4.215  0.4885  0.4393  1.4702
 2788TIP3   OH229854   6.600   3.534  16.053 -0.6637  0.4628  0.3612
 2788TIP3    H129855   6.525   3.585  16.023  0.8061  2.0988 -0.6844
 2788TIP3    H229856   6.578   3.443  16.034 -1.5414  1.1063 -1.8069
 2789TIP3   OH229857   0.403   1.669  14.967 -0.4553  0.1998 -0.1594
 2789TIP3    H129858   0.459   1.723  14.912 -0.0662 -1.2799 -1.2397
 2789TIP3    H229859   0.462   1.624  15.027 -0.7130  0.4834  0.3107
 2790TIP3   OH229860   0.229   0.382  15.822 -0.1489 -0.3784  0.3062
 2790TIP3    H129861   0.198   0.411  15.736 -0.3570 -0.9453  0.1874
 2790TIP3    H229862   0.292   0.313  15.803 -1.9064 -2.1371  0.6483
 2791TIP3   OH229863   2.171   0.574  13.305 -0.1176  0.5049 -0.0356
 2791TIP3    H129864   2.195   0.622  13.226 -0.9628 -0.0784 -0.6607
 2791TIP3    H229865   2.230   0.498  13.306  1.5198  1.7778  1.1944
 2792TIP3   OH229866   6.121   5.315  13.893 -0.3048  0.1755 -0.2299
 2792TIP3    H129867   6.207   5.282  13.919 -1.5171 -1.3347  2.0360
 2792TIP3    H229868   6.136   5.408  13.872  1.7768  0.0514  0.6046
 2793TIP3   OH229869   1.758   3.905  16.106 -0.3095 -0.1020  0.0147
 2793TIP3    H129870   1.672   3.942  16.128  0.3512  0.4586  1.7662
 2793TIP3    H229871   1.791   3.959  16.035 -0.8169  0.5392  0.2685
 2794TIP3   OH229872   6.769   6.620  15.245  0.0269  0.3217 -0.1309
 2794TIP3    H129873   6.839   6.641  15.183  0.6687 -1.8939 -0.2007
 2794TIP3    H229874   6.806   6.643  15.330 -0.5718  2.6453 -0.4685
 2795TIP3   OH229875   5.359   3.961   2.289  0.0343 -0.2551  0.3849
 2795TIP3    H129876   5.347   3.923   2.202  0.1859 -0.2533  0.3624
 2795TIP3    H229877   5.398   3.891   2.341  0.3347 -0.1253  0.3368
 2796TIP3   OH229878   4.914   2.064   4.065 -0.2672  0.3029  0.6354
 2796TIP3    H129879   4.922   1.985   4.118 -0.4612 -1.0613 -1.3120
 2796TIP3    H229880   4.948   2.039   3.979 -0.0263  2.4335  0.0715
 2797TIP3   OH229881   0.637   5.855  11.586  0.5726  0.5294  0.3627
 2797TIP3    H129882   0.607   5.880  11.673  4.0355 -0.0915  1.8043
 2797TIP3    H229883   0.608   5.926  11.529 -0.4597  1.6588  2.2520
 2798TIP3   OH229884   0.563   4.453  16.573  0.3164 -0.4484 -0.5747
 2798TIP3    H129885   0.526   4.541  16.578 -0.6292 -0.8980  0.5504
 2798TIP3    H229886   0.505   4.406  16.513  0.0388 -0.6800 -0.1253
 2799TIP3   OH229887   1.497   0.406   2.526  0.2947 -0.6161 -0.2341
 2799TIP3    H129888   1.411   0.364   2.522  0.1403 -0.3819  0.5623
 2799TIP3    H229889   1.508   0.448   2.441 -0.9303  0.4275  0.1156
 2800TIP3   OH229890   1.531   1.817  12.220  0.1508 -0.0561 -0.1969
 2800TIP3    H129891   1.498   1.786  12.136 -0.0889 -1.0227  0.2464
 2800TIP3    H229892   1.465   1.880  12.250 -1.3315 -1.9742  0.6812
 2801TIP3   OH229893   3.369   0.978  10.917  0.2426 -0.2945  0.6728
 2801TIP3    H129894   3.344   1.029  10.994 -0.7748 -0.0191  0.1720
 2801TIP3    H229895   3.342   1.033  10.843  2.3555  0.0148  0.1044
 2802TIP3   OH229896   4.841   0.456  11.272  0.4709 -0.0217 -0.5356
 2802TIP3    H129897   4.892   0.378  11.250  0.4187 -0.4258  0.7299
 2802TIP3    H229898   4.777   0.425  11.336 -0.0834  0.8907 -0.6475
 2803TIP3   OH229899   6.804   0.345  14.160 -0.2172 -0.3606 -0.2373
 2803TIP3    H129900   6.826   0.418  14.217 -4.3267  0.2429  0.7390
 2803TIP3    H229901   6.832   0.373  14.073  0.7645  1.1994  0.5704
 2804TIP3   OH229902   2.175   4.270   3.125 -0.0880  0.5250  0.5050
 2804TIP3    H129903   2.264   4.246   3.102 -0.7014 -0.2501 -1.1852
 2804TIP3    H229904   2.124   4.190   3.108 -1.2362  1.2316  0.5710
 2805TIP3   OH229905   4.750   6.075   1.353  0.5423 -0.2734 -0.2878
 2805TIP3    H129906   4.698   6.154   1.339  2.2295  1.1868  1.5328
 2805TIP3    H229907   4.777   6.048   1.265 -0.2645  1.0038 -0.9370
 2806TIP3   OH229908   2.263   2.963   2.247 -0.5019  0.1887 -0.3181
 2806TIP3    H129909   2.178   2.978   2.288 -0.9244  0.5526 -1.3075
 2806TIP3    H229910   2.297   2.884   2.290 -1.1763  0.2572  0.3442
 2807TIP3   OH229911   3.332   6.528   2.105 -0.1421 -0.2648 -0.2714
 2807TIP3    H129912   3.343   6.514   2.199  0.9513  1.8810 -0.0589
 2807TIP3    H229913   3.278   6.607   2.099  0.2091 -0.1053 -1.4340
 2808TIP3   OH229914   4.420   5.940  11.097  0.3954  0.4868 -0.1273
 2808TIP3    H129915   4.457   5.989  11.023  0.8000  2.2132  1.1943
 2808TIP3    H229916   4.326   5.943  11.082  0.4974  0.4693 -0.7995
 2809TIP3   OH229917   2.461   4.861  12.523 -0.5656  0.0754  0.3456
 2809TIP3    H129918   2.513   4.933  12.560  0.6817 -0.2573 -0.7200
 2809TIP3    H229919   2.416   4.823  12.598  0.1194  0.8886  1.1772
 2810TIP3   OH229920   6.065   1.472   5.840  0.5138 -0.0769  0.3054
 2810TIP3    H129921   6.074   1.405   5.772  1.2821  0.5544 -0.2197
 2810TIP3    H229922   5.973   1.464   5.869  0.2060 -0.3977 -0.7427
 2811TIP3   OH229923   1.614   3.259   0.886 -0.4024 -0.1853 -0.3691
 2811TIP3    H129924   1.552   3.255   0.959 -1.5074 -1.7247 -1.3672
 2811TIP3    H229925   1.574   3.320   0.824  0.4322  0.9518  0.1786
 2812TIP3   OH229926   0.896   6.637   5.158  0.0944 -0.5753 -0.1555
 2812TIP3    H129927   0.914   6.554   5.114 -1.2310 -0.2090 -1.4198
 2812TIP3    H229928   0.811   6.624   5.200  0.6397 -0.4025  1.0078
 2813TIP3   OH229929   0.252   2.041  15.087  0.5230 -0.2555 -0.2701
 2813TIP3    H129930   0.225   1.977  15.021 -1.3710 -0.6620  0.8592
 2813TIP3    H229931   0.286   2.115  15.036 -2.0387 -0.0593 -1.7858
 2814TIP3   OH229932   2.374   1.063  16.624  0.1082 -0.2191 -0.2313
 2814TIP3    H129933   2.300   1.003  16.628 -1.4825  1.7322 -0.1107
 2814TIP3    H229934   2.343   1.137  16.573  1.8243  0.8434  0.2133
 2815TIP3   OH229935   4.283   0.575   5.244  1.2497  0.6771  0.1675
 2815TIP3    H129936   4.208   0.531   5.284  0.5776 -0.1578 -1.9241
 2815TIP3    H229937   4.355   0.513   5.254  1.6515  1.4149  2.0408
 2816TIP3   OH229938   6.035   6.657  15.480  0.4587 -0.1405  0.2531
 2816TIP3    H129939   6.108   6.614  15.435 -0.7175  0.1889 -2.0652
 2816TIP3    H229940   6.016   6.734  15.426  0.1548  1.2741  2.3379
 2817TIP3   OH229941   0.653   0.390   3.013  0.0534  0.2610 -0.2501
 2817TIP3    H129942   0.612   0.360   2.932  0.2599 -2.2384  0.5164
 2817TIP3    H229943   0.676   0.310   3.059  2.8460  1.6234  0.8584
 2818TIP3   OH229944   1.568   6.411   1.228 -0.2448 -0.1998 -0.0871
 2818TIP3    H129945   1.608   6.418   1.315  0.5325  1.9195 -0.5907
 2818TIP3    H229946   1.629   6.357   1.178 -0.3080 -0.7872  0.4638
 2819TIP3   OH229947   0.878   1.316  13.249  0.4281  0.0204  0.7001
 2819TIP3    H129948   0.872   1.390  13.188 -1.9618 -0.5355  0.2356
 2819TIP3    H229949   0.814   1.336  13.317  1.9508 -0.1537  2.2206
 2820TIP3   OH229950   0.066   4.999  15.388 -0.3233  0.3660 -0.0932
 2820TIP3    H129951   0.011   5.051  15.330  0.0765 -0.1944 -0.9887
 2820TIP3    H229952   0.155   5.033  15.373 -0.1816  0.0366 -0.0023
 2821TIP3   OH229953   1.806   6.399  16.202  0.4351  0.4279 -0.0720
 2821TIP3    H129954   1.840   6.321  16.158  0.5043  1.0285 -1.0782
 2821TIP3    H229955   1.767   6.365  16.283  1.6647 -0.4941  0.1523
 2822TIP3   OH229956   6.756   2.189  11.193 -0.2535  0.0722  0.4773
 2822TIP3    H129957   6.661   2.184  11.192 -0.2818  0.7376 -0.6356
 2822TIP3    H229958   6.781   2.202  11.101  1.0241 -2.1199  0.4750
 2823TIP3   OH229959   0.385   1.050  11.092 -0.3306  0.2938  0.5430
 2823TIP3    H129960   0.442   1.031  11.018 -1.0595 -1.3180  0.3741
 2823TIP3    H229961   0.430   1.012  11.168 -0.2518  0.7084  0.7023
 2824TIP3   OH229962   2.053   5.606   5.669  0.2682  0.3948  0.4540
 2824TIP3    H129963   2.029   5.612   5.761  0.9740 -1.8887  0.8275
 2824TIP3    H229964   2.119   5.536   5.666 -2.0149 -1.7897 -2.1782
 2825TIP3   OH229965   0.886   0.106   3.092  0.2017  0.1036  0.0071
 2825TIP3    H129966   0.868   0.015   3.069 -1.5087  1.3901 -4.2080
 2825TIP3    H229967   0.815   0.130   3.152 -1.2753 -0.4272 -1.4912
 2826TIP3   OH229968   4.631   3.657  16.565  0.5389 -0.6693  0.4465
 2826TIP3    H129969   4.647   3.659  16.471  0.3824  0.7496  0.4371
 2826TIP3    H229970   4.536   3.663  16.573  0.5905 -0.2181  0.7090
 2827TIP3   OH229971   3.852   2.198  10.753  0.4209 -0.2890 -0.1215
 2827TIP3    H129972   3.806   2.141  10.692 -0.1750 -0.3732  0.3989
 2827TIP3    H229973   3.788   2.217  10.822  0.5933  1.0618 -0.3186
 2828TIP3   OH229974   3.570   2.712  16.418 -0.0218  0.0200  0.0722
 2828TIP3    H129975   3.620   2.790  16.392  1.3913 -0.4991  1.1377
 2828TIP3    H229976   3.547   2.670  16.336 -0.8747  1.5983 -0.5293
 2829TIP3   OH229977   1.219   0.181   1.223 -0.2426  0.6356  0.3420
 2829TIP3    H129978   1.237   0.177   1.129 -0.0340 -0.9793  0.4336
 2829TIP3    H229979   1.181   0.095   1.243  1.1906  0.3912  2.0294
 2830TIP3   OH229980   2.451   5.012   2.859  0.9263  0.0260 -0.0740
 2830TIP3    H129981   2.427   5.081   2.919 -0.9021  0.6534 -1.4907
 2830TIP3    H229982   2.539   4.986   2.886  1.6792  2.9534  0.4247
 2831TIP3   OH229983   3.394   1.787  12.857 -0.3500 -0.1216  0.1681
 2831TIP3    H129984   3.400   1.879  12.833  0.4377  0.0947  1.1743
 2831TIP3    H229985   3.339   1.748  12.789 -3.6956  1.7768  1.6863
 2832TIP3   OH229986   6.256   5.190  11.337  0.8578  0.0804 -0.5293
 2832TIP3    H129987   6.342   5.199  11.379 -0.3131  0.0574  1.9794
 2832TIP3    H229988   6.226   5.280  11.325  0.4240  0.0571  0.3518
 2833TIP3   OH229989   1.071   2.432  17.155 -0.5319 -0.7728 -0.7421
 2833TIP3    H129990   1.127   2.487  17.100 -1.4896  2.4011  1.3674
 2833TIP3    H229991   1.050   2.486  17.230 -0.4820 -4.5146  2.1058
 2834TIP3   OH229992   3.069   2.358   2.975 -1.0902 -0.5584 -0.3766
 2834TIP3    H129993   3.131   2.291   2.946  2.7697  2.8243 -0.3070
 2834TIP3    H229994   3.047   2.407   2.896  1.8817  2.6004  0.6482
 2835TIP3   OH229995   2.413   4.307   3.906  0.0632 -0.3149  0.5347
 2835TIP3    H129996   2.399   4.243   3.976  0.9192 -1.2323 -0.1222
 2835TIP3    H229997   2.333   4.361   3.907 -0.3885 -0.9763  1.5112
 2836TIP3   OH229998   5.459   3.386   2.588  0.3747 -0.1071 -0.3945
 2836TIP3    H129999   5.506   3.456   2.544  1.1231  0.8994  1.9562
 2836TIP3    H230000   5.378   3.427   2.620 -0.1929 -0.8394 -0.8720
 2837TIP3   OH230001   1.331   1.326   1.627 -0.4395  0.1712 -0.5984
 2837TIP3    H130002   1.257   1.371   1.587 -2.1815  0.3517  2.6470
 2837TIP3    H230003   1.348   1.375   1.707  1.7268 -1.2393 -0.1611
 2838TIP3   OH230004   3.579   3.692   4.093  0.2176 -0.1793 -0.3754
 2838TIP3    H130005   3.626   3.772   4.070  1.5330 -1.0470 -0.7401
 2838TIP3    H230006   3.514   3.721   4.157  2.6153  0.7150  1.7554
 2839TIP3   OH230007   2.995   5.625  13.323  0.3991  0.5122 -0.1646
 2839TIP3    H130008   3.037   5.707  13.348  0.8648 -0.0611  0.9486
 2839TIP3    H230009   2.930   5.609  13.391  1.1430 -0.6603  0.2799
 2840TIP3   OH230010   4.453   0.371  13.696 -0.2292  0.2091 -0.2579
 2840TIP3    H130011   4.416   0.457  13.674 -0.8246  0.0272  0.0330
 2840TIP3    H230012   4.529   0.392  13.751 -0.1702  0.5638 -0.4711
 2841TIP3   OH230013   5.115   4.142   4.488  0.1006  0.1846 -0.3735
 2841TIP3    H130014   5.119   4.141   4.392  2.3211  3.0907 -0.3908
 2841TIP3    H230015   5.203   4.167   4.516 -1.2587  2.3074  2.2762
 2842TIP3   OH230016   5.431   1.585  13.842  0.1026  0.1396 -0.0930
 2842TIP3    H130017   5.378   1.506  13.853  2.0127 -1.3253 -1.0617
 2842TIP3    H230018   5.475   1.596  13.926  1.2938 -0.9871 -0.5300
 2843TIP3   OH230019   1.490   1.779   6.076  0.3870 -0.2247 -0.2819
 2843TIP3    H130020   1.547   1.753   6.004 -1.4815  0.6907 -2.1384
 2843TIP3    H230021   1.478   1.698   6.127  0.9051 -1.1376 -1.5797
 2844TIP3   OH230022   2.907   5.433   4.534  0.0679  0.1462 -0.6377
 2844TIP3    H130023   2.988   5.481   4.549  0.2567 -0.3080 -0.1391
 2844TIP3    H230024   2.927   5.344   4.562 -0.9883  0.3216  0.7459
 2845TIP3   OH230025   5.592   1.903   0.985  0.4967 -0.3000  0.4284
 2845TIP3    H130026   5.687   1.909   0.970  0.4499 -2.3067 -0.9655
 2845TIP3    H230027   5.584   1.873   1.076  1.3182 -2.8132 -0.2878
 2846TIP3   OH230028   6.506   3.964  16.868  0.0665  0.3459  0.8043
 2846TIP3    H130029   6.415   3.951  16.892 -0.1891  0.9919  0.2073
 2846TIP3    H230030   6.546   3.878  16.876 -0.5994  0.0608  1.0616
 2847TIP3   OH230031   4.390   0.706   2.032  0.8559  0.0064  0.3056
 2847TIP3    H130032   4.446   0.633   2.059  1.6719 -0.1048 -1.5981
 2847TIP3    H230033   4.308   0.691   2.079  0.8052 -2.4874 -0.4624
 2848TIP3   OH230034   1.121   0.957  17.173 -0.7877  0.4350  0.4168
 2848TIP3    H130035   1.037   1.001  17.161 -0.7064  0.2894 -0.6704
 2848TIP3    H230036   1.151   0.937  17.085  0.2066  0.1306  0.8197
 2849TIP3   OH230037   5.066   2.454  13.228 -0.1600 -0.0154  0.1979
 2849TIP3    H130038   5.070   2.526  13.290 -1.2755  0.0728  0.1816
 2849TIP3    H230039   5.021   2.384  13.276  0.5591 -0.5647  0.0831
 2850TIP3   OH230040   2.382   2.416   2.452  0.3010  0.7066  0.8086
 2850TIP3    H130041   2.477   2.421   2.455  0.4770 -1.0449 -0.6939
 2850TIP3    H230042   2.358   2.462   2.372  0.1971 -1.7424 -0.6399
 2851TIP3   OH230043   3.794   3.800  12.084  0.2011  0.1109 -0.1806
 2851TIP3    H130044   3.746   3.880  12.105  1.6936  0.9430  0.1432
 2851TIP3    H230045   3.761   3.735  12.146  0.8881  1.1891  1.3534
 2852TIP3   OH230046   1.576   4.884   3.145 -0.0426 -0.2272  0.4317
 2852TIP3    H130047   1.636   4.859   3.074  0.2642 -1.5313  1.1333
 2852TIP3    H230048   1.526   4.805   3.163  0.1550 -0.0292  1.9393
 2853TIP3   OH230049   6.163   3.199   4.505 -0.2042 -0.3539 -0.1107
 2853TIP3    H130050   6.213   3.152   4.571 -1.2025  1.9304  2.3298
 2853TIP3    H230051   6.072   3.193   4.535 -0.6247  1.0800 -1.0571
 2854TIP3   OH230052   6.178   6.167   5.188  0.6124  0.0213 -0.3600
 2854TIP3    H130053   6.201   6.215   5.109 -1.7205  0.1037 -1.0349
 2854TIP3    H230054   6.240   6.197   5.254  1.6374  1.0537 -1.7654
 2855TIP3   OH230055   0.971   1.824   4.459 -0.2132 -0.0258 -0.2407
 2855TIP3    H130056   1.027   1.771   4.516  1.0659 -0.6515 -2.0254
 2855TIP3    H230057   0.997   1.799   4.370 -2.1223  0.9710 -1.1079
 2856TIP3   OH230058   4.136   3.849   4.817 -0.0207  0.1988 -0.5597
 2856TIP3    H130059   4.043   3.833   4.799  0.3527  0.5681 -2.9831
 2856TIP3    H230060   4.140   3.941   4.841 -0.1190  0.4929 -1.6657
 2857TIP3   OH230061   5.040   2.312  11.878 -0.3989 -0.4234 -0.4287
 2857TIP3    H130062   4.957   2.264  11.877  0.1008 -1.3219  0.5486
 2857TIP3    H230063   5.072   2.304  11.788 -0.9907 -0.7426 -0.6200
 2858TIP3   OH230064   3.398   4.593   1.658 -0.3195 -0.0190 -0.4273
 2858TIP3    H130065   3.352   4.671   1.688 -0.9477 -0.7051  0.4246
 2858TIP3    H230066   3.349   4.520   1.697  2.0995 -0.7366  1.3875
 2859TIP3   OH230067   4.352   3.947  11.269 -0.0532  0.2722  0.6102
 2859TIP3    H130068   4.304   3.900  11.337 -0.7287  1.2063  0.7880
 2859TIP3    H230069   4.285   3.980  11.209  0.4257  0.7266  0.3163
 2860TIP3   OH230070   4.131   4.767   2.545 -0.0271  0.4143 -0.2857
 2860TIP3    H130071   4.076   4.697   2.510  0.4624 -0.4129  0.5484
 2860TIP3    H230072   4.219   4.730   2.545  0.4045  1.4183 -0.8178
 2861TIP3   OH230073   3.516   3.926  14.174  0.2407 -0.2826 -0.1864
 2861TIP3    H130074   3.562   3.970  14.103 -0.2806 -2.5422 -1.9580
 2861TIP3    H230075   3.424   3.950  14.160  0.4686  1.9131  1.6914
 2862TIP3   OH230076   2.702   2.045  14.995  0.1595 -0.0121  0.1801
 2862TIP3    H130077   2.745   2.104  14.932 -0.7358 -2.3229 -2.7216
 2862TIP3    H230078   2.623   2.091  15.021 -0.3281  0.2872 -1.7391
 2863TIP3   OH230079   3.095   2.837   2.960  0.4246 -0.5267 -0.0771
 2863TIP3    H130080   3.024   2.875   3.011  0.9157  1.0631 -0.5654
 2863TIP3    H230081   3.170   2.894   2.976  1.0844 -1.0932 -1.0831
 2864TIP3   OH230082   2.062   5.325  13.368  0.0301  0.4897  0.3584
 2864TIP3    H130083   1.985   5.358  13.413  0.5836 -0.4109  2.0327
 2864TIP3    H230084   2.093   5.398  13.314 -1.2240  1.2668  0.6906
 2865TIP3   OH230085   0.306   2.346   4.790 -0.0463 -0.1510  0.4864
 2865TIP3    H130086   0.362   2.355   4.867 -0.2068 -0.3686  0.6287
 2865TIP3    H230087   0.366   2.352   4.716  0.1389 -0.1755  0.6341
 2866TIP3   OH230088   5.213   1.976   0.318  0.1901 -0.1597  0.3710
 2866TIP3    H130089   5.243   1.887   0.298 -1.0689 -0.6860  0.7586
 2866TIP3    H230090   5.127   1.982   0.277 -0.0790  0.6049  1.0360
 2867TIP3   OH230091   6.611   5.212  13.020 -0.6947  0.4327  0.1651
 2867TIP3    H130092   6.543   5.242  13.080 -0.9612 -0.4945  0.3430
 2867TIP3    H230093   6.566   5.150  12.962 -0.0751  0.0586  0.0832
 2868TIP3   OH230094   0.729   0.547   6.582  0.5085 -0.1381 -0.2546
 2868TIP3    H130095   0.772   0.603   6.647 -0.6252  1.0449 -0.5038
 2868TIP3    H230096   0.660   0.502   6.630  0.9190 -0.7359 -0.2229
 2869TIP3   OH230097   1.589   5.594   3.675 -0.3858 -0.0815  1.1808
 2869TIP3    H130098   1.550   5.628   3.594 -0.5905 -0.2842  1.1947
 2869TIP3    H230099   1.683   5.591   3.656 -0.3829  0.3409  1.1231
 2870TIP3   OH230100   6.042   5.689  17.196  0.1427  0.0340  0.2900
 2870TIP3    H130101   6.136   5.692  17.176 -0.0728 -1.4248 -1.0104
 2870TIP3    H230102   6.038   5.659  17.287  0.9575  1.0950  0.6950
 2871TIP3   OH230103   0.194   6.553  16.954 -0.7160  0.3319  0.1930
 2871TIP3    H130104   0.101   6.543  16.931 -0.6304  0.9750 -0.4215
 2871TIP3    H230105   0.237   6.478  16.913 -0.7865  0.6678 -0.4878
 2872TIP3   OH230106   3.905   2.184  12.096 -0.4162  0.5774 -0.1679
 2872TIP3    H130107   3.881   2.153  12.009  0.2980 -1.3680  0.3058
 2872TIP3    H230108   3.941   2.107  12.140  0.3620  1.8298  1.4336
 2873TIP3   OH230109   5.772   2.494   1.495  0.0120 -0.4247 -0.2545
 2873TIP3    H130110   5.705   2.478   1.562  0.5582 -2.4143 -0.1473
 2873TIP3    H230111   5.843   2.538   1.543  0.3453 -1.7224  0.4561
 2874TIP3   OH230112   0.550   4.444  11.793 -0.0968 -0.2913 -0.5015
 2874TIP3    H130113   0.632   4.422  11.837 -1.0717 -0.7869  1.1166
 2874TIP3    H230114   0.496   4.485  11.861 -2.9340 -4.2300 -0.1953
 2875TIP3   OH230115   6.077   1.222  13.559  0.0409  0.0925  0.4574
 2875TIP3    H130116   5.983   1.240  13.559  0.2140  1.1634 -1.3532
 2875TIP3    H230117   6.093   1.181  13.474  1.1329 -0.5167  0.9573
 2876TIP3   OH230118   4.471   0.242   1.372  0.3927 -0.3220  0.0918
 2876TIP3    H130119   4.533   0.289   1.427  0.8149  0.0616 -0.6962
 2876TIP3    H230120   4.450   0.304   1.302 -0.0691 -0.8299 -0.2225
 2877TIP3   OH230121   5.519   5.493  15.443  0.0435  0.3361  0.5707
 2877TIP3    H130122   5.511   5.515  15.350 -1.2355  3.8833  1.4117
 2877TIP3    H230123   5.459   5.419  15.455 -2.1233  1.7809 -0.8675
 2878TIP3   OH230124   1.760   0.826   1.056  0.3679 -0.4670 -0.1941
 2878TIP3    H130125   1.833   0.880   1.086 -0.5554  0.4098  0.5175
 2878TIP3    H230126   1.787   0.796   0.969  2.1896 -1.3740  0.6688
 2879TIP3   OH230127   5.154   5.923  12.177  0.0478 -0.2204  1.5456
 2879TIP3    H130128   5.065   5.909  12.147  0.2356 -2.2066  1.8630
 2879TIP3    H230129   5.151   6.008  12.223 -1.2738  0.5223  0.1254
 2880TIP3   OH230130   4.382   3.568   0.630  0.1560 -0.0804  0.0967
 2880TIP3    H130131   4.302   3.516   0.619 -1.9231  3.3316 -2.1998
 2880TIP3    H230132   4.414   3.582   0.541  1.1917  1.6708  0.7090
 2881TIP3   OH230133   3.670   4.413  13.748  0.1733 -0.2993 -0.2514
 2881TIP3    H130134   3.658   4.335  13.693  0.9757 -0.8704  0.3744
 2881TIP3    H230135   3.747   4.393  13.801 -0.1331  0.5695  0.5271
 2882TIP3   OH230136   0.926   3.027  16.805  0.1235 -0.6034 -0.5003
 2882TIP3    H130137   0.884   2.974  16.873 -0.3260 -1.4193 -1.4110
 2882TIP3    H230138   1.018   3.031  16.833  0.0416 -1.3554 -0.0899
 2883TIP3   OH230139   1.195   0.591  14.290 -0.1158 -0.1916 -0.4292
 2883TIP3    H130140   1.272   0.637  14.256 -0.9862  0.2156 -1.9186
 2883TIP3    H230141   1.121   0.641  14.255 -1.0637 -1.8086 -0.7776
 2884TIP3   OH230142   5.473   6.084  16.719 -0.2198 -0.0544 -0.2214
 2884TIP3    H130143   5.458   6.000  16.762  3.0489 -0.5228  0.1241
 2884TIP3    H230144   5.562   6.077  16.684  0.1850  3.3770  0.0209
 2885TIP3   OH230145   3.658   1.283   5.741 -0.0232  0.2804  0.2944
 2885TIP3    H130146   3.568   1.270   5.769  0.0603  2.1062  1.4955
 2885TIP3    H230147   3.711   1.237   5.806 -0.0620 -0.5905 -0.2790
 2886TIP3   OH230148   4.178   0.520   0.702  0.0904 -0.0805  0.3579
 2886TIP3    H130149   4.138   0.576   0.768 -1.7202 -1.1533  0.2019
 2886TIP3    H230150   4.138   0.434   0.716  2.1722 -1.1346  0.0339
 2887TIP3   OH230151   2.666   1.939  10.946 -0.2907  0.6378 -0.4861
 2887TIP3    H130152   2.690   1.885  10.871 -1.0815  0.0682 -0.3424
 2887TIP3    H230153   2.745   1.987  10.968 -0.2005  1.2055 -2.0134
 2888TIP3   OH230154   1.618   2.630   0.391  0.6481 -0.0328  0.0824
 2888TIP3    H130155   1.666   2.710   0.410  0.6671  0.4998 -2.0882
 2888TIP3    H230156   1.631   2.616   0.297 -1.7057 -1.0254 -0.1194
 2889TIP3   OH230157   2.050   4.883   3.928  0.1623 -0.0115 -0.4222
 2889TIP3    H130158   1.983   4.833   3.882 -0.5652  0.7484 -0.1852
 2889TIP3    H230159   2.080   4.825   3.998  0.1386 -0.5552 -0.8589
 2890TIP3   OH230160   0.284   1.057   5.652  0.1902  0.6154 -0.1703
 2890TIP3    H130161   0.254   1.101   5.731  0.2746  0.1875  0.1055
 2890TIP3    H230162   0.333   0.981   5.685 -0.0540  0.2566 -0.6355
 2891TIP3   OH230163   3.400   5.292   5.404  0.0997 -0.3352 -0.7006
 2891TIP3    H130164   3.475   5.284   5.345 -0.5944 -0.4760 -1.5692
 2891TIP3    H230165   3.407   5.217   5.463 -1.8791 -2.9350 -3.6665
 2892TIP3   OH230166   3.844   5.843   4.419  0.0669  0.1621  0.0205
 2892TIP3    H130167   3.787   5.912   4.385 -2.9245 -1.5561  1.3336
 2892TIP3    H230168   3.851   5.780   4.347  0.9858  0.7741 -0.4245
 2893TIP3   OH230169   3.834   1.156  13.713  0.2243 -0.2279 -0.0750
 2893TIP3    H130170   3.759   1.129  13.767 -0.1219  0.1861 -0.3532
 2893TIP3    H230171   3.853   1.245  13.741  0.6309 -0.3414  0.0129
 2894TIP3   OH230172   2.690   0.121  12.636  0.4183  0.5560  0.0158
 2894TIP3    H130173   2.720   0.043  12.590  1.0808 -0.3278  1.8931
 2894TIP3    H230174   2.759   0.186  12.622 -0.4747  1.0822 -2.1653
 2895TIP3   OH230175   2.755   3.362  10.991 -0.0523 -0.1635  0.0342
 2895TIP3    H130176   2.796   3.434  11.039 -0.6069 -0.3821  0.8324
 2895TIP3    H230177   2.782   3.376  10.900  2.1687 -0.5471  0.5984
 2896TIP3   OH230178   1.012   5.700   1.072  0.1627 -0.0870 -0.0186
 2896TIP3    H130179   0.920   5.727   1.072  0.4710  1.0133  0.4777
 2896TIP3    H230180   1.010   5.607   1.049 -0.9774  0.2397 -1.2811
 2897TIP3   OH230181   2.110   5.325  13.946  0.6182  0.4714 -0.2043
 2897TIP3    H130182   2.027   5.312  13.992  0.5459  1.3319 -0.0655
 2897TIP3    H230183   2.160   5.245  13.961 -0.3389 -0.2039 -0.5988
 2898TIP3   OH230184   1.012   3.874  12.516  0.0148 -0.2049  0.0845
 2898TIP3    H130185   1.101   3.838  12.514 -0.0390 -0.3100 -0.4418
 2898TIP3    H230186   0.998   3.909  12.428 -0.9152 -1.2980 -0.2178
 2899TIP3   OH230187   2.122   3.871   2.122 -0.4081 -0.2213 -0.4267
 2899TIP3    H130188   2.076   3.943   2.080 -2.2583 -0.0084  1.8728
 2899TIP3    H230189   2.060   3.797   2.116 -1.0541  0.0338  2.5874
 2900TIP3   OH230190   3.771   3.656  14.734  0.2250 -0.3274 -0.2190
 2900TIP3    H130191   3.806   3.742  14.759  1.1066 -1.1767  1.5605
 2900TIP3    H230192   3.707   3.635  14.802  1.0211 -1.6735  0.1428
 2901TIP3   OH230193   4.009   2.149  13.076 -0.1413  0.0097 -0.3507
 2901TIP3    H130194   4.058   2.229  13.060 -2.0395  1.9816  3.0943
 2901TIP3    H230195   3.917   2.174  13.063 -0.7797 -1.5360  0.9777
 2902TIP3   OH230196   0.501   0.242  11.441 -0.1612  0.9000  0.2394
 2902TIP3    H130197   0.502   0.163  11.387 -0.4044  0.8166  0.3560
 2902TIP3    H230198   0.593   0.259  11.461 -0.1739  0.0618  1.0491
 2903TIP3   OH230199   4.658   2.824   5.507 -0.2046 -0.1450  0.4451
 2903TIP3    H130200   4.679   2.740   5.548  0.9097  0.6962  1.6509
 2903TIP3    H230201   4.582   2.806   5.452 -0.9515 -1.5874  1.9143
 2904TIP3   OH230202   4.135   4.654  14.755  0.1642 -0.0386 -0.1758
 2904TIP3    H130203   4.176   4.654  14.668 -0.5890 -0.9032 -0.5417
 2904TIP3    H230204   4.160   4.569  14.792 -0.4773 -0.1551 -0.0131
 2905TIP3   OH230205   0.824   2.656  17.207 -0.0909 -0.2929 -0.4359
 2905TIP3    H130206   0.870   2.635  17.288  1.1661  0.5841 -0.9037
 2905TIP3    H230207   0.816   2.572  17.161  2.7274 -0.1982 -1.1960
 2906TIP3   OH230208   1.205   5.141   6.543 -0.5170 -0.3548  0.1041
 2906TIP3    H130209   1.209   5.190   6.625  0.0908  0.1023 -0.1933
 2906TIP3    H230210   1.148   5.067   6.562 -0.7633  0.0109  0.8018
 2907TIP3   OH230211   3.640   3.118  16.254  0.1436 -0.1868 -0.0376
 2907TIP3    H130212   3.687   3.202  16.254 -0.0116 -0.0903 -1.0964
 2907TIP3    H230213   3.708   3.053  16.237  0.3407 -0.3323  1.2495
 2908TIP3   OH230214   2.457   6.704  15.467  0.7116 -0.1464 -0.0378
 2908TIP3    H130215   2.441   6.622  15.512  0.5632  0.5416  1.1977
 2908TIP3    H230216   2.371   6.732  15.434  0.8262 -0.6670 -0.7846
 2909TIP3   OH230217   4.179   4.848  13.205 -0.6373 -0.0850  0.3387
 2909TIP3    H130218   4.264   4.882  13.176 -0.5807  1.2499  2.0345
 2909TIP3    H230219   4.171   4.763  13.160  0.4841  0.8625 -1.7428
 2910TIP3   OH230220   3.059   3.513   0.846 -0.5690  0.1421  0.0341
 2910TIP3    H130221   2.966   3.532   0.851  0.0687  3.3683  1.1675
 2910TIP3    H230222   3.081   3.523   0.753 -1.4754 -1.4231 -0.3589
 2911TIP3   OH230223   4.808   1.472   5.489 -0.0462 -0.0293  0.5054
 2911TIP3    H130224   4.762   1.449   5.408 -0.4408  0.1366  0.6808
 2911TIP3    H230225   4.817   1.388   5.535 -0.5014 -0.0092  0.6389
 2912TIP3   OH230226   2.107   4.903   0.040 -0.1547 -0.1398 -0.4487
 2912TIP3    H130227   2.163   4.945   0.104 -0.1494 -0.0974 -0.4811
 2912TIP3    H230228   2.054   4.840   0.090 -0.6689  0.4136 -0.2942
 2913TIP3   OH230229   0.608   6.765  14.776 -0.1690 -0.2284  0.2238
 2913TIP3    H130230   0.673   6.766  14.846  0.0532  0.8732  0.0052
 2913TIP3    H230231   0.634   6.691  14.721  1.5858  0.8799 -0.4952
 2914TIP3   OH230232   6.487   4.545  12.008 -0.0148 -0.2963 -0.5884
 2914TIP3    H130233   6.507   4.544  11.915 -0.7263  0.6136 -0.7593
 2914TIP3    H230234   6.565   4.582  12.050  0.2857 -0.6638 -0.8215
 2915TIP3   OH230235   4.301   0.030   3.334 -0.2991 -0.0769 -0.0118
 2915TIP3    H130236   4.230   0.092   3.348  0.4126  1.5128 -2.8835
 2915TIP3    H230237   4.260  -0.056   3.340 -2.0355  0.7614  0.4396
 2916TIP3   OH230238   1.801   4.717  14.240  0.6930 -0.0276  0.0521
 2916TIP3    H130239   1.827   4.630  14.209 -0.7127  0.1339 -1.5942
 2916TIP3    H230240   1.747   4.700  14.317  0.3148 -0.6031 -0.3430
 2917TIP3   OH230241   0.533   1.048  14.617 -0.2040  0.8056  0.2177
 2917TIP3    H130242   0.459   1.071  14.674  0.1846 -1.0096  1.4917
 2917TIP3    H230243   0.595   1.004  14.675  0.3990 -0.6808 -1.5109
 2918TIP3   OH230244   5.396   2.340  14.182 -0.7228 -0.2179  0.3165
 2918TIP3    H130245   5.490   2.349  14.171 -0.8839 -0.5837 -1.6065
 2918TIP3    H230246   5.368   2.419  14.227  0.2186  0.8812 -1.0054
 2919TIP3   OH230247   6.388   1.242  13.216  0.2287 -0.0518  0.4303
 2919TIP3    H130248   6.360   1.183  13.146 -3.6283 -1.5586  3.0594
 2919TIP3    H230249   6.361   1.329  13.186 -0.5379 -0.5472 -0.3357
 2920TIP3   OH230250   1.695   1.112  16.420 -0.1453  0.4571  0.2896
 2920TIP3    H130251   1.728   1.135  16.507 -0.9533  0.8547  0.4905
 2920TIP3    H230252   1.765   1.140  16.360  1.6518 -2.3547  0.9859
 2921TIP3   OH230253   4.102   6.736  17.010 -0.6757 -0.3221  0.1328
 2921TIP3    H130254   4.075   6.822  17.041  0.7369  0.0510  0.3424
 2921TIP3    H230255   4.056   6.674  17.067 -0.6811  0.3117  0.8159
 2922TIP3   OH230256   3.855   2.974  11.679 -0.3686 -0.3558  0.1157
 2922TIP3    H130257   3.883   2.962  11.589  1.0284 -0.9070  0.6126
 2922TIP3    H230258   3.863   2.887  11.719 -0.9862 -0.1226  0.7611
 2923TIP3   OH230259   0.733   0.723  13.719 -0.7233  0.5203  0.3835
 2923TIP3    H130260   0.661   0.782  13.700 -1.0121 -0.4286 -1.5726
 2923TIP3    H230261   0.808   0.761  13.673 -0.6487 -0.0309  0.0495
 2924TIP3   OH230262   0.867   5.735   1.655 -0.2423  0.1664  0.1674
 2924TIP3    H130263   0.862   5.718   1.561  0.2912 -1.8924  0.4852
 2924TIP3    H230264   0.958   5.717   1.679 -0.0502  1.9547  0.8602
 2925TIP3   OH230265   2.281   1.517   1.587 -0.4499 -0.0136  0.4763
 2925TIP3    H130266   2.280   1.594   1.531 -0.5953 -1.4679 -1.5768
 2925TIP3    H230267   2.374   1.497   1.599 -0.3531  1.5465  2.5652
 2926TIP3   OH230268   0.948   0.560   2.427  0.2112 -0.0948 -0.4706
 2926TIP3    H130269   0.903   0.643   2.412  1.0324  0.4015 -0.1578
 2926TIP3    H230270   0.906   0.525   2.506  0.5909  0.5182  0.0036
 2927TIP3   OH230271   6.445   1.554  16.660  0.0447 -0.0832  0.0470
 2927TIP3    H130272   6.456   1.600  16.743 -1.0335 -1.2666  0.8635
 2927TIP3    H230273   6.360   1.512  16.666  0.1286 -0.5290 -1.4994
 2928TIP3   OH230274   1.869   1.047  12.914  0.1603  0.2506 -0.2841
 2928TIP3    H130275   1.892   1.075  12.826 -1.0764  1.0467 -0.3766
 2928TIP3    H230276   1.775   1.067  12.921  0.0637 -0.5911  0.9087
 2929TIP3   OH230277   1.716   2.103  13.604  0.6657  0.1186 -0.5021
 2929TIP3    H130278   1.626   2.095  13.636  0.3857 -0.6200 -1.4390
 2929TIP3    H230279   1.706   2.121  13.511  1.4651  2.2929 -0.1898
 2930TIP3   OH230280   6.243   2.480   0.076 -0.3713  0.3984  0.0357
 2930TIP3    H130281   6.314   2.418   0.059 -0.3990  0.1402  0.8368
 2930TIP3    H230282   6.185   2.471   0.000  0.6883  0.9496 -0.8405
 2931TIP3   OH230283   4.217   0.004  12.331  0.4653  0.6151  0.6633
 2931TIP3    H130284   4.231  -0.091  12.326  0.9646  0.6205  1.6187
 2931TIP3    H230285   4.200   0.020  12.424 -0.3112  1.3750  0.3926
 2932TIP3   OH230286   3.489   2.751   4.006  0.0855  0.4327  0.2309
 2932TIP3    H130287   3.499   2.713   3.919 -2.3529 -0.1710  0.1869
 2932TIP3    H230288   3.524   2.684   4.065 -1.5460 -0.7090 -0.0584
 2933TIP3   OH230289   6.452   3.123   2.316  0.7062 -0.2449 -0.1567
 2933TIP3    H130290   6.401   3.125   2.397 -0.9137 -1.1800 -1.1232
 2933TIP3    H230291   6.411   3.190   2.261  2.4532  1.1183  0.1477
 2934TIP3   OH230292   1.769   4.522   5.109  0.1956  0.0310 -0.3938
 2934TIP3    H130293   1.846   4.550   5.059  0.6600 -1.8956 -0.8105
 2934TIP3    H230294   1.800   4.447   5.160 -0.6701  1.0143  1.6320
 2935TIP3   OH230295   4.247   3.733  14.627 -1.2159 -0.3389  0.2257
 2935TIP3    H130296   4.159   3.765  14.607 -0.5547  1.5313  0.2368
 2935TIP3    H230297   4.264   3.667  14.560 -1.0938  2.1644 -2.3113
 2936TIP3   OH230298   4.160   0.399  10.942  0.0233  0.3079  0.1999
 2936TIP3    H130299   4.201   0.432  10.862 -0.8067 -0.7177 -0.6628
 2936TIP3    H230300   4.121   0.477  10.983  0.2787  0.8042 -0.4895
 2937TIP3   OH230301   5.443   1.013  11.529  0.1548 -0.4692  0.0636
 2937TIP3    H130302   5.453   0.922  11.500  0.2682 -0.6462  0.6651
 2937TIP3    H230303   5.371   1.010  11.592  0.4669 -0.2121  0.4313
 2938TIP3   OH230304   3.740   0.246   3.224  0.5073 -0.9732 -0.0134
 2938TIP3    H130305   3.673   0.314   3.225 -0.2554 -1.7185  2.9935
 2938TIP3    H230306   3.707   0.181   3.162 -0.0300  0.1235 -0.8992
 2939TIP3   OH230307   1.831   5.362   1.558  0.1196  0.2649 -0.3015
 2939TIP3    H130308   1.870   5.449   1.557  1.2444 -0.2333 -0.6915
 2939TIP3    H230309   1.785   5.356   1.474 -0.0824  0.5345 -0.2114
 2940TIP3   OH230310   3.285   6.323  15.560 -0.4346 -0.3126  0.4417
 2940TIP3    H130311   3.244   6.402  15.527 -1.4280 -0.5068  1.1707
 2940TIP3    H230312   3.317   6.347  15.647 -1.2882 -0.8760  0.9174
 2941TIP3   OH230313   1.290   2.088   3.678 -0.3321  0.3995  0.4973
 2941TIP3    H130314   1.270   2.120   3.590  0.9056  0.3365  0.1914
 2941TIP3    H230315   1.348   2.013   3.664  0.0598  0.5360  1.3785
 2942TIP3   OH230316   3.751   5.641  13.653  0.3548 -0.1750  0.0256
 2942TIP3    H130317   3.677   5.581  13.648  1.0663 -1.1652  1.2037
 2942TIP3    H230318   3.782   5.634  13.743  0.8660  1.4655 -0.0056
 2943TIP3   OH230319   3.626   1.388  12.021 -0.3923 -0.8878  0.4865
 2943TIP3    H130320   3.671   1.459  11.976  0.3031 -0.7448  1.4043
 2943TIP3    H230321   3.628   1.315  11.959 -1.5725  0.0306 -0.6740
 2944TIP3   OH230322   4.612   5.177  17.037 -0.2034 -0.6628 -0.0117
 2944TIP3    H130323   4.523   5.153  17.012  0.0517  0.3283 -1.9660
 2944TIP3    H230324   4.654   5.201  16.955  2.0831 -1.7588  0.8175
 2945TIP3   OH230325   5.065   2.441  15.569  0.1281 -0.5067 -0.4175
 2945TIP3    H130326   5.046   2.450  15.663 -1.2959  1.2086 -0.8474
 2945TIP3    H230327   5.067   2.531  15.537  0.5393 -1.0927 -2.0630
 2946TIP3   OH230328   6.247   6.357   4.246  0.8063 -0.1467 -0.1040
 2946TIP3    H130329   6.198   6.385   4.323  0.6372  0.0028 -0.2661
 2946TIP3    H230330   6.180   6.342   4.178  0.9036 -0.7970 -0.0660
 2947TIP3   OH230331   5.393   0.799   3.439  0.4166 -0.3549  0.3964
 2947TIP3    H130332   5.348   0.832   3.361 -0.0287  2.6768  1.8679
 2947TIP3    H230333   5.328   0.804   3.508  1.4266 -1.0126  1.4121
 2948TIP3   OH230334   1.007   5.336   6.502 -0.2188  0.5279  0.1163
 2948TIP3    H130335   0.940   5.287   6.550 -0.7744 -0.6086 -1.7350
 2948TIP3    H230336   1.083   5.278   6.501  0.3612  1.2616  1.0736
 2949TIP3   OH230337   2.613   1.175  13.064  0.3609 -0.1112  0.3203
 2949TIP3    H130338   2.595   1.102  13.123 -0.1855 -2.0626 -2.1853
 2949TIP3    H230339   2.591   1.142  12.977  1.9968  2.4023 -1.1136
 2950TIP3   OH230340   4.649   6.636   6.354  0.4912  0.0549  0.5015
 2950TIP3    H130341   4.607   6.628   6.439  1.3316  0.1449  0.9273
 2950TIP3    H230342   4.589   6.593   6.293 -0.6167  0.9026  0.9700
 2951TIP3   OH230343   3.660   1.248   6.348 -0.5144 -0.4437  0.8727
 2951TIP3    H130344   3.612   1.247   6.265 -0.4397  1.2164  0.7897
 2951TIP3    H230345   3.686   1.340   6.360  1.3237 -1.0421  1.6819
 2952TIP3   OH230346   1.003   2.544  13.870 -0.1492 -0.2517 -0.0148
 2952TIP3    H130347   1.063   2.544  13.945 -0.1350 -0.0591 -0.0264
 2952TIP3    H230348   0.918   2.524  13.908 -0.7290  2.8913  0.5076
 2953TIP3   OH230349   4.541   5.754  13.717 -0.3028 -0.1991  0.4237
 2953TIP3    H130350   4.505   5.820  13.657  2.0896  0.2123 -0.6317
 2953TIP3    H230351   4.587   5.693  13.659  1.0052 -0.4821  1.7568
 2954TIP3   OH230352   1.495   5.789   3.474  0.2417 -0.0103  0.0546
 2954TIP3    H130353   1.417   5.809   3.526  0.7379 -0.8666  1.1447
 2954TIP3    H230354   1.463   5.737   3.401 -0.0112 -1.6816  1.3384
 2955TIP3   OH230355   5.950   1.100  10.500  0.1931  0.0424  0.5134
 2955TIP3    H130356   5.946   1.035  10.430 -1.2048  0.2150  0.4229
 2955TIP3    H230357   6.011   1.166  10.468  1.8638 -1.3388  0.7196
 2956TIP3   OH230358   5.071   3.351   4.648 -0.0056 -0.1849 -0.0983
 2956TIP3    H130359   5.063   3.264   4.611 -0.0697 -0.0296 -0.4464
 2956TIP3    H230360   4.982   3.386   4.649 -0.3630 -1.0899  2.3943
 2957TIP3   OH230361   6.088   3.442  11.318  0.2574  0.4807  0.5252
 2957TIP3    H130362   6.077   3.531  11.286 -2.6986 -0.1626 -0.4980
 2957TIP3    H230363   6.104   3.390  11.240  2.8086  0.1873  1.2045
 2958TIP3   OH230364   1.654   0.700   1.880  0.1749  0.1953 -1.0500
 2958TIP3    H130365   1.606   0.772   1.839  0.5489  0.1111 -1.6373
 2958TIP3    H230366   1.588   0.632   1.892 -0.2732  0.7806 -0.1212
 2959TIP3   OH230367   3.642   2.005   1.721 -0.0510  0.0119  0.4640
 2959TIP3    H130368   3.594   1.940   1.671 -0.5724  0.2523  0.6558
 2959TIP3    H230369   3.713   2.033   1.663  0.4473 -1.0534  0.5444
 2960TIP3   OH230370   3.653   3.444   2.019 -0.2855 -0.8375  0.0691
 2960TIP3    H130371   3.654   3.449   2.114 -1.0522  1.7090 -0.0195
 2960TIP3    H230372   3.626   3.532   1.990 -1.5499 -2.0049 -2.4569
 2961TIP3   OH230373   3.679   3.393  14.039  1.1344 -0.3758 -0.3168
 2961TIP3    H130374   3.649   3.476  14.077 -0.2873 -0.9179 -0.2335
 2961TIP3    H230375   3.606   3.333  14.054  1.8920 -1.4607 -0.9953
 2962TIP3   OH230376   0.707   5.996  12.269  0.5512 -0.2243 -0.1368
 2962TIP3    H130377   0.663   5.920  12.230 -0.6695  1.4580 -2.1781
 2962TIP3    H230378   0.704   5.980  12.363 -0.6359 -2.1825 -0.4768
 2963TIP3   OH230379   5.823   2.491  14.220  0.1107 -0.2082 -0.1144
 2963TIP3    H130380   5.782   2.526  14.299 -2.6430 -0.7689 -1.2197
 2963TIP3    H230381   5.765   2.519  14.149  2.0855 -0.4114 -1.8627
 2964TIP3   OH230382   0.131   0.891   1.091 -0.3125 -0.4204  0.1166
 2964TIP3    H130383   0.041   0.858   1.098 -0.0626 -1.0903  0.2506
 2964TIP3    H230384   0.135   0.931   1.004 -0.8994  0.1088  0.3306
 2965TIP3   OH230385   1.418   4.547   2.244  0.2491 -0.4580  0.7301
 2965TIP3    H130386   1.422   4.637   2.211  0.0032 -0.9655 -0.7424
 2965TIP3    H230387   1.324   4.529   2.255  0.2409 -0.8810  0.0067
 2966TIP3   OH230388   2.046   0.943  13.585 -0.6679  0.1294 -0.3914
 2966TIP3    H130389   2.071   0.915  13.497  0.1862 -0.6974  0.1116
 2966TIP3    H230390   1.980   0.880  13.612  0.8463 -1.1038  0.5180
 2967TIP3   OH230391   2.030   0.926  14.668  0.4679  0.6536 -0.2659
 2967TIP3    H130392   2.118   0.944  14.701  0.6170  2.6943 -1.6681
 2967TIP3    H230393   1.972   0.976  14.725  0.0972 -1.4344  1.2439
 2968TIP3   OH230394   5.306   3.911   4.013  0.4138 -0.3555  0.2790
 2968TIP3    H130395   5.341   3.865   3.936 -0.0865  2.1637 -1.4931
 2968TIP3    H230396   5.234   3.964   3.979  0.8421  1.5972  2.3019
 2969TIP3   OH230397   2.395   6.412   1.012 -0.3082  0.1027 -0.4416
 2969TIP3    H130398   2.445   6.489   0.983 -0.8749 -0.1582 -2.1748
 2969TIP3    H230399   2.312   6.419   0.965 -0.5766 -1.2795 -0.1778
 2970TIP3   OH230400   3.945   1.984   2.265  0.1634 -0.2199 -0.6410
 2970TIP3    H130401   4.016   1.924   2.290  0.1945 -0.2431 -0.7846
 2970TIP3    H230402   3.871   1.927   2.245  0.0337 -0.1841 -0.2687
 2971TIP3   OH230403   0.948   3.850  14.019 -0.0166  0.0678  0.0200
 2971TIP3    H130404   1.023   3.864  13.961 -0.0890  0.7451  0.0872
 2971TIP3    H230405   0.886   3.919  13.996 -0.0513  0.3396  0.8978
 2972TIP3   OH230406   1.572   2.444   6.282  0.4332  0.0549  0.0826
 2972TIP3    H130407   1.565   2.455   6.187  3.7659  1.8727 -0.0331
 2972TIP3    H230408   1.493   2.483   6.317  0.5578  2.0956 -1.8124
 2973TIP3   OH230409   1.003   5.407  14.609 -0.9096  0.7628  0.3467
 2973TIP3    H130410   0.913   5.376  14.620 -0.3585 -0.1485  2.4752
 2973TIP3    H230411   1.043   5.398  14.695  1.4031  0.5966 -0.6820
 2974TIP3   OH230412   3.394   6.754   2.834 -0.8097  0.0601 -1.0309
 2974TIP3    H130413   3.347   6.837   2.845 -0.2013  0.7997 -3.6961
 2974TIP3    H230414   3.436   6.739   2.919 -3.3023  0.9490  0.4304
 2975TIP3   OH230415   0.132   1.565   4.108  0.4824 -0.2545  0.0641
 2975TIP3    H130416   0.187   1.501   4.064  0.7182 -0.8882  1.2790
 2975TIP3    H230417   0.104   1.625   4.038 -0.9163 -2.4897 -1.3332
 2976TIP3   OH230418   6.056   3.719  14.489  0.0071 -0.0459  0.4915
 2976TIP3    H130419   6.051   3.638  14.541 -1.6028 -0.1801  0.1541
 2976TIP3    H230420   6.135   3.709  14.436 -1.2503 -2.3135 -1.0348
 2977TIP3   OH230421   6.310   2.031   4.866  0.3018 -0.5018  0.2905
 2977TIP3    H130422   6.326   2.100   4.800  1.9760 -1.4306 -0.3092
 2977TIP3    H230423   6.282   2.079   4.944 -0.3357  0.7304 -0.6718
 2978TIP3   OH230424   2.208   3.800   0.905 -0.3663  0.6432 -0.5365
 2978TIP3    H130425   2.141   3.770   0.845 -0.6580  1.9986 -0.9086
 2978TIP3    H230426   2.281   3.739   0.892 -0.4169  0.9290 -2.2663
 2979TIP3   OH230427   1.180   2.054  15.896 -0.0023  0.1624  0.7150
 2979TIP3    H130428   1.087   2.065  15.876  0.5437  1.4880 -1.2220
 2979TIP3    H230429   1.181   1.991  15.968 -2.3980  0.1717  0.8170
 2980TIP3   OH230430   1.847   6.814   3.588 -0.0048  0.6505  0.0738
 2980TIP3    H130431   1.818   6.793   3.676 -1.4371  2.0319 -0.0493
 2980TIP3    H230432   1.767   6.841   3.542  0.7958  0.3958 -1.5062
 2981TIP3   OH230433   4.469   6.038   2.437  0.7756  0.5217 -0.2013
 2981TIP3    H130434   4.434   6.127   2.428 -3.6651 -1.0547  0.7351
 2981TIP3    H230435   4.485   6.028   2.530  0.7257  0.1044 -0.2397
 2982TIP3   OH230436   3.102   1.822   5.885 -0.2434 -0.1464  0.0847
 2982TIP3    H130437   3.173   1.759   5.875  0.2830  0.5379 -0.5930
 2982TIP3    H230438   3.127   1.875   5.961  1.0895  1.5008 -1.4509
 2983TIP3   OH230439   3.240   1.432  11.472 -0.4695 -0.3568 -0.3923
 2983TIP3    H130440   3.176   1.414  11.404 -0.0213 -0.0794 -0.8896
 2983TIP3    H230441   3.188   1.450  11.550 -0.9808 -0.6931 -0.6553
 2984TIP3   OH230442   0.335   1.184  10.821 -0.8607 -0.3577  0.2396
 2984TIP3    H130443   0.320   1.097  10.784  0.7614 -1.0212  1.1020
 2984TIP3    H230444   0.408   1.219  10.771 -0.8383  0.0970  0.5906
 2985TIP3   OH230445   0.944   3.262  12.095 -0.2613  0.6189  0.1422
 2985TIP3    H130446   1.018   3.262  12.034  0.8420  0.7799  1.4472
 2985TIP3    H230447   0.885   3.329  12.062 -0.7691 -0.8552 -2.0220
 2986TIP3   OH230448   6.288   2.885  14.795 -0.2137  0.0902  0.1332
 2986TIP3    H130449   6.290   2.815  14.861  0.8365  0.6342  0.6809
 2986TIP3    H230450   6.359   2.864  14.735 -0.5276  0.1533 -0.2661
 2987TIP3   OH230451   6.666   0.612   4.271 -0.3967 -0.8307 -0.1412
 2987TIP3    H130452   6.577   0.643   4.283 -0.6028 -1.4603  0.0064
 2987TIP3    H230453   6.714   0.645   4.347 -0.1997  0.6037 -0.8866
 2988TIP3   OH230454   6.717   1.156   5.345 -0.4862  0.2393  0.3175
 2988TIP3    H130455   6.689   1.187   5.431  2.0713  0.2761  1.1759
 2988TIP3    H230456   6.806   1.125   5.358  0.3889  1.3597 -2.5755
 2989TIP3   OH230457   0.632   1.181   1.617  0.6508 -0.6734 -1.1017
 2989TIP3    H130458   0.665   1.118   1.682  1.3511  0.4455 -0.3616
 2989TIP3    H230459   0.608   1.126   1.542 -2.1458 -2.2051  0.8318
 2990TIP3   OH230460   2.978   0.467  14.482 -0.1870 -0.5224 -0.2097
 2990TIP3    H130461   3.011   0.470  14.392  0.7333 -1.6581  0.0716
 2990TIP3    H230462   2.909   0.400  14.479 -0.2685 -0.4412 -0.1134
 2991TIP3   OH230463   1.932   0.418  14.034 -0.0081  0.7577  0.2635
 2991TIP3    H130464   2.008   0.475  14.030 -0.3009  1.0079 -2.2353
 2991TIP3    H230465   1.859   0.476  14.056 -0.4888  1.6185 -3.2732
 2992TIP3   OH230466   2.224   4.331   5.678 -0.0260 -0.0926  0.0961
 2992TIP3    H130467   2.314   4.343   5.647 -0.0098 -1.6497 -0.5012
 2992TIP3    H230468   2.170   4.375   5.612  0.2220 -0.1683 -0.1573
 2993TIP3   OH230469   4.018   5.339  11.063 -0.5077 -0.2644 -0.8773
 2993TIP3    H130470   3.935   5.301  11.092 -0.6845 -0.1630 -1.2483
 2993TIP3    H230471   3.995   5.428  11.035 -0.6262 -0.8929 -2.8306
 2994TIP3   OH230472   4.005   0.068  13.525 -0.0531  0.1621  0.3930
 2994TIP3    H130473   4.049   0.119  13.457 -2.9881  3.1699  0.5912
 2994TIP3    H230474   3.926   0.035  13.483 -0.5562 -0.1882  1.6072
 2995TIP3   OH230475   1.735   1.953  16.265  0.3710 -0.2275  0.1358
 2995TIP3    H130476   1.673   2.022  16.243 -0.2032 -1.0854 -1.0160
 2995TIP3    H230477   1.685   1.889  16.315  0.3319 -0.8607 -0.6853
 2996TIP3   OH230478   6.392   2.747  17.237 -0.0028 -0.2767  0.1451
 2996TIP3    H130479   6.307   2.781  17.210  0.5172  0.9327  0.0186
 2996TIP3    H230480   6.371   2.665  17.284 -1.3554  0.7921  1.4585
 2997TIP3   OH230481   2.361   1.006   3.792  0.0585  0.7739 -0.2202
 2997TIP3    H130482   2.371   1.032   3.884 -2.1139  3.3297 -0.6539
 2997TIP3    H230483   2.447   1.022   3.753  1.3239 -1.3279  1.5421
 2998TIP3   OH230484   4.104   4.236  13.991  0.4930  0.0074 -0.3884
 2998TIP3    H130485   4.164   4.300  13.952  0.8452 -1.4376 -2.3035
 2998TIP3    H230486   4.142   4.216  14.076  2.5226 -0.5455 -1.3847
 2999TIP3   OH230487   6.007   2.486  13.833  0.3372 -0.1064 -0.5282
 2999TIP3    H130488   5.984   2.412  13.890 -0.3593  0.8469  0.4462
 2999TIP3    H230489   5.985   2.455  13.745  0.4546 -1.2204 -0.1845
 3000TIP3   OH230490   4.813   2.721  10.998 -0.0981  0.0698  0.2650
 3000TIP3    H130491   4.797   2.815  10.992 -1.0011 -0.1472 -0.8325
 3000TIP3    H230492   4.855   2.709  11.083 -0.2613  1.4249  0.5391
 3001TIP3   OH230493   1.985   6.300   2.364  0.3026 -0.3223  0.0591
 3001TIP3    H130494   1.960   6.212   2.390  2.6848 -1.5106 -1.4214
 3001TIP3    H230495   2.053   6.287   2.298 -0.1573  2.6203 -1.0915
 3002TIP3   OH230496   4.884   1.979  16.527  0.2729  0.3258  0.5990
 3002TIP3    H130497   4.878   1.938  16.441 -1.0546 -0.5158  1.0785
 3002TIP3    H230498   4.805   1.951  16.573  1.1865  0.3982  2.2641
 3003TIP3   OH230499   6.193   5.126   5.231  0.6009  0.1943  0.0375
 3003TIP3    H130500   6.178   5.051   5.288 -0.4385 -0.4782 -1.0956
 3003TIP3    H230501   6.160   5.098   5.146  1.6654  1.3727 -0.7681
 3004TIP3   OH230502   1.778   0.025  16.269  0.4337 -0.2520  0.0121
 3004TIP3    H130503   1.698   0.002  16.220  0.0397 -0.4414  0.7361
 3004TIP3    H230504   1.794   0.117  16.246 -0.6017  0.1059  0.6849
 3005TIP3   OH230505   2.772   6.027   3.714 -0.1556  0.6889  0.4439
 3005TIP3    H130506   2.748   5.983   3.795 -0.0923 -0.7768 -0.3293
 3005TIP3    H230507   2.693   6.073   3.687 -0.5280  0.1933  0.6965
 3006TIP3   OH230508   3.990   1.884   5.863 -0.9935  0.5488  0.1728
 3006TIP3    H130509   4.033   1.953   5.915  0.2990 -0.3834  0.3595
 3006TIP3    H230510   4.056   1.815   5.856 -1.0977  0.7132 -2.8415
 3007TIP3   OH230511   0.766   0.775   2.722 -0.1177  0.0579 -0.2836
 3007TIP3    H130512   0.846   0.819   2.752 -0.4659  0.5763 -0.1042
 3007TIP3    H230513   0.763   0.694   2.774  0.9145 -0.5436 -1.1458
 3008TIP3   OH230514   1.639   1.468   0.150 -0.6032  0.0420  0.3386
 3008TIP3    H130515   1.571   1.429   0.205 -1.2255 -0.0823 -0.5176
 3008TIP3    H230516   1.715   1.412   0.164 -0.7907 -0.0532  0.9887
 3009TIP3   OH230517   2.434   1.284   5.949 -0.0308  0.3523  0.4886
 3009TIP3    H130518   2.426   1.218   5.880 -0.1728 -0.0181  0.8583
 3009TIP3    H230519   2.377   1.253   6.019  0.1618  0.6945  0.8002
 3010TIP3   OH230520   4.013   2.448   2.413 -0.2795 -0.2329 -0.4873
 3010TIP3    H130521   4.021   2.533   2.371 -0.0717 -0.2746 -0.5290
 3010TIP3    H230522   4.000   2.468   2.506  2.4524 -0.2137 -0.0795
 3011TIP3   OH230523   0.872   4.551  14.692 -0.4159 -0.4098  0.6666
 3011TIP3    H130524   0.856   4.640  14.660 -0.5449 -0.7179 -0.1582
 3011TIP3    H230525   0.857   4.556  14.786  1.5472  0.9021  0.9399
 3012TIP3   OH230526   5.802   1.852   4.640  0.7122 -0.5100 -0.2454
 3012TIP3    H130527   5.803   1.937   4.684 -1.4148  0.3688 -1.8104
 3012TIP3    H230528   5.887   1.813   4.661  1.5304  1.7953  0.8737
 3013TIP3   OH230529   3.579   0.693   4.820  0.0090 -0.0151 -0.0074
 3013TIP3    H130530   3.631   0.617   4.846 -1.6158 -1.1947 -0.1427
 3013TIP3    H230531   3.523   0.661   4.749 -1.4794  1.0219  0.6758
 3014TIP3   OH230532   3.496   4.573   5.319  0.0380  0.4020 -0.1236
 3014TIP3    H130533   3.568   4.540   5.265 -1.6737 -2.4233 -0.7717
 3014TIP3    H230534   3.526   4.562   5.409 -0.1171 -2.1192 -0.3616
 3015TIP3   OH230535   3.921   3.999   4.990 -0.2574  0.2352 -0.2076
 3015TIP3    H130536   3.842   4.003   5.045 -1.2064 -0.1763 -1.5143
 3015TIP3    H230537   3.899   3.935   4.922  1.5184 -0.5020 -0.1214
 3016TIP3   OH230538   5.344   0.400   2.757  0.5897 -0.5245  0.3201
 3016TIP3    H130539   5.330   0.494   2.769 -0.2117 -0.5253 -0.6330
 3016TIP3    H230540   5.322   0.361   2.842 -0.1701  0.0206  0.3696
 3017TIP3   OH230541   3.707   0.949  14.390 -0.3211 -0.0700  0.0061
 3017TIP3    H130542   3.774   0.898  14.435  0.4519 -0.4159 -1.5112
 3017TIP3    H230543   3.753   0.992  14.319 -1.1821  1.8672  0.5737
 3018TIP3   OH230544   4.812   3.796  13.122 -0.2957 -0.5877 -0.5086
 3018TIP3    H130545   4.855   3.733  13.064 -1.5822 -1.7149 -0.2589
 3018TIP3    H230546   4.820   3.757  13.209 -2.8151 -1.3693 -0.6045
 3019TIP3   OH230547   5.578   6.401   3.810 -0.2627  0.2662 -0.5696
 3019TIP3    H130548   5.500   6.402   3.754 -0.6005  0.8018 -0.0864
 3019TIP3    H230549   5.644   6.447   3.758  0.0650 -1.1479 -1.4474
 3020TIP3   OH230550   5.683   5.607  14.753 -0.3924  0.2857 -0.0438
 3020TIP3    H130551   5.596   5.643  14.773  0.0495  0.5102  1.5011
 3020TIP3    H230552   5.719   5.668  14.688 -1.0946  0.6086 -0.1384
 3021TIP3   OH230553   1.363   5.916   4.257  0.2277 -0.3776  0.0087
 3021TIP3    H130554   1.437   5.902   4.199  1.3444  1.2795  1.0053
 3021TIP3    H230555   1.360   5.837   4.312  0.6109 -0.8876 -0.6901
 3022TIP3   OH230556   3.376   1.778   4.574  0.3839  0.0679  0.2061
 3022TIP3    H130557   3.431   1.734   4.640 -0.1310  0.5360  0.9610
 3022TIP3    H230558   3.422   1.859   4.555  1.2070 -0.6664 -1.0027
 3023TIP3   OH230559   6.512   4.524  13.191 -0.0538  0.4275  0.3882
 3023TIP3    H130560   6.557   4.500  13.272  0.2988  0.0735  0.0892
 3023TIP3    H230561   6.426   4.483  13.199  0.1175  0.0668  0.4123
 3024TIP3   OH230562   1.706   0.435   0.089 -0.2822 -0.1297  0.6168
 3024TIP3    H130563   1.728   0.342   0.088 -0.4066 -0.1522 -0.1021
 3024TIP3    H230564   1.625   0.440   0.141  0.5076 -0.2452  1.8647
 3025TIP3   OH230565   3.071   6.024  14.064 -1.0621 -0.2368  0.0147
 3025TIP3    H130566   3.088   6.001  14.156  0.5884  2.1678  0.3606
 3025TIP3    H230567   3.131   5.969  14.014  0.4092  0.7725  0.6199
 3026TIP3   OH230568   2.906   2.010   2.003 -0.1897  0.1919 -0.0841
 3026TIP3    H130569   2.950   2.057   2.074  0.0077 -0.4059  0.1917
 3026TIP3    H230570   2.973   1.953   1.967 -1.0088 -1.4807  1.0049
 3027TIP3   OH230571   0.301   6.300  14.261 -0.3000 -0.1806 -0.0705
 3027TIP3    H130572   0.345   6.227  14.217  0.3138  0.8631 -1.2338
 3027TIP3    H230573   0.211   6.294  14.230  0.2147  0.7848 -1.8402
 3028TIP3   OH230574   5.904   2.156  13.663  0.4403 -0.6663  0.1692
 3028TIP3    H130575   5.956   2.142  13.584 -0.7012  1.0515 -0.9155
 3028TIP3    H230576   5.966   2.144  13.735  1.8409 -0.7610 -1.0300
 3029TIP3   OH230577   3.318   6.707  11.287 -0.2270 -0.1738  0.0630
 3029TIP3    H130578   3.351   6.796  11.300  0.6108 -0.3997 -0.4963
 3029TIP3    H230579   3.259   6.715  11.211 -1.8944  0.3265  1.3688
 3030TIP3   OH230580   2.718   2.323   0.994  0.1011 -0.3589  0.1226
 3030TIP3    H130581   2.707   2.233   1.025 -1.3323  0.5307  2.3342
 3030TIP3    H230582   2.748   2.371   1.071  1.5328  0.9534 -1.2046
 3031TIP3   OH230583   1.745   1.162  13.310  0.2598  0.0833 -0.2285
 3031TIP3    H130584   1.788   1.207  13.383 -0.7844  0.2923  0.2738
 3031TIP3    H230585   1.733   1.072  13.341 -0.7756  0.3339  0.1284
 3032TIP3   OH230586   1.933   2.543  11.695  0.5561 -0.3425  0.0877
 3032TIP3    H130587   2.008   2.602  11.697  1.4577 -1.5043  1.2164
 3032TIP3    H230588   1.962   2.470  11.640  0.9089 -1.6132  1.9043
 3033TIP3   OH230589   6.750   1.960  14.308  0.0012  0.2422 -0.5600
 3033TIP3    H130590   6.700   1.898  14.257  1.3329 -1.2102 -0.1380
 3033TIP3    H230591   6.695   2.038  14.312 -2.1850 -1.2845 -0.1442
 3034TIP3   OH230592   2.906   4.219  13.026  0.8208 -0.0477  0.0877
 3034TIP3    H130593   2.972   4.159  13.059  0.1905 -0.5559  0.4279
 3034TIP3    H230594   2.899   4.198  12.932  1.3533  0.2052 -0.0058
 3035TIP3   OH230595   1.096   4.958  11.540 -0.3709  0.2861  0.2967
 3035TIP3    H130596   1.057   4.871  11.546  0.5009 -0.0819  0.7001
 3035TIP3    H230597   1.103   4.988  11.631  0.9572  0.0374  0.2909
 3036TIP3   OH230598   5.279   5.775   5.228 -0.0853 -0.1541 -0.2567
 3036TIP3    H130599   5.290   5.787   5.322  1.3768  1.0282 -0.5460
 3036TIP3    H230600   5.358   5.728   5.200 -0.6048 -0.6778 -0.8664
 3037TIP3   OH230601   0.737   6.630   4.344  0.0978  0.5681 -0.6829
 3037TIP3    H130602   0.717   6.548   4.388 -0.8444  1.2843  0.2489
 3037TIP3    H230603   0.721   6.613   4.251  1.4652 -0.7640 -0.6855
 3038TIP3   OH230604   5.273   6.649   0.583  0.5025  0.1319 -0.0134
 3038TIP3    H130605   5.364   6.672   0.562  0.4905 -0.7245 -1.0241
 3038TIP3    H230606   5.221   6.719   0.544  0.6728  0.1226 -0.2574
 3039TIP3   OH230607   3.002   1.223  14.746 -0.6124 -0.3468  0.2490
 3039TIP3    H130608   3.018   1.175  14.827 -1.9879  0.8637  1.2792
 3039TIP3    H230609   2.946   1.166  14.694 -0.5825 -0.6912  0.5936
 3040TIP3   OH230610   2.204   6.412  14.569 -0.2300 -0.4510  0.4304
 3040TIP3    H130611   2.277   6.366  14.528  0.3496  0.0867  0.8652
 3040TIP3    H230612   2.232   6.503  14.574 -1.3626 -0.0553 -0.3714
 3041TIP3   OH230613   6.715   1.283   6.331  0.3012  0.3521 -0.0811
 3041TIP3    H130614   6.639   1.297   6.274 -0.4777  0.5771  0.9847
 3041TIP3    H230615   6.677   1.250   6.413  1.4971 -1.0689 -0.0774
 3042TIP3   OH230616   4.848   0.340  14.916  0.4889  0.1442 -0.3852
 3042TIP3    H130617   4.815   0.299  14.836 -0.3570  0.6010 -0.2643
 3042TIP3    H230618   4.861   0.432  14.892  0.0126  0.3292  0.0707
 3043TIP3   OH230619   4.593   3.183   6.473 -0.2812 -0.0108 -0.2086
 3043TIP3    H130620   4.653   3.168   6.546  1.3353  0.4282 -1.4193
 3043TIP3    H230621   4.650   3.196   6.397 -1.8628  1.9213 -1.1181
 3044TIP3   OH230622   6.214   3.020  16.785 -0.0095  0.4154  0.4134
 3044TIP3    H130623   6.299   3.065  16.787  0.0556  0.3774 -1.2261
 3044TIP3    H230624   6.150   3.090  16.766 -0.2921  0.3614  1.1541
 3045TIP3   OH230625   4.186   0.815   5.504 -0.1604 -0.1374 -0.2162
 3045TIP3    H130626   4.170   0.761   5.581 -0.5322  1.3861  0.8017
 3045TIP3    H230627   4.264   0.778   5.463 -0.7919 -1.8351  0.0775
 3046TIP3   OH230628   0.765   3.150   2.322 -0.1551  0.2412  0.3596
 3046TIP3    H130629   0.781   3.207   2.247 -2.5056  0.4904  0.0225
 3046TIP3    H230630   0.819   3.187   2.392  0.2507  1.4065 -0.5550
 3047TIP3   OH230631   4.682   4.771  15.413 -0.4635  0.4131 -0.0527
 3047TIP3    H130632   4.760   4.746  15.463 -0.8549 -0.0527  0.3288
 3047TIP3    H230633   4.640   4.839  15.466 -1.4403 -0.8215  0.7642
 3048TIP3   OH230634   3.576   0.955  14.121 -0.6173  0.0960  0.4933
 3048TIP3    H130635   3.593   0.906  14.201  1.9195  1.3396  0.7372
 3048TIP3    H230636   3.502   1.012  14.142  0.4345  0.8574  2.1481
 3049TIP3   OH230637   2.276   5.767  11.918  0.7293  0.2098 -0.7399
 3049TIP3    H130638   2.334   5.694  11.941 -0.1169  0.1313  1.2935
 3049TIP3    H230639   2.202   5.726  11.874  1.2856  0.1002 -1.5915
 3050TIP3   OH230640   0.071   5.099   1.626 -0.3650 -0.8148 -0.7997
 3050TIP3    H130641   0.139   5.136   1.681  0.6050  1.2360 -3.2649
 3050TIP3    H230642   0.115   5.027   1.580 -1.0166 -2.1519  0.6282
 3051TIP3   OH230643   2.402   4.601  13.792 -0.0536 -0.0523 -0.3034
 3051TIP3    H130644   2.454   4.680  13.806  0.1960 -0.4309  0.9202
 3051TIP3    H230645   2.466   4.530  13.784 -0.3567 -0.6400  1.9607
 3052TIP3   OH230646   5.402   4.192   1.730 -0.3533  0.3854  0.4792
 3052TIP3    H130647   5.381   4.106   1.694  0.9965 -0.0370  0.6827
 3052TIP3    H230648   5.436   4.241   1.655 -0.1613  0.4099  0.5826
 3053TIP3   OH230649   3.400   3.127   4.501 -0.2217  0.9273  0.0394
 3053TIP3    H130650   3.440   3.040   4.497 -2.6678 -0.2574  0.2093
 3053TIP3    H230651   3.465   3.182   4.547  2.1247 -0.3226 -1.6877
 3054TIP3   OH230652   4.309   1.638  16.741  0.6033  0.7696  0.0566
 3054TIP3    H130653   4.307   1.720  16.693  1.3347  0.1314 -1.0783
 3054TIP3    H230654   4.299   1.570  16.674  0.9881 -0.0982  0.8615
 3055TIP3   OH230655   5.640   6.760   3.754 -0.3148 -0.7231  0.2814
 3055TIP3    H130656   5.579   6.739   3.824 -1.4156 -0.2636 -0.5188
 3055TIP3    H230657   5.721   6.785   3.799 -1.7036  1.8753  1.5024
 3056TIP3   OH230658   2.917   2.469   2.258 -1.2459 -0.1390  0.1836
 3056TIP3    H130659   2.923   2.561   2.235 -0.1805 -0.4396 -0.7788
 3056TIP3    H230660   2.914   2.468   2.354  1.9508  0.7396  0.3396
 3057TIP3   OH230661   4.406   5.960  13.063  0.1448 -0.0299  0.0738
 3057TIP3    H130662   4.376   5.923  12.980 -0.6099 -0.5954  0.5902
 3057TIP3    H230663   4.499   5.939  13.066  0.2240  0.1867 -0.7258
 3058TIP3   OH230664   1.101   6.088   3.606 -0.2986  0.6689 -0.2422
 3058TIP3    H130665   1.177   6.043   3.645  0.1198  0.9095 -0.7787
 3058TIP3    H230666   1.089   6.165   3.662 -0.1620  0.6191 -0.1413
 3059TIP3   OH230667   3.911   4.908  12.559  0.7887  0.4019  0.3399
 3059TIP3    H130668   3.869   4.970  12.618  0.6641  1.8440 -1.2494
 3059TIP3    H230669   3.845   4.887  12.494  0.7740 -1.5504  0.9346
 3060TIP3   OH230670   0.084   1.858  15.325  0.1930 -0.0203  0.1533
 3060TIP3    H130671   0.108   1.950  15.327 -1.3228  0.4090 -0.8852
 3060TIP3    H230672   0.056   1.838  15.415 -0.1016  0.7131  0.2267
 3061TIP3   OH230673   3.926   1.287  10.831 -0.2137  0.0456  0.1188
 3061TIP3    H130674   3.980   1.310  10.756 -0.3533  4.7177  1.2811
 3061TIP3    H230675   3.836   1.295  10.799 -0.2654 -0.4762  0.1270
 3062TIP3   OH230676   3.947   1.700  12.877 -0.0831  0.3543  0.0746
 3062TIP3    H130677   3.853   1.712  12.889 -0.1634  0.9439 -1.1024
 3062TIP3    H230678   3.987   1.752  12.947 -0.6425 -0.8506  1.3128
 3063TIP3   OH230679   0.773   6.514  15.091 -0.0830 -0.1543  0.5938
 3063TIP3    H130680   0.739   6.443  15.145 -0.4863 -0.7788 -0.4516
 3063TIP3    H230681   0.839   6.472  15.036  0.5932  0.5452  0.8762
 3064TIP3   OH230682   2.806   4.524   6.105 -0.0022 -0.5425 -0.1107
 3064TIP3    H130683   2.737   4.528   6.171 -0.1887  0.6571 -0.3610
 3064TIP3    H230684   2.886   4.549   6.153 -0.4758  2.3906 -0.7605
 3065TIP3   OH230685   2.004   6.090   4.258 -0.0429 -0.2006  0.2306
 3065TIP3    H130686   1.913   6.120   4.264 -0.0129 -0.5032  2.3722
 3065TIP3    H230687   2.026   6.060   4.346  1.4877 -2.0467 -0.7306
 3066TIP3   OH230688   1.846   4.381  16.945 -0.2209 -0.2291 -0.0618
 3066TIP3    H130689   1.778   4.421  16.998 -1.4712 -1.1657 -0.9264
 3066TIP3    H230690   1.884   4.454  16.896 -1.3275  0.1637 -0.3574
 3067TIP3   OH230691   5.777   0.668  13.192  0.7544  0.6099 -0.6341
 3067TIP3    H130692   5.702   0.704  13.144  0.3326  0.1484 -0.3292
 3067TIP3    H230693   5.778   0.718  13.274 -0.8374 -1.1442  0.5140
 3068TIP3   OH230694   0.258   4.288  16.843 -0.5582 -0.4786 -0.0754
 3068TIP3    H130695   0.216   4.307  16.759  0.0454 -0.3732 -0.3539
 3068TIP3    H230696   0.301   4.370  16.868 -1.3870 -0.2691  0.7250
 3069TIP3   OH230697   4.471   2.653  15.589 -0.1051 -0.1460 -0.2589
 3069TIP3    H130698   4.501   2.651  15.680  0.4441  0.7749 -0.4131
 3069TIP3    H230699   4.465   2.561  15.563 -1.1793 -0.4433  1.0058
 3070TIP3   OH230700   1.816   3.996  15.534  0.9310 -0.3483 -0.1636
 3070TIP3    H130701   1.895   4.041  15.563  1.9174 -2.9408  1.3657
 3070TIP3    H230702   1.834   3.972  15.443 -0.4690  4.0740 -1.7234
 3071TIP3   OH230703   3.282   3.282  15.319 -0.1932 -0.0322 -0.2707
 3071TIP3    H130704   3.221   3.355  15.315  0.5572  0.5733 -0.7584
 3071TIP3    H230705   3.313   3.281  15.410  0.6969  1.0059 -0.5542
 3072TIP3   OH230706   0.326   4.372  14.309 -0.1538 -0.0384 -0.0124
 3072TIP3    H130707   0.260   4.398  14.373 -0.8420 -0.4983 -0.5250
 3072TIP3    H230708   0.284   4.302  14.258  1.1080 -1.0838  0.3431
 3073TIP3   OH230709   5.541   4.329   1.500  0.0805 -0.0270 -0.2104
 3073TIP3    H130710   5.565   4.415   1.534  1.1645 -0.1821 -0.5730
 3073TIP3    H230711   5.611   4.306   1.440 -1.0433 -0.4484 -1.3839
 3074TIP3   OH230712   5.857   2.249  16.232  0.3440  0.1850  0.3055
 3074TIP3    H130713   5.888   2.314  16.295 -1.0833  0.6603  0.5205
 3074TIP3    H230714   5.762   2.249  16.241  0.1815 -0.3943 -1.2105
 3075TIP3   OH230715   5.569   4.146  11.786 -0.5113 -0.5017  0.3842
 3075TIP3    H130716   5.548   4.076  11.848  0.0241 -0.5584  0.5058
 3075TIP3    H230717   5.484   4.185  11.763 -0.7569 -0.8237  0.7458
 3076TIP3   OH230718   1.229   3.858   4.562 -0.4379  0.4387  0.5756
 3076TIP3    H130719   1.273   3.788   4.609  0.6065  0.0306 -0.9901
 3076TIP3    H230720   1.136   3.844   4.578 -0.4187 -2.8446 -1.8226
 3077TIP3   OH230721   6.121   2.699   4.304 -0.1411 -0.5746 -0.8777
 3077TIP3    H130722   6.045   2.751   4.279 -0.4950 -0.4698  0.3833
 3077TIP3    H230723   6.195   2.760   4.299 -0.7851  0.5487  2.2272
 3078TIP3   OH230724   5.130   1.045   1.584  0.2665 -0.3204 -0.1965
 3078TIP3    H130725   5.065   1.046   1.655 -1.3002 -0.8792 -1.5981
 3078TIP3    H230726   5.183   0.968   1.601  1.6855  1.0673  1.9220
 3079TIP3   OH230727   6.521   4.517  17.033  0.6750 -0.1242 -0.1880
 3079TIP3    H130728   6.477   4.587  17.082 -0.8211 -0.0105 -1.6502
 3079TIP3    H230729   6.499   4.437  17.081  1.9502  0.3339  1.1849
 3080TIP3   OH230730   3.228   6.622   0.328 -0.5135 -0.0447 -0.6544
 3080TIP3    H130731   3.268   6.708   0.313 -1.3214  0.4555  0.0355
 3080TIP3    H230732   3.213   6.586   0.240  0.4882  0.2062 -0.9321
 3081TIP3   OH230733   1.703   1.813  14.766  0.4518  0.1732  0.0860
 3081TIP3    H130734   1.739   1.775  14.686  1.1177 -0.2542  0.5846
 3081TIP3    H230735   1.780   1.846  14.813 -0.0378  1.4146  0.0403
 3082TIP3   OH230736   3.859   0.980   4.452 -0.0035 -0.2702  0.2379
 3082TIP3    H130737   3.936   0.948   4.499  0.3412  1.5816  1.0131
 3082TIP3    H230738   3.786   0.929   4.488  0.3794  0.4951  2.2002
 3083TIP3   OH230739   4.858   6.239  16.780  0.1405  0.0115  0.1755
 3083TIP3    H130740   4.911   6.312  16.747  0.6504 -0.1408  0.6461
 3083TIP3    H230741   4.849   6.181  16.704 -0.9281  0.9283 -0.4223
 3084TIP3   OH230742   4.589   0.905   2.844 -0.0717 -0.0973  0.4334
 3084TIP3    H130743   4.668   0.950   2.814 -0.3395  1.8878  2.5852
 3084TIP3    H230744   4.520   0.934   2.784 -0.1526  2.0445  1.5332
 3085TIP3   OH230745   5.522   6.387   1.473 -0.0329 -0.2282 -0.0532
 3085TIP3    H130746   5.437   6.390   1.430  0.8692 -0.3523 -1.8817
 3085TIP3    H230747   5.506   6.343   1.556 -1.4079 -1.9707 -1.2193
 3086TIP3   OH230748   4.622   6.616  16.239  0.3035 -0.3114  0.5204
 3086TIP3    H130749   4.695   6.666  16.201  0.5346  0.3440  1.7924
 3086TIP3    H230750   4.650   6.525  16.235  1.1725 -0.0622  0.9843
 3087TIP3   OH230751   2.600   6.276   0.258  1.0527 -0.1409 -0.0795
 3087TIP3    H130752   2.557   6.283   0.173  2.8867  0.7416 -0.9637
 3087TIP3    H230753   2.544   6.327   0.317  0.4644  0.3188 -1.0261
 3088TIP3   OH230754   5.437   5.999  16.384 -0.3664  0.2035  0.2466
 3088TIP3    H130755   5.504   5.960  16.440  0.8172 -1.6148 -2.3331
 3088TIP3    H230756   5.368   5.933  16.380 -0.5767  0.4496 -0.2094
 3089TIP3   OH230757   5.661   1.923   3.350 -0.1407  0.1008 -0.2300
 3089TIP3    H130758   5.694   1.999   3.302 -0.4821  0.3774 -0.0321
 3089TIP3    H230759   5.721   1.852   3.327  1.0019  0.7542  0.6881
 3090TIP3   OH230760   0.247   6.623   2.853 -0.4794  0.5800  0.6601
 3090TIP3    H130761   0.202   6.648   2.772  1.0274  0.2948 -0.2899
 3090TIP3    H230762   0.195   6.663   2.923 -1.2703  1.6274 -0.4997
 3091TIP3   OH230763   1.432   3.279   4.716 -0.6742 -0.1241 -0.2119
 3091TIP3    H130764   1.341   3.308   4.717 -0.7166 -0.2732  2.3406
 3091TIP3    H230765   1.436   3.208   4.780  0.9125 -1.1584 -1.4222
 3092TIP3   OH230766   5.948   4.272  14.223  0.1732 -0.2906 -0.0598
 3092TIP3    H130767   5.968   4.277  14.129 -1.6746 -0.2527 -0.4767
 3092TIP3    H230768   5.951   4.179  14.243 -0.6399 -0.4060 -0.4479
 3093TIP3   OH230769   3.334   1.043  16.238  0.0018 -0.0739 -0.6937
 3093TIP3    H130770   3.311   1.023  16.147 -0.1509  2.0537 -1.1388
 3093TIP3    H230771   3.342   1.138  16.240  2.4743 -0.3005  0.9498
 3094TIP3   OH230772   5.612   2.980   2.631  0.5404  0.2158  0.2938
 3094TIP3    H130773   5.627   2.894   2.670 -1.9948  0.2812  1.5525
 3094TIP3    H230774   5.659   3.041   2.688  2.0977 -0.2767 -0.4304
 3095TIP3   OH230775   0.332   2.865  16.053 -0.2225  0.0652  0.4808
 3095TIP3    H130776   0.407   2.925  16.056  0.0347 -0.2025 -0.3842
 3095TIP3    H230777   0.368   2.781  16.079 -0.4767  0.1819  1.2105
 3096TIP3   OH230778   4.114   0.143   3.136 -0.3749 -0.1486  0.1150
 3096TIP3    H130779   4.191   0.200   3.131  0.2321 -0.9968 -0.4482
 3096TIP3    H230780   4.077   0.160   3.222  0.0050  0.8354  0.0915
 3097TIP3   OH230781   1.307   0.272   3.698 -0.4455  0.9323  0.2527
 3097TIP3    H130782   1.291   0.223   3.618 -0.4794 -0.8719  1.3378
 3097TIP3    H230783   1.402   0.285   3.700 -0.4071  0.6785  0.0739
 3098TIP3   OH230784   3.412   6.657  15.990 -0.3347 -0.2578 -0.0297
 3098TIP3    H130785   3.419   6.575  15.941  1.3983  0.0820 -0.4056
 3098TIP3    H230786   3.437   6.634  16.079  3.3214  0.3986 -0.7757
 3099TIP3   OH230787   0.347   0.463  12.589  0.2804 -0.1496 -0.7345
 3099TIP3    H130788   0.348   0.381  12.637 -0.1039 -0.2597 -0.9108
 3099TIP3    H230789   0.307   0.526  12.648  0.3202 -0.1554 -0.7016
 3100TIP3   OH230790   0.031   6.375  13.873  0.7192 -0.3451 -0.1563
 3100TIP3    H130791   0.001   6.365  13.964 -2.0059 -0.3426 -1.0178
 3100TIP3    H230792   0.027   6.469  13.857  0.0888 -0.4492 -0.6277
 3101TIP3   OH230793   0.611   4.381   0.187 -0.2265  0.3668 -0.1854
 3101TIP3    H130794   0.651   4.330   0.117  0.0711  0.4307 -0.0640
 3101TIP3    H230795   0.658   4.464   0.187 -1.2307  0.9509 -0.8904
 3102TIP3   OH230796   1.963   3.861  14.955 -0.4844 -0.7363  0.0763
 3102TIP3    H130797   1.921   3.942  14.928  0.3232 -0.7632 -1.2962
 3102TIP3    H230798   1.914   3.792  14.912 -0.0513 -0.8690 -0.2015
 3103TIP3   OH230799   1.524   1.162  13.176 -0.1033 -0.0183  0.4426
 3103TIP3    H130800   1.599   1.193  13.226 -0.1654  1.2645 -0.2402
 3103TIP3    H230801   1.558   1.152  13.087 -0.9877  1.6080 -0.1027
 3104TIP3   OH230802   5.452   3.753   1.338  0.3823 -0.6724 -0.2749
 3104TIP3    H130803   5.412   3.764   1.251 -3.0136 -0.5299  1.2031
 3104TIP3    H230804   5.486   3.840   1.360  1.7876 -0.8398 -1.6566
 3105TIP3   OH230805   2.922   1.867   0.483 -0.1600  0.2539  0.7113
 3105TIP3    H130806   2.963   1.786   0.452  0.2892  0.0307  1.8716
 3105TIP3    H230807   2.991   1.913   0.530 -0.1872  1.7209 -0.6375
 3106TIP3   OH230808   5.966   2.073  14.332  0.2364 -0.7382  0.2921
 3106TIP3    H130809   5.926   2.035  14.254 -0.8346  2.1065 -0.5607
 3106TIP3    H230810   6.059   2.080  14.310  0.1704 -1.2727 -0.1685
 3107TIP3   OH230811   0.083   1.610   5.253  0.8130  0.4091  0.0065
 3107TIP3    H130812   0.093   1.697   5.214  3.2845 -0.2806 -1.0256
 3107TIP3    H230813  -0.006   1.609   5.286  0.0750  2.6314 -1.7350
 3108TIP3   OH230814   3.709   0.528  15.062 -0.0295 -0.0845  0.0076
 3108TIP3    H130815   3.708   0.494  14.972 -2.0802 -0.2379  0.0579
 3108TIP3    H230816   3.787   0.488  15.102 -0.0615 -1.3941 -1.1907
 3109TIP3   OH230817   1.059   5.057   1.038  0.1860 -0.2763  0.0300
 3109TIP3    H130818   1.113   5.106   0.975  0.1906 -1.7154 -1.1334
 3109TIP3    H230819   0.986   5.024   0.986 -0.8946  0.1971  1.2322
 3110TIP3   OH230820   4.018   6.258  16.638  0.5907 -0.6450  0.3885
 3110TIP3    H130821   4.058   6.294  16.717  0.8949  1.9649 -0.8832
 3110TIP3    H230822   4.012   6.333  16.578 -4.8697 -1.1907 -0.0058
 3111TIP3   OH230823   0.773   6.097   4.101  0.4711  0.3611 -0.4508
 3111TIP3    H130824   0.737   6.025   4.152 -1.2539  2.0176  0.7496
 3111TIP3    H230825   0.815   6.055   4.026 -1.1215 -1.8267 -0.1651
 3112TIP3   OH230826   4.070   5.011  16.388 -0.4128 -0.3293 -0.1241
 3112TIP3    H130827   4.068   4.948  16.315 -1.0763 -0.0717 -0.3244
 3112TIP3    H230828   4.138   4.977  16.446 -0.2777 -0.8527 -0.5811
 3113TIP3   OH230829   1.657   2.359  13.833 -0.0525 -0.2219 -0.2158
 3113TIP3    H130830   1.661   2.357  13.737 -1.4005 -0.2571 -0.2833
 3113TIP3    H230831   1.659   2.266  13.859  0.9041 -0.1966 -0.1688
 3114TIP3   OH230832   0.758   4.349  12.785  0.4537 -0.1003  0.4966
 3114TIP3    H130833   0.739   4.322  12.695 -0.9184 -1.5380  1.1833
 3114TIP3    H230834   0.847   4.383  12.782  0.2769  0.2588 -1.4802
 3115TIP3   OH230835   5.704   0.443  16.418  0.4406  0.2888  0.3807
 3115TIP3    H130836   5.670   0.357  16.443 -1.7503  1.4484  1.5318
 3115TIP3    H230837   5.743   0.429  16.332 -1.8924 -1.3743 -0.4388
 3116TIP3   OH230838   1.041   0.895   4.605  0.1354 -0.4170  0.3621
 3116TIP3    H130839   1.121   0.922   4.649  1.8727 -2.2158 -1.6065
 3116TIP3    H230840   0.978   0.965   4.625  1.7824  0.4099  2.9429
 3117TIP3   OH230841   6.725   2.104  14.825 -0.1737 -0.4379 -0.2152
 3117TIP3    H130842   6.681   2.069  14.903 -0.8278  1.0934  0.1209
 3117TIP3    H230843   6.678   2.186  14.806  0.2869 -0.5558 -1.9323
 3118TIP3   OH230844   5.587   5.172   3.804 -0.0871  0.7201 -0.3675
 3118TIP3    H130845   5.534   5.146   3.879  1.7516  0.6128  0.9283
 3118TIP3    H230846   5.664   5.213   3.842  0.8380  0.7367 -2.2078
 3119TIP3   OH230847   4.856   3.889   2.355  0.2268 -0.7561  0.1851
 3119TIP3    H130848   4.925   3.889   2.289  0.3201 -2.4047  0.2485
 3119TIP3    H230849   4.874   3.964   2.410 -1.1076  2.0153 -2.9559
 3120TIP3   OH230850   3.122   5.394  14.577 -0.7087 -1.0026  0.0840
 3120TIP3    H130851   3.197   5.406  14.636 -0.0469 -0.8813 -0.7825
 3120TIP3    H230852   3.090   5.306  14.598  0.8131 -1.7961 -0.8348
 3121TIP3   OH230853   1.594   6.693   2.908 -0.0797  0.1199 -0.9588
 3121TIP3    H130854   1.561   6.660   2.825 -0.1431 -3.2800  0.3321
 3121TIP3    H230855   1.516   6.708   2.961  0.0532  0.4201 -0.8436
 3122TIP3   OH230856   1.162   0.629  12.163  0.2614  0.0096  0.0844
 3122TIP3    H130857   1.237   0.607  12.218 -0.3575 -0.6421  0.6695
 3122TIP3    H230858   1.183   0.715  12.128  1.8852 -0.7218 -0.7984
 3123TIP3   OH230859   6.275   3.312   6.178 -0.4981 -0.6576 -0.2102
 3123TIP3    H130860   6.211   3.249   6.212  0.0850  0.6275  3.4676
 3123TIP3    H230861   6.359   3.266   6.184 -0.6028 -1.1184 -1.8693
 3124TIP3   OH230862   1.134   4.095  12.213  0.0682 -0.0525 -0.1177
 3124TIP3    H130863   1.129   4.148  12.134 -0.1633 -0.0633 -0.1116
 3124TIP3    H230864   1.112   4.156  12.284 -0.1754 -0.1512 -0.1084
 3125TIP3   OH230865   4.581   2.554   1.632  0.0278  0.5974  0.0180
 3125TIP3    H130866   4.537   2.493   1.691  1.0407  0.6342  0.8367
 3125TIP3    H230867   4.597   2.504   1.552  2.0789 -0.6731  1.1649
 3126TIP3   OH230868   2.094   0.544  11.989 -0.3723 -0.5227  0.2753
 3126TIP3    H130869   2.119   0.617  11.934  0.1406 -0.0578  1.1052
 3126TIP3    H230870   2.013   0.511  11.951  0.9225 -1.3495 -1.8028
 3127TIP3   OH230871   1.716   1.162  12.379 -0.3964  0.7803 -0.3174
 3127TIP3    H130872   1.708   1.258  12.374  1.6241  1.0959  1.4548
 3127TIP3    H230873   1.721   1.144  12.473  1.1036 -0.8818 -0.6881
 3128TIP3   OH230874   2.236   5.534   2.619  0.3282 -0.1199  0.0756
 3128TIP3    H130875   2.300   5.467   2.643  0.9869  0.1646 -0.8558
 3128TIP3    H230876   2.203   5.566   2.703  0.6321 -1.0118  0.5465
 3129TIP3   OH230877   6.177   5.478  13.240 -0.8021  0.0742  0.6601
 3129TIP3    H130878   6.113   5.510  13.304 -2.7457  1.9222 -2.1163
 3129TIP3    H230879   6.209   5.556  13.197 -1.7402 -1.2805 -2.6351
 3130TIP3   OH230880   2.972   5.363   3.947  0.2417 -0.2253 -0.0239
 3130TIP3    H130881   3.036   5.309   3.994  1.0820 -0.8258 -1.8034
 3130TIP3    H230882   2.887   5.325   3.970  0.7294 -1.3619 -0.0533
 3131TIP3   OH230883   1.675   0.825   0.358  0.0218 -0.0748 -0.2076
 3131TIP3    H130884   1.709   0.829   0.269 -0.5862  1.8163 -0.3825
 3131TIP3    H230885   1.635   0.911   0.372 -2.1802 -1.2398  0.9673
 3132TIP3   OH230886   3.818   1.931  14.702 -0.1899  0.2035  0.6034
 3132TIP3    H130887   3.737   1.913  14.654 -0.0674  0.7330  0.1921
 3132TIP3    H230888   3.869   1.850  14.694 -0.3999  0.1002  0.3108
 3133TIP3   OH230889   6.714   2.336  11.417 -0.2025 -0.7311  0.2417
 3133TIP3    H130890   6.622   2.321  11.439 -0.1515 -1.4089  0.0067
 3133TIP3    H230891   6.730   2.280  11.341  0.4959 -0.8842  0.4967
 3134TIP3   OH230892   1.326   0.639  11.132 -0.8107  0.3800  0.2290
 3134TIP3    H130893   1.401   0.646  11.074 -0.9147  0.0160  0.0470
 3134TIP3    H230894   1.357   0.584  11.204 -1.3165 -0.9509 -0.5443
 3135TIP3   OH230895   2.803   4.791  16.425 -0.6449  0.1408  0.1463
 3135TIP3    H130896   2.812   4.874  16.472 -0.6212  0.2935 -0.1273
 3135TIP3    H230897   2.826   4.725  16.489 -0.4177  0.3624  0.2955
 3136TIP3   OH230898   6.181   0.335   3.184  0.6126 -0.0348  0.3212
 3136TIP3    H130899   6.128   0.415   3.185  0.7713  0.1142 -1.5940
 3136TIP3    H230900   6.161   0.293   3.267 -0.3318  1.4476  0.8693
 3137TIP3   OH230901   0.142   4.324  16.581  0.1840 -0.1149  0.2986
 3137TIP3    H130902   0.123   4.247  16.529  1.2158 -0.2335  0.0944
 3137TIP3    H230903   0.195   4.380  16.524 -0.7822  0.8756  0.3413
 3138TIP3   OH230904   5.309   3.320   1.300  0.0755 -0.3988  0.2462
 3138TIP3    H130905   5.276   3.410   1.302  0.7623 -0.1527  3.4944
 3138TIP3    H230906   5.391   3.326   1.250  1.0390  1.1611  1.9445
 3139TIP3   OH230907   2.127   1.204  15.236  0.4694 -0.0372 -0.2581
 3139TIP3    H130908   2.128   1.273  15.303 -0.8420  0.3676 -0.6560
 3139TIP3    H230909   2.035   1.183  15.224  0.6624  0.1251 -2.1913
 3140TIP3   OH230910   5.188   0.145   3.475 -0.5896  0.2667 -0.2902
 3140TIP3    H130911   5.179   0.061   3.428  2.6575 -0.6236  0.5262
 3140TIP3    H230912   5.268   0.135   3.526 -2.1974  2.5082  2.8179
 3141TIP3   OH230913   5.065   0.841   3.466 -0.4300 -0.4062 -0.3119
 3141TIP3    H130914   5.104   0.760   3.499  0.8940  0.4168  0.1786
 3141TIP3    H230915   5.102   0.910   3.521 -0.4224  0.6817 -1.6474
 3142TIP3   OH230916   0.225   5.948  11.853  0.1522 -0.2298 -0.1804
 3142TIP3    H130917   0.132   5.934  11.836 -0.0759  2.6141 -1.5504
 3142TIP3    H230918   0.227   6.024  11.911  1.6743  0.7048 -1.4418
 3143TIP3   OH230919   1.284   1.284  14.906 -0.5828  0.7323 -0.6555
 3143TIP3    H130920   1.364   1.285  14.853 -1.0046 -0.3494 -1.3236
 3143TIP3    H230921   1.299   1.350  14.974  1.2871 -0.1296 -0.1948
 3144TIP3   OH230922   1.539   5.440   6.266 -0.2253 -0.4804 -0.5721
 3144TIP3    H130923   1.606   5.399   6.322  0.9188 -0.7180 -2.0745
 3144TIP3    H230924   1.465   5.455   6.324  1.8836  1.7486  1.7107
 3145TIP3   OH230925   2.398   1.811  13.281 -0.3620 -0.2178  0.1551
 3145TIP3    H130926   2.327   1.785  13.222 -0.2309  1.3400 -0.7397
 3145TIP3    H230927   2.434   1.729  13.314 -2.2170 -1.0407  0.1889
 3146TIP3   OH230928   4.299   5.337   1.405 -0.1558  0.2848  0.6733
 3146TIP3    H130929   4.235   5.336   1.334 -0.9105  1.2229  1.3356
 3146TIP3    H230930   4.247   5.339   1.485  0.6972  1.1381  1.2190
 3147TIP3   OH230931   6.718   1.058  14.849 -0.3089  0.0423  0.4290
 3147TIP3    H130932   6.704   1.139  14.801  1.2836 -0.0488 -0.2188
 3147TIP3    H230933   6.726   1.086  14.941  1.2799  0.7595  0.0943
 3148TIP3   OH230934   2.037   5.928   4.918 -0.0098 -0.2839 -0.2310
 3148TIP3    H130935   1.987   5.861   4.870 -0.1094  0.4548 -1.1710
 3148TIP3    H230936   2.029   5.902   5.010 -1.1405 -0.8485 -0.4702
 3149TIP3   OH230937   1.353   3.666   4.673  0.1462  0.2146 -0.3057
 3149TIP3    H130938   1.396   3.616   4.604  0.6774 -0.2664  0.3635
 3149TIP3    H230939   1.410   3.654   4.750 -1.1598 -0.4181  0.5870
 3150TIP3   OH230940   4.861   2.713   1.645  0.3128 -0.1251 -0.1755
 3150TIP3    H130941   4.772   2.722   1.678  0.3046  0.1645 -0.2747
 3150TIP3    H230942   4.857   2.639   1.584 -0.3423  1.2536 -1.8389
 3151TIP3   OH230943   6.269   4.177   2.853  0.4992  0.1855 -0.2332
 3151TIP3    H130944   6.248   4.193   2.945  0.5170  0.6784 -0.3161
 3151TIP3    H230945   6.212   4.237   2.804  0.3815 -0.1834 -0.5502
 3152TIP3   OH230946   6.170   3.675  16.160 -0.3508 -0.1630  0.0705
 3152TIP3    H130947   6.137   3.607  16.219 -0.7900  1.4295  1.7024
 3152TIP3    H230948   6.092   3.721  16.130 -0.0394 -0.2420 -0.8897
 3153TIP3   OH230949   1.376   3.741   1.163 -0.2339  0.3147 -0.4031
 3153TIP3    H130950   1.392   3.783   1.247 -1.4881  1.0376 -0.5189
 3153TIP3    H230951   1.282   3.750   1.148 -0.5530 -2.4472 -0.4713
 3154TIP3   OH230952   1.363   4.124  14.292 -0.8093  0.1923 -0.9461
 3154TIP3    H130953   1.328   4.096  14.208 -1.0112 -2.9189  0.1298
 3154TIP3    H230954   1.294   4.179  14.329 -1.7525 -0.4516 -1.7142
 3155TIP3   OH230955   3.778   6.150  14.439  0.0720  0.1976  0.3167
 3155TIP3    H130956   3.756   6.118  14.352  0.2685 -0.1565  0.3976
 3155TIP3    H230957   3.852   6.209  14.426 -0.5710  0.9577  0.1104
 3156TIP3   OH230958   0.534   2.875  14.902 -0.3164 -0.6195 -0.5833
 3156TIP3    H130959   0.485   2.930  14.964 -0.0072 -0.4362 -0.4950
 3156TIP3    H230960   0.625   2.901  14.915 -0.2651 -0.4611 -1.2401
 3157TIP3   OH230961   0.393   1.299  13.986 -0.2519  0.1296 -1.0156
 3157TIP3    H130962   0.298   1.301  13.997 -0.1113 -1.1596  0.7630
 3157TIP3    H230963   0.408   1.226  13.926 -0.3656  0.0650 -0.9671
 3158TIP3   OH230964   2.971   4.370   5.582 -0.0316 -0.3323  0.1763
 3158TIP3    H130965   2.940   4.346   5.670 -2.1551 -0.9291 -0.7048
 3158TIP3    H230966   2.994   4.286   5.542  1.0906 -0.0452  0.1981
 3159TIP3   OH230967   3.172   2.146   3.412 -0.3409 -0.0464 -0.1356
 3159TIP3    H130968   3.148   2.209   3.344 -1.5362 -1.6533 -1.2316
 3159TIP3    H230969   3.258   2.175   3.442  0.1186  0.8028 -2.1981
 3160TIP3   OH230970   0.417   5.339   3.670  0.1098  0.0198  0.2841
 3160TIP3    H130971   0.497   5.292   3.646  0.4548  1.2842 -1.1194
 3160TIP3    H230972   0.346   5.282   3.638  0.4874 -0.2384 -0.1000
 3161TIP3   OH230973   5.164   0.579  15.303  0.2677  0.0854 -0.3382
 3161TIP3    H130974   5.225   0.610  15.370 -1.0606  0.0379  0.9115
 3161TIP3    H230975   5.167   0.647  15.236 -0.2016  1.3612  0.9026
 3162TIP3   OH230976   0.219   1.569  14.453 -0.0680 -0.7082  0.2374
 3162TIP3    H130977   0.229   1.649  14.401 -3.2854  0.6519  1.6078
 3162TIP3    H230978   0.287   1.510  14.419  1.5085  2.0980 -1.7033
 3163TIP3   OH230979   0.729   3.628   0.447  0.4762  0.0259  0.3218
 3163TIP3    H130980   0.806   3.579   0.419  0.1791  0.6227 -1.6065
 3163TIP3    H230981   0.761   3.717   0.463  0.4679 -0.0909  1.0191
 3164TIP3   OH230982   6.719   4.973  12.232  0.5586 -0.0518 -0.2216
 3164TIP3    H130983   6.779   4.959  12.305 -1.0716 -0.6360  1.0240
 3164TIP3    H230984   6.658   4.899  12.236  0.8301 -0.4536 -2.5701
 3165TIP3   OH230985   1.995   0.342   4.194  0.0052 -0.6307  0.4978
 3165TIP3    H130986   1.998   0.305   4.105 -1.4621 -1.3483  0.7173
 3165TIP3    H230987   2.067   0.300   4.240 -0.5106 -1.8446  0.2164
 3166TIP3   OH230988   6.285   0.370   0.161  0.2495 -0.0626 -0.2883
 3166TIP3    H130989   6.216   0.324   0.113 -0.5602  1.2838 -0.4593
 3166TIP3    H230990   6.365   0.351   0.113 -0.3116 -0.0454 -1.2482
 3167TIP3   OH230991   5.539   1.937  17.008  0.1476  0.9399  0.3852
 3167TIP3    H130992   5.618   1.911  16.960 -1.4083 -3.6488  0.0969
 3167TIP3    H230993   5.563   1.929  17.100  0.0905 -0.3528  0.2979
 3168TIP3   OH230994   4.589   0.099  11.124 -0.2716 -0.1338  0.2051
 3168TIP3    H130995   4.552   0.012  11.110  0.6195 -0.4527 -0.2564
 3168TIP3    H230996   4.681   0.090  11.097 -0.0435  0.8125  0.6512
 3169TIP3   OH230997   3.765   5.605   3.032  0.2826  0.1868  0.0630
 3169TIP3    H130998   3.672   5.623   3.048 -0.2795 -2.5003 -0.0682
 3169TIP3    H230999   3.811   5.660   3.096 -1.3423  1.9619 -0.2398
 3170TIP3   OH231000   2.506   0.553  14.694 -0.0679 -0.1094  0.5085
 3170TIP3    H131001   2.458   0.606  14.758  0.8658 -0.6117  1.6591
 3170TIP3    H231002   2.594   0.589  14.694  0.0170 -0.3151 -0.2717
 3171TIP3   OH231003   2.274   2.424   6.762 -0.0214 -0.2846  0.1255
 3171TIP3    H131004   2.235   2.343   6.796  0.9674 -1.1618 -0.7828
 3171TIP3    H231005   2.344   2.394   6.704 -1.1227  1.1907 -2.0124
 3172TIP3   OH231006   3.258   5.758   4.873 -0.3957  0.3872 -0.1861
 3172TIP3    H131007   3.205   5.720   4.804 -0.5241 -0.2208  0.2430
 3172TIP3    H231008   3.215   5.732   4.954  1.7774 -2.0615  0.2594
 3173TIP3   OH231009   6.277   1.286   3.647  0.0892  0.1190 -0.2038
 3173TIP3    H131010   6.315   1.199   3.663 -0.1759  0.0582  0.0942
 3173TIP3    H231011   6.321   1.343   3.710  1.1776  0.4482 -1.2413
 3174TIP3   OH231012   0.840   5.015  12.562  0.5331  0.3420 -0.4756
 3174TIP3    H131013   0.804   5.101  12.538  0.0316  0.7333  1.5897
 3174TIP3    H231014   0.784   4.952  12.517 -2.1424  0.9770  1.7720
 3175TIP3   OH231015   4.864   0.337   2.468 -0.3088  0.2288  0.6260
 3175TIP3    H131016   4.797   0.315   2.533  0.4766  1.8757  2.0392
 3175TIP3    H231017   4.904   0.417   2.501  1.1304  0.2728 -1.1436
 3176TIP3   OH231018   2.410   2.424   1.090  0.3934  1.2130  0.1586
 3176TIP3    H131019   2.435   2.502   1.139 -0.0578  0.8443  0.9820
 3176TIP3    H231020   2.491   2.394   1.048  1.1851  0.4617  2.1848
 3177TIP3   OH231021   1.079   3.345  13.851  0.7044  0.3772 -0.4170
 3177TIP3    H131022   1.160   3.393  13.831 -0.5214  2.4323 -0.5779
 3177TIP3    H231023   1.020   3.412  13.885 -1.0928 -1.0380 -0.7204
 3178TIP3   OH231024   1.603   1.843  17.061  0.1824  0.0112  0.3915
 3178TIP3    H131025   1.659   1.767  17.078 -0.3621 -0.7036 -0.8935
 3178TIP3    H231026   1.518   1.819  17.099 -0.0643 -0.1550 -0.2455
 3179TIP3   OH231027   0.149   3.851   5.394 -0.2611  0.2517 -0.7243
 3179TIP3    H131028   0.054   3.860   5.384 -0.5538 -0.1725  1.3781
 3179TIP3    H231029   0.168   3.891   5.478  0.9916 -2.3303  0.2887
 3180TIP3   OH231030   4.565   3.146  16.999  0.3329 -0.5248 -0.6859
 3180TIP3    H131031   4.507   3.203  17.049 -0.1080 -0.2446 -1.4998
 3180TIP3    H231032   4.555   3.176  16.909  2.6027  0.2751 -0.6993
 3181TIP3   OH231033   4.237   0.049   2.860  0.0704 -0.2553  0.2217
 3181TIP3    H131034   4.332   0.047   2.853 -0.0376  0.4039 -1.7488
 3181TIP3    H231035   4.220   0.078   2.950  1.7248 -0.2650  0.5488
 3182TIP3   OH231036   2.103   3.623  17.120  0.3978  0.6279 -0.3041
 3182TIP3    H131037   2.108   3.717  17.103 -1.5862  1.1035  1.5111
 3182TIP3    H231038   2.125   3.614  17.212  0.5445 -0.7019 -0.4520
 3183TIP3   OH231039   4.420   0.404  13.191  0.0006 -0.0411  0.0186
 3183TIP3    H131040   4.449   0.380  13.279  0.1187  0.6744  0.1742
 3183TIP3    H231041   4.499   0.393  13.137 -0.6446 -2.6928 -0.4219
 3184TIP3   OH231042   6.662   3.123  15.227  0.0770 -0.1971  0.6815
 3184TIP3    H131043   6.687   3.214  15.209 -2.2848  0.2691 -0.4865
 3184TIP3    H231044   6.745   3.078  15.245  1.5958  1.5667 -1.5937
 3185TIP3   OH231045   5.396   6.491   4.224  0.6452 -0.2191 -0.1723
 3185TIP3    H131046   5.441   6.496   4.140 -1.3595  0.7445 -1.2019
 3185TIP3    H231047   5.334   6.563   4.223  0.7804 -0.0122  2.2655
 3186TIP3   OH231048   5.267   2.198   1.802  0.5355 -0.3376  0.1358
 3186TIP3    H131049   5.264   2.262   1.731  0.2228  0.5559  0.9422
 3186TIP3    H231050   5.242   2.247   1.880  1.7299 -1.0937  1.0242
 3187TIP3   OH231051   3.759   2.631   0.172 -0.0935 -0.5687  0.0316
 3187TIP3    H131052   3.731   2.541   0.190 -3.8651  0.0381 -2.2394
 3187TIP3    H231053   3.721   2.683   0.244 -1.6317 -0.2441 -0.9999
 3188TIP3   OH231054   1.137   4.203   1.177 -0.3047 -0.3938 -0.6151
 3188TIP3    H131055   1.218   4.233   1.217 -0.1465 -1.5766 -0.0299
 3188TIP3    H231056   1.069   4.229   1.238 -0.1165 -1.6983  0.1659
 3189TIP3   OH231057   1.435   1.942   1.307  0.3492 -0.0053  0.2573
 3189TIP3    H131058   1.415   2.018   1.253 -0.4775 -0.0139  0.5486
 3189TIP3    H231059   1.448   1.871   1.244 -1.0820 -0.1232  0.0834
 3190TIP3   OH231060   3.009   6.588  12.660  0.0276 -0.1493 -0.3395
 3190TIP3    H131061   3.059   6.602  12.741  0.8661  1.6126 -1.1198
 3190TIP3    H231062   2.949   6.517  12.681  0.5701 -0.0564  1.6828
 3191TIP3   OH231063   3.825   6.364   1.133 -0.1344  0.0620 -0.6128
 3191TIP3    H131064   3.780   6.368   1.217  1.7336 -0.3265  0.4418
 3191TIP3    H231065   3.776   6.424   1.077 -2.0006 -0.4419  0.4515
 3192TIP3   OH231066   1.148   2.589   0.792 -0.2034  0.2661 -0.0035
 3192TIP3    H131067   1.103   2.603   0.709 -1.4154  0.5753  0.6812
 3192TIP3    H231068   1.087   2.533   0.842  1.3023 -1.3994  0.0081
 3193TIP3   OH231069   2.076   1.904  14.009  0.5400  0.2802  0.1319
 3193TIP3    H131070   1.996   1.888  14.059  0.3604  0.4758 -0.0935
 3193TIP3    H231071   2.147   1.890  14.073  0.4053 -1.5732 -0.1003
 3194TIP3   OH231072   3.189   0.689  16.442  0.0747 -0.2900 -0.0012
 3194TIP3    H131073   3.257   0.745  16.406  0.5689 -1.2381 -0.5665
 3194TIP3    H231074   3.120   0.688  16.375  0.7671 -1.6328 -0.7208
 3195TIP3   OH231075   4.221   1.100  11.025 -0.3889  0.1124  0.1513
 3195TIP3    H131076   4.183   1.094  10.937 -1.7326  0.0587  0.7350
 3195TIP3    H231077   4.312   1.074  11.012 -0.7714 -0.6873 -1.0926
 3196TIP3   OH231078   1.630   4.712  14.774 -0.2183  0.2520  0.1346
 3196TIP3    H131079   1.583   4.771  14.834 -0.9550  0.1309 -0.3098
 3196TIP3    H231080   1.722   4.732  14.788 -0.3929  0.4166  1.1187
 3197TIP3   OH231081   5.074   0.555   3.943 -0.3054 -0.5980 -0.1325
 3197TIP3    H131082   5.033   0.522   4.023  0.5376 -0.9841  0.1449
 3197TIP3    H231083   5.047   0.492   3.876 -2.2414  0.5458 -0.4667
 3198TIP3   OH231084   1.195   0.897  16.300  0.1102 -0.3993 -0.1868
 3198TIP3    H131085   1.250   0.862  16.230 -1.0366 -1.6654 -0.4786
 3198TIP3    H231086   1.249   0.964  16.342  0.5606  0.8866 -2.7227
 3199TIP3   OH231087   2.846   0.172   3.122 -0.2772  0.0684  0.4973
 3199TIP3    H131088   2.780   0.104   3.123  1.3047 -1.4916  1.4290
 3199TIP3    H231089   2.827   0.225   3.200 -0.5181 -0.2607  0.6608
 3200TIP3   OH231090   3.051   3.986   4.395 -0.1807 -0.2757  0.2480
 3200TIP3    H131091   2.980   4.041   4.363 -0.5730 -1.4233 -0.9098
 3200TIP3    H231092   3.125   4.005   4.337  0.4679  0.8904  1.4280
 3201TIP3   OH231093   3.224   5.622  17.019 -0.5839  0.7250  0.0841
 3201TIP3    H131094   3.141   5.656  17.054 -0.1035  1.4616  0.5024
 3201TIP3    H231095   3.201   5.535  16.985 -1.1966  0.2650  1.6293
 3202TIP3   OH231096   1.013   3.477   0.033 -0.7458  0.1227 -0.2356
 3202TIP3    H131097   1.019   3.405  -0.029  1.4734  0.0079  0.0582
 3202TIP3    H231098   1.011   3.436   0.119  0.0333  0.3799 -0.0870
 3203TIP3   OH231099   3.061   5.739   1.160 -0.3583 -0.6227  0.2557
 3203TIP3    H131100   3.109   5.709   1.083  1.6603 -0.3144  1.3271
 3203TIP3    H231101   3.099   5.689   1.233  0.3704  1.6445  1.5218
 3204TIP3   OH231102   3.013   0.758  12.226 -0.2921  0.3883 -0.5163
 3204TIP3    H131103   3.104   0.740  12.207 -0.3994 -1.5519  0.6482
 3204TIP3    H231104   2.978   0.675  12.258 -2.7601  0.8003 -2.0088
 3205TIP3   OH231105   5.360   0.343   2.497  0.0651 -0.4464 -0.1101
 3205TIP3    H131106   5.356   0.371   2.588 -1.0412 -0.3091 -0.1978
 3205TIP3    H231107   5.307   0.406   2.449 -0.1538 -1.0712 -0.7083
 3206TIP3   OH231108   6.077   0.722  14.676 -0.5210 -0.2909 -0.1661
 3206TIP3    H131109   6.135   0.663  14.629 -0.0447 -0.3070  0.4390
 3206TIP3    H231110   6.103   0.713  14.768  1.6645  3.1667 -0.3666
 3207TIP3   OH231111   1.279   6.667  15.174  0.2836 -0.3629  0.0520
 3207TIP3    H131112   1.228   6.664  15.093  0.5176 -0.4883 -0.0925
 3207TIP3    H231113   1.307   6.759  15.181  1.4965 -0.6522 -0.7882
 3208TIP3   OH231114   1.027   1.120  11.290 -0.6042 -0.4032 -0.3655
 3208TIP3    H131115   1.044   1.135  11.383 -0.9019 -1.1012 -0.1976
 3208TIP3    H231116   1.059   1.031  11.274  0.9057  0.2831 -1.2922
 3209TIP3   OH231117   1.467   4.805   1.109  0.1942 -0.1388  0.0403
 3209TIP3    H131118   1.427   4.747   1.044  0.0760 -0.6054  0.5203
 3209TIP3    H231119   1.534   4.751   1.150 -1.1155 -0.5096  1.7328
 3210TIP3   OH231120   4.857   1.771  10.232  0.1551 -0.3232  0.2250
 3210TIP3    H131121   4.823   1.860  10.232  1.7874  0.3174  0.6842
 3210TIP3    H231122   4.779   1.716  10.237 -0.9951  1.0059 -1.9684
 3211TIP3   OH231123   2.159   5.066  14.194 -0.1810 -0.4104 -0.0836
 3211TIP3    H131124   2.240   5.077  14.145 -0.2576 -1.4443 -0.4532
 3211TIP3    H231125   2.148   5.149  14.241  1.3372 -0.4414  0.3645
 3212TIP3   OH231126   1.730   5.178  12.978  0.4473  0.4337  0.3492
 3212TIP3    H131127   1.773   5.164  13.062 -0.1865  1.7264  0.9020
 3212TIP3    H231128   1.639   5.198  13.000  0.1878  0.3754 -0.6605
 3213TIP3   OH231129   6.724   5.628  16.500 -0.1513 -0.5133  0.3444
 3213TIP3    H131130   6.719   5.676  16.582  0.0357  0.2673 -0.0971
 3213TIP3    H231131   6.786   5.557  16.517  3.2907  2.2051 -0.3950
 3214TIP3   OH231132   6.654   2.885   4.362  0.0627  0.2655  0.2193
 3214TIP3    H131133   6.691   2.904   4.275 -0.9677 -0.3338 -0.3677
 3214TIP3    H231134   6.676   2.793   4.378 -1.5699 -0.2527 -0.3649
 3215TIP3   OH231135   3.794   4.399  16.781 -0.2969  0.4477  0.6785
 3215TIP3    H131136   3.873   4.363  16.822 -0.1125 -0.0480 -0.1038
 3215TIP3    H231137   3.825   4.472  16.727  0.0824 -1.7421 -2.1933
 3216TIP3   OH231138   5.257   2.277   3.340  0.0007  0.0134 -0.6929
 3216TIP3    H131139   5.190   2.303   3.276  1.1865  0.7620 -1.6445
 3216TIP3    H231140   5.331   2.248   3.287  1.0856  0.8557  0.3242
 3217TIP3   OH231141   4.532   5.886   1.641  0.5071 -0.5842 -0.6134
 3217TIP3    H131142   4.537   5.858   1.549 -0.8827 -0.5123 -0.7283
 3217TIP3    H231143   4.480   5.966   1.638 -0.0387 -0.9027  0.3027
 3218TIP3   OH231144   3.850   2.047   6.079 -0.2433 -0.1619 -0.7466
 3218TIP3    H131145   3.937   2.013   6.103  0.7361  1.2342 -2.2011
 3218TIP3    H231146   3.816   1.983   6.016 -0.5628 -1.0440  0.2985
 3219TIP3   OH231147   3.976   1.292   3.729  0.2396 -0.1945  0.0561
 3219TIP3    H131148   3.953   1.199   3.735 -1.3034 -0.0297 -2.6228
 3219TIP3    H231149   4.067   1.292   3.698 -0.3874 -0.8361 -1.8710
 3220TIP3   OH231150   6.125   3.923  15.700 -0.0607  0.1293 -0.4621
 3220TIP3    H131151   6.069   3.993  15.734 -1.4417 -1.4502  0.5874
 3220TIP3    H231152   6.106   3.848  15.756 -0.8760 -1.9664 -3.4341
 3221TIP3   OH231153   3.282   4.675   3.298  0.0892  0.1556 -0.5599
 3221TIP3    H131154   3.342   4.736   3.257  0.9079 -0.4363 -0.2483
 3221TIP3    H231155   3.195   4.703   3.269  0.4580  1.4571 -0.4147
 3222TIP3   OH231156   3.248   3.709   3.872 -0.0399 -0.0952  0.1792
 3222TIP3    H131157   3.202   3.703   3.788  0.8824 -0.4850 -0.3078
 3222TIP3    H231158   3.331   3.752   3.851  0.1743 -0.1548  0.8998
 3223TIP3   OH231159   5.838   2.018  11.881  0.5157  0.2882 -0.3511
 3223TIP3    H131160   5.826   1.926  11.906 -0.0522  0.1700 -1.0479
 3223TIP3    H231161   5.903   2.015  11.810  1.0308  0.4866  0.1158
 3224TIP3   OH231162   3.766   6.076  13.756 -0.4296 -0.3426  0.0988
 3224TIP3    H131163   3.675   6.102  13.741  0.6632  2.5149 -2.0533
 3224TIP3    H231164   3.790   6.023  13.681 -0.1799 -0.6796  0.4130
 3225TIP3   OH231165   3.217   5.514   5.398 -0.1353  0.8372 -0.4055
 3225TIP3    H131166   3.273   5.437   5.389  0.9521  1.5932 -0.2189
 3225TIP3    H231167   3.249   5.575   5.331 -1.3001  0.9481 -0.8810
 3226TIP3   OH231168   0.623   3.610  12.855 -0.5414 -0.0634 -0.0310
 3226TIP3    H131169   0.643   3.516  12.851  0.9288  0.2087  0.8376
 3226TIP3    H231170   0.694   3.652  12.808 -0.1263  0.7648  1.3331
 3227TIP3   OH231171   3.659   4.778   6.070  0.5113 -0.3158 -0.3909
 3227TIP3    H131172   3.663   4.719   6.146  0.4440 -1.5288 -1.3130
 3227TIP3    H231173   3.571   4.815   6.074  1.1692  1.1467  1.2284
 3228TIP3   OH231174   0.157   3.349  14.914  0.0054  0.6869  0.1283
 3228TIP3    H131175   0.247   3.377  14.934  0.3022  0.4045 -0.7814
 3228TIP3    H231176   0.117   3.426  14.873 -0.1774  0.8181  0.5495
 3229TIP3   OH231177   3.766   4.602   1.440  0.0216 -0.6980 -0.1395
 3229TIP3    H131178   3.814   4.684   1.447 -0.1123 -0.3699 -2.5260
 3229TIP3    H231179   3.712   4.612   1.362 -0.1671 -2.9514 -0.3504
 3230TIP3   OH231180   5.922   5.942  15.966  0.1337  0.3041  0.0150
 3230TIP3    H131181   5.869   5.871  16.003  0.8593 -0.9663 -1.3187
 3230TIP3    H231182   5.876   6.022  15.991 -0.2431 -0.5747  2.2722
 3231TIP3   OH231183   1.285   3.334   4.421  0.2526  0.0725 -0.4991
 3231TIP3    H131184   1.359   3.277   4.439  0.8574  0.4148 -1.8310
 3231TIP3    H231185   1.322   3.422   4.422  0.0431  0.1899 -1.9701
 3232TIP3   OH231186   2.191   5.542  13.262  0.0510  0.1809 -0.4042
 3232TIP3    H131187   2.153   5.535  13.175 -1.9140  0.7125  0.3885
 3232TIP3    H231188   2.271   5.594  13.250 -1.1976  1.8600 -1.5821
 3233TIP3   OH231189   4.503   2.072  12.479  0.0154  0.4368  0.0067
 3233TIP3    H131190   4.480   2.115  12.561 -1.5203 -0.5714  0.1242
 3233TIP3    H231191   4.578   2.121  12.447 -0.8114  2.3237  0.8499
 3234TIP3   OH231192   3.066   0.919   6.094  0.5000  0.0388  0.2071
 3234TIP3    H131193   3.069   0.891   6.186  1.1004  0.4625  0.3185
 3234TIP3    H231194   3.079   1.013   6.097 -2.8208  0.5816 -0.0729
 3235TIP3   OH231195   6.436   3.772  14.566  0.4168 -0.0415 -0.1835
 3235TIP3    H131196   6.458   3.808  14.652 -0.0026 -1.0526  0.3600
 3235TIP3    H231197   6.460   3.680  14.572  0.8978  0.0087 -1.3422
 3236TIP3   OH231198   6.261   6.785   6.132  0.4777 -0.7666 -0.1515
 3236TIP3    H131199   6.321   6.834   6.188  2.2342 -0.2431 -2.3997
 3236TIP3    H231200   6.222   6.720   6.189  2.3294 -0.3620  1.6374
 3237TIP3   OH231201   6.432   1.482  15.968  0.0750 -0.1825  0.2877
 3237TIP3    H131202   6.460   1.473  16.059 -1.8417  1.6566  1.1059
 3237TIP3    H231203   6.507   1.521  15.924  0.5638  0.1206  1.3725
 3238TIP3   OH231204   5.125   4.351  14.375 -0.7115 -0.0544 -0.0830
 3238TIP3    H131205   5.036   4.320  14.395 -1.1444 -0.7032 -2.8369
 3238TIP3    H231206   5.141   4.420  14.440 -2.1236 -1.8428  2.2434
 3239TIP3   OH231207   0.579   1.683  13.546 -0.0444  0.2425  0.2521
 3239TIP3    H131208   0.509   1.620  13.537 -0.7088  1.1296 -0.8568
 3239TIP3    H231209   0.548   1.744  13.613 -0.2563  0.5259 -0.1024
 3240TIP3   OH231210   1.653   3.663  14.473 -0.1950  0.0750 -0.3480
 3240TIP3    H131211   1.590   3.727  14.440 -1.0330 -0.0748  0.9129
 3240TIP3    H231212   1.627   3.580  14.432  0.7127  0.4644 -1.7519
 3241TIP3   OH231213   5.154   1.674  11.119  0.0768 -0.0665  0.6363
 3241TIP3    H131214   5.181   1.763  11.142  1.2835 -0.3302  0.2649
 3241TIP3    H231215   5.071   1.685  11.072  1.5183  1.0835 -1.7226
 3242TIP3   OH231216   1.035   6.344   2.430  0.1789  0.1816 -0.0928
 3242TIP3    H131217   1.044   6.338   2.525 -0.3420  0.7891 -0.0089
 3242TIP3    H231218   0.990   6.263   2.405 -1.4376  0.9092  0.3957
 3243TIP3   OH231219   1.379   1.206   3.617 -0.5132  0.0478 -0.1228
 3243TIP3    H131220   1.329   1.189   3.696 -0.2688 -0.5411 -0.0939
 3243TIP3    H231221   1.318   1.187   3.545 -0.8878  1.0533 -0.0740
 3244TIP3   OH231222   3.981   4.016  15.050  0.8100  0.1345  0.0820
 3244TIP3    H131223   4.072   4.041  15.064  0.5326  0.3992  1.4945
 3244TIP3    H231224   3.931   4.097  15.060  0.1675 -0.4721  2.0041
 3245TIP3   OH231225   3.973   3.501   1.688 -0.4362  0.0737 -0.1259
 3245TIP3    H131226   4.044   3.519   1.626 -0.3258 -0.3569 -0.1259
 3245TIP3    H231227   3.894   3.504   1.634 -0.3046 -0.6904 -0.3635
 3246TIP3   OH231228   4.727   2.141   1.425  0.9828  0.4709 -0.7499
 3246TIP3    H131229   4.748   2.140   1.519  0.2594 -1.4938 -0.5914
 3246TIP3    H231230   4.661   2.210   1.417  0.1835 -0.1367  0.3884
 3247TIP3   OH231231   2.767   3.284  14.900  0.5494  0.6704  0.1053
 3247TIP3    H131232   2.800   3.345  14.834 -0.7061  1.7969  0.4955
 3247TIP3    H231233   2.745   3.205  14.850  2.3552  0.4367 -0.3771
 3248TIP3   OH231234   5.796   2.236  15.517 -0.3753  0.5599  0.4538
 3248TIP3    H131235   5.870   2.188  15.480  0.2520  1.3560  0.6628
 3248TIP3    H231236   5.725   2.172  15.521  0.1875 -0.1012 -0.1162
 3249TIP3   OH231237   6.028   2.972   2.811  0.1194  0.3790 -0.4317
 3249TIP3    H131238   6.074   2.960   2.895 -1.6427  1.7550  0.7868
 3249TIP3    H231239   6.030   3.067   2.796 -0.8852  0.2958 -1.1655
 3250TIP3   OH231240   0.611   5.853  17.196 -0.1197  0.1373 -0.0516
 3250TIP3    H131241   0.605   5.919  17.265  3.5617  1.1191 -0.5962
 3250TIP3    H231242   0.635   5.773  17.241  1.1296  0.5094 -0.0517
 3251TIP3   OH231243   3.328   3.022  11.409 -0.2921 -0.3112  0.3823
 3251TIP3    H131244   3.302   3.050  11.321  4.8147  0.4770 -1.0288
 3251TIP3    H231245   3.308   2.928  11.411 -0.1411 -0.4144 -1.7345
 3252TIP3   OH231246   3.185   5.466   1.957 -0.4233 -0.2974 -0.3548
 3252TIP3    H131247   3.279   5.476   1.973 -0.8793  1.3972  1.6014
 3252TIP3    H231248   3.159   5.547   1.914 -1.2560 -0.0645  0.5611
 3253TIP3   OH231249   3.444   6.757  11.601  0.3152  0.0120 -0.1389
 3253TIP3    H131250   3.430   6.837  11.550  0.9750  0.8923  1.0437
 3253TIP3    H231251   3.391   6.769  11.679 -0.0846 -0.9965 -0.2520
 3254TIP3   OH231252   1.914   1.603   0.386 -0.3657 -0.5034 -0.3504
 3254TIP3    H131253   1.866   1.633   0.308 -1.0548 -1.0347 -0.1214
 3254TIP3    H231254   1.877   1.654   0.458 -0.2848 -0.6002 -0.2412
 3255TIP3   OH231255   4.990   6.584   1.714 -0.2299  0.1281 -0.3467
 3255TIP3    H131256   5.041   6.556   1.638 -1.6718 -0.9384 -0.9454
 3255TIP3    H231257   4.900   6.581   1.684 -0.8624 -0.8189  1.5622
 3256TIP3   OH231258   5.736   3.135  16.774 -0.6993  0.6303  0.3654
 3256TIP3    H131259   5.785   3.148  16.855 -0.3822  1.4005  0.0514
 3256TIP3    H231260   5.664   3.198  16.779 -0.7201  0.6294  0.0698
 3257TIP3   OH231261   1.383   5.414  16.206 -0.4289 -0.3704  0.1284
 3257TIP3    H131262   1.471   5.452  16.202 -0.2407 -0.8196 -0.0274
 3257TIP3    H231263   1.332   5.463  16.141 -0.3659  0.0741  0.4145
 3258TIP3   OH231264   4.797   3.997  15.638  0.1455 -0.0302 -0.0530
 3258TIP3    H131265   4.835   4.012  15.724 -2.3434 -0.8951  1.2427
 3258TIP3    H231266   4.759   3.909  15.643  0.2626 -0.2385 -2.1536
 3259TIP3   OH231267   3.575   4.035   5.940  0.8957 -0.4736  0.0867
 3259TIP3    H131268   3.607   4.084   5.865  0.0488  0.5424  0.3824
 3259TIP3    H231269   3.480   4.042   5.935  0.8113 -0.9591  0.8836
 3260TIP3   OH231270   1.372   2.074  11.625 -0.2760  0.5831 -0.4587
 3260TIP3    H131271   1.441   2.073  11.692 -0.1418 -0.1567 -0.5955
 3260TIP3    H231272   1.334   2.161  11.631  0.0698  0.6942  0.2453
 3261TIP3   OH231273   2.959   5.987  13.283 -0.3890 -0.3605 -0.4652
 3261TIP3    H131274   2.945   5.993  13.378  0.0467  0.0642 -0.4226
 3261TIP3    H231275   2.874   5.961  13.248 -0.8752  0.6640 -0.0693
 3262TIP3   OH231276   0.401   3.902  11.478 -0.0371 -0.2605  0.2869
 3262TIP3    H131277   0.373   3.936  11.393 -0.8659 -1.6827 -0.0317
 3262TIP3    H231278   0.493   3.929  11.486  0.5052 -1.3714 -1.7410
 3263TIP3   OH231279   1.975   3.543   0.252 -0.6301 -0.1574 -0.1680
 3263TIP3    H131280   2.041   3.610   0.233 -0.0685 -0.7016 -0.1535
 3263TIP3    H231281   1.891   3.588   0.240 -0.2614  0.2666 -1.1619
 3264TIP3   OH231282   6.816   2.068   1.459  0.2660 -0.2080 -0.0588
 3264TIP3    H131283   6.724   2.044   1.474 -0.2482  1.1500 -0.9575
 3264TIP3    H231284   6.864   2.018   1.525 -1.0596 -1.3721  0.0623
 3265TIP3   OH231285   2.727   3.887   6.072 -0.5043 -0.2917  0.2571
 3265TIP3    H131286   2.722   3.860   6.164  3.9290  0.5411  0.8441
 3265TIP3    H231287   2.739   3.805   6.024 -0.7554 -0.5439  0.6187
 3266TIP3   OH231288   4.904   0.185   1.136  0.1882  0.4344  0.3128
 3266TIP3    H131289   4.999   0.189   1.139  0.1907  0.2086  0.5441
 3266TIP3    H231290   4.876   0.275   1.157  0.3920  1.2080 -2.5806
 3267TIP3   OH231291   3.721   5.427  13.333 -0.4916  0.2971  0.3064
 3267TIP3    H131292   3.713   5.380  13.416 -0.8420  0.7146  0.5115
 3267TIP3    H231293   3.792   5.490  13.349  0.1580 -0.3267 -0.0532
 3268TIP3   OH231294   1.305   2.666   2.638 -0.3440 -0.0629  0.3845
 3268TIP3    H131295   1.372   2.730   2.612 -1.2493  1.0063  0.6786
 3268TIP3    H231296   1.350   2.581   2.633  0.8758  0.5959  0.0431
 3269TIP3   OH231297   1.681   2.206  12.915 -0.0261  0.3735 -0.5364
 3269TIP3    H131298   1.611   2.146  12.940 -0.9487  1.1284 -1.2457
 3269TIP3    H231299   1.755   2.181  12.969 -0.9993 -0.1084  0.5988
 3270TIP3   OH231300   0.255   4.995   5.625 -0.1167 -0.2082  0.3054
 3270TIP3    H131301   0.245   5.082   5.586  0.7024 -0.7189 -1.0854
 3270TIP3    H231302   0.166   4.970   5.651 -0.6044  0.3369 -0.8244
 3271TIP3   OH231303   0.811   3.901  15.997 -0.7513  0.2969  0.6755
 3271TIP3    H131304   0.801   3.991  16.027 -0.6794 -0.1015  1.9060
 3271TIP3    H231305   0.867   3.860  16.063 -0.4459 -0.5449 -0.0945
 3272TIP3   OH231306   6.765   5.001   0.819 -0.2070  0.2398  0.2030
 3272TIP3    H131307   6.854   5.019   0.848  0.3430 -1.0346 -0.6683
 3272TIP3    H231308   6.712   5.010   0.898  0.9339 -0.6621  1.0966
 3273TIP3   OH231309   1.004   6.082  13.577 -0.0602  0.5966  0.0437
 3273TIP3    H131310   0.964   6.169  13.568  0.5069  0.7785 -0.7102
 3273TIP3    H231311   0.931   6.021  13.563 -0.2638  0.9419 -0.4346
 3274TIP3   OH231312   4.063   3.251   3.882  0.0732  0.1994 -0.2000
 3274TIP3    H131313   3.983   3.217   3.921  0.0439  0.4698 -0.0199
 3274TIP3    H231314   4.119   3.272   3.956  0.2119  0.2455 -0.3174
 3275TIP3   OH231315   5.471   4.536   1.235  0.2449  0.4849  0.3296
 3275TIP3    H131316   5.542   4.576   1.185 -1.4955  0.5659 -2.1184
 3275TIP3    H231317   5.492   4.557   1.326  4.5062 -1.2872 -0.1216
 3276TIP3   OH231318   2.959   6.615   5.120 -0.2431 -0.2547  0.0790
 3276TIP3    H131319   2.993   6.530   5.091  0.1339 -0.8894  2.3554
 3276TIP3    H231320   3.007   6.679   5.066  1.5252 -1.3463  0.3262
 3277TIP3   OH231321   6.266   4.601   1.638 -0.0905  0.2585  0.1069
 3277TIP3    H131322   6.284   4.564   1.724 -0.8042 -0.6756 -0.1337
 3277TIP3    H231323   6.210   4.677   1.657  0.7622  0.7868  0.5470
 3278TIP3   OH231324   2.645   5.594  14.239 -0.6096  0.7607  0.4451
 3278TIP3    H131325   2.666   5.591  14.145 -0.8109  1.8917  0.3631
 3278TIP3    H231326   2.648   5.502  14.266 -4.3607 -0.0430 -1.5108
 3279TIP3   OH231327   1.998   6.503   6.969  0.2194 -0.0341 -0.0680
 3279TIP3    H131328   2.064   6.568   6.947 -0.4710  0.5294 -0.4589
 3279TIP3    H231329   1.945   6.544   7.037  0.9378 -0.9042  1.0495
 3280TIP3   OH231330   4.580   5.683  11.615  0.0226  0.4823 -0.1123
 3280TIP3    H131331   4.644   5.747  11.583  1.2693 -0.1336  1.0891
 3280TIP3    H231332   4.564   5.708  11.706 -0.0523 -0.4704  0.1404
 3281TIP3   OH231333   4.336   4.300  13.884 -0.9451 -0.3628  0.1744
 3281TIP3    H131334   4.350   4.322  13.792 -1.1861  1.0314  0.4522
 3281TIP3    H231335   4.407   4.241  13.907 -0.6084 -0.3209 -0.7757
 3282TIP3   OH231336   6.169   4.373  15.533  0.0160 -0.4052 -0.5197
 3282TIP3    H131337   6.205   4.338  15.451  0.1818  0.6494 -0.9111
 3282TIP3    H231338   6.231   4.345  15.600  0.7335  0.0543 -0.9762
 3283TIP3   OH231339   5.625   5.095   4.501 -0.1969 -0.4164 -0.5862
 3283TIP3    H131340   5.708   5.114   4.544 -0.2026 -0.9426 -0.3374
 3283TIP3    H231341   5.565   5.161   4.536  0.0517 -0.1958 -0.5712
 3284TIP3   OH231342   6.356   2.016  15.328 -0.2141  0.2583 -0.0162
 3284TIP3    H131343   6.420   1.962  15.283  0.7557  0.6210  0.9103
 3284TIP3    H231344   6.405   2.059  15.398 -1.0952  1.8795 -0.3552
 3285TIP3   OH231345   5.056   1.944  16.903 -0.1968 -0.0653 -0.8042
 3285TIP3    H131346   5.105   2.026  16.913 -0.2439  0.1781 -2.5050
 3285TIP3    H231347   5.056   1.927  16.809 -0.6149 -1.7695 -0.5108
 3286TIP3   OH231348   1.681   3.799  13.053  0.4028 -0.7289  0.3942
 3286TIP3    H131349   1.706   3.856  12.980  3.1724 -2.3260  0.0477
 3286TIP3    H231350   1.620   3.853  13.105  3.2895  2.8087  0.3598
 3287TIP3   OH231351   3.993   1.494   6.171  0.1700 -0.1483 -0.1286
 3287TIP3    H131352   4.087   1.514   6.172  0.2863 -0.6687 -0.4180
 3287TIP3    H231353   3.984   1.425   6.105 -0.2012 -1.1954  1.0003
 3288TIP3   OH231354   6.152   6.181  15.993 -0.1477 -0.3910 -0.3048
 3288TIP3    H131355   6.154   6.111  15.928 -0.9512 -0.7210  0.0253
 3288TIP3    H231356   6.216   6.154  16.059  2.8290  1.3395 -2.3657
 3289TIP3   OH231357   3.652   6.560  12.761 -0.3274 -0.0987  0.3921
 3289TIP3    H131358   3.558   6.578  12.759 -0.5997 -1.3345  1.4352
 3289TIP3    H231359   3.670   6.519  12.677 -0.4488  1.3636 -0.3698
 3290TIP3   OH231360   4.905   6.550  15.014  0.7013 -0.5414  0.1665
 3290TIP3    H131361   4.986   6.512  15.049  0.6236 -0.5494  0.3440
 3290TIP3    H231362   4.877   6.488  14.946  0.9793 -0.4051 -0.0697
 3291TIP3   OH231363   1.271   1.504  14.104 -0.4735  0.6397 -0.2656
 3291TIP3    H131364   1.305   1.587  14.071  0.8597  0.4092  0.5343
 3291TIP3    H231365   1.209   1.529  14.172  0.0652  0.9682  0.1025
 3292TIP3   OH231366   0.153   0.703  16.096  0.3014 -0.3519  0.1185
 3292TIP3    H131367   0.202   0.647  16.156 -2.1659 -0.1273  2.4203
 3292TIP3    H231368   0.119   0.773  16.151  0.6433  1.6732 -2.1466
 3293TIP3   OH231369   2.073   0.390  15.896  0.1552  0.0855  0.1784
 3293TIP3    H131370   2.011   0.320  15.875 -0.6663  0.4315  1.3877
 3293TIP3    H231371   2.151   0.345  15.929  1.0130 -0.4096 -2.3922
 3294TIP3   OH231372   1.688   5.566  10.900 -0.3195  0.2974  0.0240
 3294TIP3    H131373   1.611   5.623  10.905  0.0769  0.7450  1.2131
 3294TIP3    H231374   1.688   5.534  10.810 -3.3554 -1.7695  0.7065
 3295TIP3   OH231375   5.668   6.389  14.630  0.5401  0.4292 -0.2739
 3295TIP3    H131376   5.645   6.315  14.573 -0.5389  0.9653 -0.5450
 3295TIP3    H231377   5.710   6.348  14.706 -2.7590 -0.7306  0.9851
 3296TIP3   OH231378   1.085   4.120   5.515  0.2001  0.1556 -0.0353
 3296TIP3    H131379   1.035   4.185   5.465 -1.4794 -0.9530  0.1532
 3296TIP3    H231380   1.173   4.122   5.477 -0.1513  1.6862 -0.8121
 3297TIP3   OH231381   4.589   6.797   5.108  0.3926 -0.1943  0.1611
 3297TIP3    H131382   4.591   6.773   5.015 -0.6445 -1.0219  0.3459
 3297TIP3    H231383   4.517   6.860   5.115  0.2326 -0.4107  0.4687
 3298TIP3   OH231384   1.279   5.630  16.966 -0.0818 -0.2183 -0.3620
 3298TIP3    H131385   1.298   5.572  16.892  0.5928  0.8116 -1.0072
 3298TIP3    H231386   1.230   5.575  17.027  2.9252 -2.2969  0.3050
 3299TIP3   OH231387   3.995   3.810  15.250  1.0693  0.3855  0.4909
 3299TIP3    H131388   4.031   3.722  15.252  2.4171  0.9142  0.2059
 3299TIP3    H231389   4.001   3.836  15.157 -1.0981  0.0664  0.2331
 3300TIP3   OH231390   1.471   0.646   5.088  0.7702  0.0441 -0.0206
 3300TIP3    H131391   1.561   0.678   5.099  0.9945 -0.2195 -1.0056
 3300TIP3    H231392   1.466   0.622   4.995 -0.5639  0.8100 -0.1642
 3301TIP3   OH231393   6.768   2.431   6.067  0.2389 -0.0170 -0.2523
 3301TIP3    H131394   6.815   2.474   6.139  0.5140 -1.0975  0.2146
 3301TIP3    H231395   6.705   2.373   6.109  1.1095 -1.4426 -0.8666
 3302TIP3   OH231396   4.206   1.228   4.233  0.1464 -0.4518 -0.4879
 3302TIP3    H131397   4.151   1.275   4.295 -0.7421  0.2513 -1.7659
 3302TIP3    H231398   4.150   1.157   4.201  0.4165 -0.5087 -0.8444
 3303TIP3   OH231399   5.680   1.009   6.134 -0.5943 -0.1496  0.1831
 3303TIP3    H131400   5.641   1.058   6.061  2.4848 -1.7417 -2.6862
 3303TIP3    H231401   5.627   0.930   6.142 -2.0573  0.8884  0.9484
 3304TIP3   OH231402   3.684   4.015  12.406 -0.6250  0.1429  0.1364
 3304TIP3    H131403   3.712   3.931  12.441  1.5215  0.7264 -0.1026
 3304TIP3    H231404   3.604   3.996  12.358 -1.7077 -1.2609  2.4324
 3305TIP3   OH231405   3.644   3.611  12.222  0.1627 -0.2324  0.5328
 3305TIP3    H131406   3.716   3.555  12.252  1.2329  0.2025 -1.1687
 3305TIP3    H231407   3.589   3.622  12.299  2.5685  0.4322  2.1991
 3306TIP3   OH231408   0.598   2.034   0.513 -0.1635 -0.4255  0.0255
 3306TIP3    H131409   0.514   2.008   0.476 -0.2731 -0.3435  0.2153
 3306TIP3    H231410   0.663   2.006   0.448 -0.4400  0.8218 -0.7973
 3307TIP3   OH231411   1.775   6.588   6.022  0.2524  0.3987  0.1712
 3307TIP3    H131412   1.747   6.678   6.008 -0.2298  0.5721  2.0956
 3307TIP3    H231413   1.870   6.591   6.015  0.1720  0.8176 -0.9515
 3308TIP3   OH231414   5.855   5.604   1.701  0.0102 -0.1453  0.5180
 3308TIP3    H131415   5.855   5.562   1.787 -1.4269  0.2051  0.7110
 3308TIP3    H231416   5.947   5.614   1.678  0.4039 -4.0941  0.1219
 3309TIP3   OH231417   5.189   1.553  11.608 -0.1481  0.3403 -0.5222
 3309TIP3    H131418   5.212   1.528  11.518 -0.7455 -0.9334 -0.3280
 3309TIP3    H231419   5.256   1.513  11.662 -0.8594 -0.4980 -0.2462
 3310TIP3   OH231420   0.196   5.297  13.533 -0.6576 -0.0687  0.1479
 3310TIP3    H131421   0.241   5.375  13.502 -0.4113 -0.0395  0.5726
 3310TIP3    H231422   0.253   5.262  13.601 -1.2414 -0.0714  0.6404
 3311TIP3   OH231423   0.222   3.914   1.004  0.8748  0.0202 -0.0679
 3311TIP3    H131424   0.236   3.909   0.909  4.1803  1.6888  0.2778
 3311TIP3    H231425   0.303   3.882   1.042  1.0994  3.0968  2.1627
 3312TIP3   OH231426   6.682   1.411   0.574  0.3111 -0.0026 -0.7155
 3312TIP3    H131427   6.611   1.475   0.565 -0.1273 -0.3286  0.3114
 3312TIP3    H231428   6.644   1.341   0.627  1.4919 -0.0646  0.0512
 3313TIP3   OH231429   4.445   4.889  16.219  0.2777 -0.3448  1.3165
 3313TIP3    H131430   4.404   4.836  16.287  0.0802 -1.5901  0.2359
 3313TIP3    H231431   4.534   4.905  16.251  0.7063 -2.2870  1.1257
 3314TIP3   OH231432   5.217   3.689   5.597  0.8580  0.0878  0.2714
 3314TIP3    H131433   5.252   3.607   5.562  1.8254  1.1305 -1.2717
 3314TIP3    H231434   5.204   3.672   5.691 -1.0180 -2.5080 -0.4012
 3315TIP3   OH231435   6.612   3.311   2.743 -0.2556  0.1527  0.0996
 3315TIP3    H131436   6.524   3.286   2.716  0.2965 -1.9642  0.1475
 3315TIP3    H231437   6.669   3.274   2.676  0.7391 -0.6189  1.3283
 3316TIP3   OH231438   4.104   4.125  16.016  0.0503  0.2833  0.2483
 3316TIP3    H131439   4.049   4.060  15.971  2.1065 -0.9752 -0.5019
 3316TIP3    H231440   4.066   4.132  16.104 -0.6516 -1.3810  0.0972
 3317TIP3   OH231441   4.182   5.049   0.113  0.2415 -0.0371  0.7482
 3317TIP3    H131442   4.119   5.105   0.158  0.9600  0.5116  1.0740
 3317TIP3    H231443   4.207   4.984   0.179  0.0365 -0.2369  0.6283
 3318TIP3   OH231444   5.236   2.626   3.965  0.1753 -0.5833  0.3513
 3318TIP3    H131445   5.298   2.581   3.908 -1.6104 -2.6327 -0.0391
 3318TIP3    H231446   5.182   2.556   4.001 -1.3128  1.0762  1.4093
 3319TIP3   OH231447   5.282   1.456  14.789 -0.4690  0.3299 -0.3793
 3319TIP3    H131448   5.361   1.497  14.823 -0.2969  0.7823 -1.3107
 3319TIP3    H231449   5.312   1.378  14.742 -0.3549  1.5557 -2.4331
 3320TIP3   OH231450   0.848   1.567   0.564 -0.7734  0.9719  0.1282
 3320TIP3    H131451   0.798   1.502   0.613 -2.6844  1.8260 -0.6380
 3320TIP3    H231452   0.906   1.516   0.507 -2.6087 -0.1027 -0.8324
 3321TIP3   OH231453   3.848   4.693  16.753 -0.2149  0.7459 -0.0485
 3321TIP3    H131454   3.923   4.737  16.793  0.2174 -0.4734  0.5060
 3321TIP3    H231455   3.884   4.651  16.675 -0.6221  1.3437 -0.5627
 3322TIP3   OH231456   2.190   1.698   5.430 -0.3988 -0.2864 -0.5981
 3322TIP3    H131457   2.285   1.700   5.428 -0.3910 -0.5056 -0.4489
 3322TIP3    H231458   2.168   1.631   5.495 -0.6993  3.4733  3.3883
 3323TIP3   OH231459   3.883   2.090  11.830 -0.0116  0.3075  0.1939
 3323TIP3    H131460   3.838   2.130  11.756  1.5072  1.4938 -0.1163
 3323TIP3    H231461   3.957   2.044  11.792  0.0684 -0.1351  0.8646
 3324TIP3   OH231462   1.603   5.137   5.597  0.1308  0.6777 -0.3334
 3324TIP3    H131463   1.619   5.163   5.688 -0.3651  1.0446 -0.3466
 3324TIP3    H231464   1.679   5.085   5.573  0.6056  1.1835  0.0616
 3325TIP3   OH231465   3.038   6.319   3.828 -0.1232  0.3480 -0.4106
 3325TIP3    H131466   3.074   6.272   3.903 -2.2425 -1.0596 -0.2284
 3325TIP3    H231467   3.114   6.355   3.783  1.2576  0.1219  1.6856
 3326TIP3   OH231468   4.634   0.742  15.884 -0.3272  0.2030 -0.0541
 3326TIP3    H131469   4.690   0.667  15.903 -0.7841  0.3188  1.8899
 3326TIP3    H231470   4.694   0.812  15.859  0.2784 -0.1594  0.3776
 3327TIP3   OH231471   3.129   4.922  12.720 -0.1151  0.8037  0.1626
 3327TIP3    H131472   3.218   4.946  12.745 -0.3571 -0.3301  2.2364
 3327TIP3    H231473   3.075   4.946  12.796 -1.0512 -1.6845  0.3239
 3328TIP3   OH231474   3.688   6.764  11.756 -0.3999  0.1771  0.0540
 3328TIP3    H131475   3.702   6.848  11.712 -0.6074  0.0390 -0.2796
 3328TIP3    H231476   3.596   6.743  11.739 -0.8708  0.8160  1.7582
 3329TIP3   OH231477   4.974   1.389   5.825 -0.1535 -0.5599  0.1357
 3329TIP3    H131478   4.960   1.295   5.817 -1.5171 -0.2168 -1.9650
 3329TIP3    H231479   4.887   1.425   5.842  0.4676  0.2630  1.6312
 3330TIP3   OH231480   0.020   2.382  12.094 -0.7618 -0.3507 -0.5922
 3330TIP3    H131481   0.081   2.372  12.166  2.1221  2.6490 -2.4685
 3330TIP3    H231482   0.010   2.294  12.057  0.7339 -1.2300  1.0548
 3331TIP3   OH231483   3.421   0.963  13.039 -0.2802 -0.3499 -0.3409
 3331TIP3    H131484   3.334   0.994  13.014 -0.4742 -0.9520 -0.4348
 3331TIP3    H231485   3.459   0.933  12.956 -0.3575 -0.9809 -0.1506
 3332TIP3   OH231486   4.516   4.497  11.381  0.3893 -0.0145 -0.5218
 3332TIP3    H131487   4.561   4.528  11.303  1.1338  3.0134  1.0496
 3332TIP3    H231488   4.528   4.566  11.446 -1.5900 -1.7232  1.7929
 3333TIP3   OH231489   0.641   3.267  16.721  0.6439 -0.1182 -0.1129
 3333TIP3    H131490   0.688   3.342  16.685  3.0528 -1.6651 -0.3134
 3333TIP3    H231491   0.574   3.246  16.656  0.1352  1.6621 -0.1822
 3334TIP3   OH231492   3.935   3.662  13.450 -0.0866 -0.0236  0.5847
 3334TIP3    H131493   3.989   3.614  13.512 -0.3728  0.0886  0.9228
 3334TIP3    H231494   3.873   3.597  13.417 -0.2042  0.0125  0.7310
 3335TIP3   OH231495   1.060   3.626   6.334 -0.0698  0.6616 -0.0245
 3335TIP3    H131496   1.081   3.564   6.264  0.3990  2.7371 -1.7933
 3335TIP3    H231497   0.965   3.636   6.331 -0.3639 -1.3033  1.4873
 3336TIP3   OH231498   1.220   6.711  10.270  0.0246  0.4581 -0.4527
 3336TIP3    H131499   1.217   6.739  10.362  1.5057 -2.2333  0.4818
 3336TIP3    H231500   1.257   6.786  10.223  0.2210  1.4900  1.3010
 3337TIP3   OH231501   2.150   2.006   2.418  0.1065 -0.2548  0.5134
 3337TIP3    H131502   2.093   1.929   2.419 -0.9238  0.4907 -0.0877
 3337TIP3    H231503   2.210   1.990   2.345  0.5469 -0.9549  1.0278
 3338TIP3   OH231504   1.318   6.241   0.756 -0.5273  0.3042 -0.4932
 3338TIP3    H131505   1.393   6.184   0.740 -2.2855 -2.1572 -0.2844
 3338TIP3    H231506   1.282   6.258   0.669 -1.7532 -1.4245 -0.3569
 3339TIP3   OH231507   0.021   3.302   5.902  0.1321  0.7348  0.1947
 3339TIP3    H131508  -0.020   3.379   5.941 -0.4150 -0.1010  1.2716
 3339TIP3    H231509   0.115   3.316   5.916  0.1164  1.7405 -0.6117
 3340TIP3   OH231510   4.703   2.866  14.255 -0.4161 -0.2883  0.6355
 3340TIP3    H131511   4.762   2.921  14.205 -2.1996  1.6572  0.5950
 3340TIP3    H231512   4.633   2.843  14.193 -0.7443 -0.8932  1.2179
 3341TIP3   OH231513   1.125   4.136  16.740  0.2396 -0.3005  0.4440
 3341TIP3    H131514   1.053   4.199  16.749  0.5775  0.1224  0.2402
 3341TIP3    H231515   1.086   4.062  16.694 -0.0407 -0.0247  0.2323
 3342TIP3   OH231516   1.850   4.237  12.469 -0.0407  0.1655  0.0864
 3342TIP3    H131517   1.885   4.148  12.470 -2.5441 -0.8499  1.3054
 3342TIP3    H231518   1.859   4.264  12.378  0.6873 -1.3588 -0.3210
 3343TIP3   OH231519   1.275   0.901   2.400  0.3625  0.6160 -0.4152
 3343TIP3    H131520   1.246   0.957   2.328 -0.5761  0.5089 -0.1265
 3343TIP3    H231521   1.208   0.912   2.467  1.5351  1.1500  0.6750
 3344TIP3   OH231522   5.824   2.524   4.731  0.0032  0.3607  0.7455
 3344TIP3    H131523   5.750   2.585   4.723 -1.4456 -1.0650  2.6422
 3344TIP3    H231524   5.819   2.493   4.822  0.6262 -2.6162 -0.1711
 3345TIP3   OH231525   5.839   2.393   2.329  1.6510  0.3556 -0.1411
 3345TIP3    H131526   5.792   2.322   2.285  1.2121  0.0547  0.7916
 3345TIP3    H231527   5.917   2.352   2.365  0.2159 -0.1951  2.4501
 3346TIP3   OH231528   3.530   3.130  13.687 -0.3579 -0.0083 -0.3092
 3346TIP3    H131529   3.530   3.225  13.676  0.6336  0.1351  0.8517
 3346TIP3    H231530   3.603   3.099  13.634  0.5055  0.0716  0.8209
 3347TIP3   OH231531   5.620   3.150  12.715 -0.1352 -0.5384 -0.1911
 3347TIP3    H131532   5.683   3.115  12.778 -0.8879 -0.8214  0.4178
 3347TIP3    H231533   5.596   3.236  12.749  1.0712  0.2293 -1.2389
 3348TIP3   OH231534   2.965   2.688   1.546  0.8109 -0.1697  0.3919
 3348TIP3    H131535   3.059   2.699   1.537  0.4514  1.5418 -1.5591
 3348TIP3    H231536   2.942   2.622   1.481  0.7661 -1.2552  1.4869
 3349TIP3   OH231537   1.908   1.777  17.269  0.2401 -0.7438  0.1058
 3349TIP3    H131538   1.907   1.850  17.207 -3.0303  0.9245  1.9891
 3349TIP3    H231539   1.876   1.702  17.218  0.6286 -0.1459 -1.0387
 3350TIP3   OH231540   0.558   2.757   2.492  0.2832 -0.0736  0.7887
 3350TIP3    H131541   0.629   2.699   2.519  0.5617  0.6067  1.5617
 3350TIP3    H231542   0.596   2.813   2.424  0.7206  0.7783  1.7118
 3351TIP3   OH231543   6.539   6.134   4.296 -0.6811  0.5519 -0.8162
 3351TIP3    H131544   6.491   6.144   4.378  0.5552 -0.3471  0.0424
 3351TIP3    H231545   6.631   6.140   4.321 -0.1972 -2.2864 -1.7181
 3352TIP3   OH231546   3.360   5.958   1.424  0.7300  0.4300 -0.0874
 3352TIP3    H131547   3.293   6.005   1.473  1.2185  0.4123  0.6206
 3352TIP3    H231548   3.431   5.945   1.488  1.4879  0.6433 -0.8815
 3353TIP3   OH231549   3.009   4.448   1.233 -0.0272  0.4981 -0.1530
 3353TIP3    H131550   3.034   4.391   1.160  1.8303  0.4038  0.5301
 3353TIP3    H231551   2.917   4.428   1.249  0.2651 -1.3952 -0.7357
 3354TIP3   OH231552   2.199   4.406  14.279 -0.0412 -0.2369 -0.0391
 3354TIP3    H131553   2.198   4.361  14.194  0.1493 -2.0460  0.9120
 3354TIP3    H231554   2.149   4.486  14.263  0.6130 -0.1830 -2.0580
 3355TIP3   OH231555   3.985   6.195   2.385  0.3680  0.0782  0.2726
 3355TIP3    H131556   4.017   6.169   2.299 -1.9398  0.6570 -0.7981
 3355TIP3    H231557   4.005   6.288   2.392 -0.1257  0.2059  0.0284
 3356TIP3   OH231558   0.868   2.239   5.788  0.4564 -0.2057 -0.2112
 3356TIP3    H131559   0.926   2.280   5.723 -1.0970  0.8852 -0.9428
 3356TIP3    H231560   0.780   2.251   5.752 -0.2836 -1.2206  1.2266
 3357TIP3   OH231561   3.481   5.006  11.939 -0.2249  0.4365  0.4599
 3357TIP3    H131562   3.512   4.967  11.857  1.6797 -2.4117  2.4180
 3357TIP3    H231563   3.531   5.087  11.947  0.6075  0.0305 -0.5119
 3358TIP3   OH231564   5.112   6.102  13.836 -0.5264  0.7456 -0.1656
 3358TIP3    H131565   5.125   6.007  13.829  1.2552  1.0219 -0.8784
 3358TIP3    H231566   5.078   6.128  13.750 -0.3482  0.8434 -0.2076
 3359TIP3   OH231567   1.128   5.617   4.642 -0.1411  0.0987  0.1890
 3359TIP3    H131568   1.178   5.669   4.580 -1.2681  2.5552  1.2621
 3359TIP3    H231569   1.189   5.599   4.714  0.2796 -0.1894 -0.2344
 3360TIP3   OH231570   5.177   5.608  13.707 -0.5958 -0.0062  0.2482
 3360TIP3    H131571   5.106   5.622  13.769 -0.2435 -1.0619  0.9073
 3360TIP3    H231572   5.136   5.566  13.631 -0.6652 -0.6978  0.6662
 3361TIP3   OH231573   3.088   3.044   1.816  0.0438 -0.0879  0.6604
 3361TIP3    H131574   3.058   3.134   1.803 -2.9661 -0.7785  2.3609
 3361TIP3    H231575   3.012   2.990   1.796  1.4124 -2.2094  0.9679
 3362TIP3   OH231576   5.158   0.157  16.460 -0.2080  0.4409 -0.0756
 3362TIP3    H131577   5.132   0.199  16.542 -0.3626 -1.1426  0.7211
 3362TIP3    H231578   5.091   0.091  16.445  1.2699 -1.1314 -0.0094
 3363TIP3   OH231579   1.105   0.077  12.144 -0.1220  0.1121 -0.4444
 3363TIP3    H131580   1.044   0.130  12.092 -0.1356  0.2996 -0.2389
 3363TIP3    H231581   1.110   0.122  12.229 -0.4401 -0.4331 -0.1324
 3364TIP3   OH231582   0.947   1.723   0.174 -0.0257 -0.9304 -0.7549
 3364TIP3    H131583   1.033   1.728   0.217  0.0768 -1.9131 -0.8353
 3364TIP3    H231584   0.907   1.809   0.191  1.1797 -0.2678 -1.1564
 3365TIP3   OH231585   3.425   2.890   0.638 -0.1476  0.2829  0.3041
 3365TIP3    H131586   3.447   2.918   0.726  1.3877 -0.0876  0.0567
 3365TIP3    H231587   3.446   2.966   0.583  0.8461 -0.1696  0.0350
 3366TIP3   OH231588   3.210   2.009   2.339  0.3245  0.6359  0.0763
 3366TIP3    H131589   3.244   2.017   2.250 -1.8925 -1.1805 -0.9919
 3366TIP3    H231590   3.269   2.062   2.393  0.2619  3.8042 -2.8207
 3367TIP3   OH231591   0.219   0.658  10.972  0.2408  0.3788  0.3028
 3367TIP3    H131592   0.268   0.588  11.015  0.3916 -0.7246 -1.5946
 3367TIP3    H231593   0.197   0.719  11.042 -0.7444 -2.0484  2.1744
 3368TIP3   OH231594   0.669   5.136  16.580 -0.4196  0.0345 -0.1987
 3368TIP3    H131595   0.621   5.206  16.624 -1.2679 -0.4294 -0.3837
 3368TIP3    H231596   0.706   5.178  16.502 -1.1427  0.2188 -0.4486
 3369TIP3   OH231597   5.641   4.996  14.789  0.3885 -0.4383  0.1057
 3369TIP3    H131598   5.684   4.910  14.785  0.5941 -0.3924  1.0727
 3369TIP3    H231599   5.658   5.035  14.704  0.3694 -1.3249 -0.3100
 3370TIP3   OH231600   0.426   1.876   5.024  0.2597 -0.2209  0.4579
 3370TIP3    H131601   0.478   1.921   4.957 -1.8794  2.4355  0.5027
 3370TIP3    H231602   0.348   1.847   4.977  1.1389 -3.1342  0.6664
 3371TIP3   OH231603   6.417   3.066  15.047  0.0754  0.5721  0.3632
 3371TIP3    H131604   6.410   3.097  14.957 -1.0068  0.3845  0.3694
 3371TIP3    H231605   6.416   3.146  15.100 -0.4264  0.6383  0.2597
 3372TIP3   OH231606   0.431   6.743   5.802  0.2458  0.4037  0.2389
 3372TIP3    H131607   0.397   6.661   5.838 -0.4593  0.3903 -0.4499
 3372TIP3    H231608   0.402   6.743   5.711 -1.0136  2.1089  0.6265
 3373TIP3   OH231609   6.426   2.952   6.454  0.0855  0.0571 -0.4433
 3373TIP3    H131610   6.333   2.943   6.432  0.0136  1.9006 -1.0367
 3373TIP3    H231611   6.435   2.912   6.540 -1.3567  0.2980 -0.1775
 3374TIP3   OH231612   1.108   4.817  12.137 -0.0250 -0.0007 -1.0614
 3374TIP3    H131613   1.129   4.850  12.224  0.8326  1.3583 -1.7693
 3374TIP3    H231614   1.035   4.757  12.151  2.0508 -2.1689  1.0272
 3375TIP3   OH231615   1.645   1.932   4.412 -0.1088 -0.0924  0.0432
 3375TIP3    H131616   1.595   1.987   4.352 -0.0931 -0.0750  0.0463
 3375TIP3    H231617   1.664   1.853   4.362 -0.1701 -0.1140  0.0541
 3376TIP3   OH231618   1.854   5.026   5.609  0.0504 -0.0929  0.2522
 3376TIP3    H131619   1.870   5.038   5.702  1.5002 -0.0515  0.0207
 3376TIP3    H231620   1.882   4.936   5.591 -0.5715 -0.2252 -0.0763
 3377TIP3   OH231621   1.594   3.571  14.740 -0.1364  0.5215  0.5050
 3377TIP3    H131622   1.620   3.583  14.649 -0.0837 -0.6362  0.3609
 3377TIP3    H231623   1.504   3.540  14.736  0.5150 -1.4869  0.7455
 3378TIP3   OH231624   1.949   3.539  13.298 -0.6694  0.0259 -0.4606
 3378TIP3    H131625   1.924   3.481  13.370  0.0015 -0.2484 -0.4429
 3378TIP3    H231626   1.883   3.608  13.299  1.0896  1.7624  2.4125
 3379TIP3   OH231627   0.863   3.043   1.883 -0.4763 -0.2805  0.4736
 3379TIP3    H131628   0.817   3.121   1.850 -0.5225 -1.0226 -1.2843
 3379TIP3    H231629   0.944   3.077   1.919 -0.1707  0.5390 -0.9314
 3380TIP3   OH231630   3.061   3.004  16.156 -0.1659  0.2178  0.2267
 3380TIP3    H131631   3.038   2.993  16.248  0.3705 -0.2611  0.3057
 3380TIP3    H231632   3.070   2.914  16.123 -1.0203  0.3775 -0.4642
 3381TIP3   OH231633   6.783   6.053   6.114 -0.1039 -0.1881 -0.2557
 3381TIP3    H131634   6.732   6.062   6.034  0.8564  0.1532 -0.8301
 3381TIP3    H231635   6.738   6.108   6.178 -0.0468  0.6688 -0.9559
 3382TIP3   OH231636   5.201   3.863  16.094 -0.2571 -0.3982 -0.0726
 3382TIP3    H131637   5.268   3.798  16.115 -0.2593 -0.1592  0.6576
 3382TIP3    H231638   5.118   3.818  16.109 -0.2966 -1.0340 -1.9580
 3383TIP3   OH231639   4.745   6.313  16.144  0.5670  0.5421 -0.2954
 3383TIP3    H131640   4.680   6.341  16.080  0.1845  0.4715  0.0617
 3383TIP3    H231641   4.730   6.219  16.155  0.4152  0.6151  0.1410
 3384TIP3   OH231642   4.184   3.228  16.566  0.0051  0.2802 -0.0087
 3384TIP3    H131643   4.190   3.207  16.659 -0.1705 -0.3742 -0.1443
 3384TIP3    H231644   4.249   3.172  16.524 -1.1912 -0.7611 -0.4926
 3385TIP3   OH231645   3.598   4.787  13.643 -0.7576 -0.1333 -0.0334
 3385TIP3    H131646   3.598   4.773  13.548  0.1847  0.0175 -0.0610
 3385TIP3    H231647   3.679   4.835  13.660 -1.2950  0.5124  0.7519
 3386TIP3   OH231648   2.795   3.040  16.812  0.4135  0.9639  0.4881
 3386TIP3    H131649   2.847   2.978  16.761 -0.1543  1.1743 -0.3489
 3386TIP3    H231650   2.743   3.088  16.747 -0.9167  0.6734  1.3196
 3387TIP3   OH231651   0.175   5.443   5.291  0.6005 -0.1644 -0.6581
 3387TIP3    H131652   0.180   5.519   5.349 -1.3008 -0.3476 -0.2086
 3387TIP3    H231653   0.217   5.373   5.340  2.1137  0.5325 -0.9562
 3388TIP3   OH231654   2.694   5.712   6.302  0.7433  0.2937 -0.0394
 3388TIP3    H131655   2.621   5.730   6.244  1.2683  1.4576 -0.3490
 3388TIP3    H231656   2.751   5.652   6.252  1.1833  1.2719 -0.7216
 3389TIP3   OH231657   3.642   2.403  11.339  0.6410 -0.1855 -0.4442
 3389TIP3    H131658   3.722   2.432  11.381  0.7264  1.8638 -1.9548
 3389TIP3    H231659   3.666   2.387  11.248 -0.2301 -1.5094 -0.4657
 3390TIP3   OH231660   6.204   1.188  13.778  0.2850 -0.0504 -0.0987
 3390TIP3    H131661   6.157   1.198  13.695  2.7664  2.3283 -1.3022
 3390TIP3    H231662   6.272   1.122  13.760 -0.5463 -1.1535  0.7143
 3391TIP3   OH231663   4.937   2.502  13.740 -0.1242 -0.2571 -0.0712
 3391TIP3    H131664   4.868   2.515  13.674  1.4676  3.5416 -1.1356
 3391TIP3    H231665   5.003   2.450  13.695  0.1886  0.8678 -0.9279
 3392TIP3   OH231666   3.716   1.634  15.924  0.2947  0.3075 -0.3701
 3392TIP3    H131667   3.798   1.607  15.884  1.4619 -0.5821  2.4698
 3392TIP3    H231668   3.649   1.615  15.858  2.3672  1.3576 -2.8434
 3393TIP3   OH231669   0.648   0.784   5.192  0.2480 -0.3559 -0.2794
 3393TIP3    H131670   0.634   0.774   5.286  1.1418 -0.8030 -0.1891
 3393TIP3    H231671   0.566   0.755   5.152 -0.6734  1.2152  0.4136
 3394TIP3   OH231672   1.560   5.047  12.192 -0.6705  0.2126  0.3026
 3394TIP3    H131673   1.607   5.127  12.169 -1.1267  0.0152 -1.3267
 3394TIP3    H231674   1.503   5.029  12.117 -1.7932 -0.7296  1.3537
 3395TIP3   OH231675   1.056   0.638   3.595  0.4186 -0.0687 -0.2867
 3395TIP3    H131676   1.019   0.691   3.665  2.1693  0.4023  0.3007
 3395TIP3    H231677   1.045   0.548   3.625 -1.0169  0.0092 -0.5242
 3396TIP3   OH231678   4.191   3.057  11.456 -0.0789 -0.1154  0.0760
 3396TIP3    H131679   4.246   3.034  11.531 -1.1073 -1.1509  0.5212
 3396TIP3    H231680   4.155   3.143  11.479 -0.7735 -0.6365  1.0115
 3397TIP3   OH231681   6.202   5.260  12.931 -0.2950 -0.7397  0.0754
 3397TIP3    H131682   6.232   5.323  12.866 -1.6167 -1.0048 -0.8231
 3397TIP3    H231683   6.215   5.174  12.890 -0.7301 -0.9276  0.3202
 3398TIP3   OH231684   5.112   5.080  13.381  0.4020 -0.1006  0.0975
 3398TIP3    H131685   5.053   5.149  13.350  1.9726  2.0890  1.8284
 3398TIP3    H231686   5.137   5.033  13.301 -1.1825  0.9239 -1.0400
 3399TIP3   OH231687   6.042   2.896  10.330  0.3264  0.4182  0.2848
 3399TIP3    H131688   6.037   2.991  10.344  0.4547  0.3827  0.5843
 3399TIP3    H231689   5.999   2.859  10.407  0.9535  0.2147  0.5404
 3400TIP3   OH231690   0.802   6.787  16.684 -0.5710  0.1313 -0.6695
 3400TIP3    H131691   0.896   6.773  16.671  0.0979  2.2170  1.4025
 3400TIP3    H231692   0.764   6.700  16.680  1.5640 -0.8368 -0.7862
 3401TIP3   OH231693   5.314   6.300   5.547  0.2344 -0.4132 -0.0589
 3401TIP3    H131694   5.370   6.258   5.612  0.6070 -1.5427 -1.0846
 3401TIP3    H231695   5.232   6.319   5.593 -0.6179 -3.8994 -0.0105
 3402TIP3   OH231696   0.585   2.483  12.227  0.1938  0.4413 -0.1702
 3402TIP3    H131697   0.614   2.483  12.135 -2.0686  1.0299 -0.9257
 3402TIP3    H231698   0.628   2.560  12.265  0.6371  0.5665 -0.9025
 3403TIP3   OH231699   3.239   3.055   3.411  1.0428 -0.3341 -0.1413
 3403TIP3    H131700   3.324   3.049   3.456  0.5780  1.7861  1.0454
 3403TIP3    H231701   3.258   3.029   3.321  3.1428  0.9378 -0.0969
 3404TIP3   OH231702   6.668   1.942   0.967  0.2336 -0.5962  0.6047
 3404TIP3    H131703   6.746   1.921   1.019  0.3910 -2.2130 -0.2542
 3404TIP3    H231704   6.597   1.950   1.031  1.1138  1.0270  1.4056
 3405TIP3   OH231705   2.182   6.065   0.942  0.3514  0.5234  0.1082
 3405TIP3    H131706   2.234   6.021   1.010  1.0395  1.5681  0.2767
 3405TIP3    H231707   2.106   6.100   0.989  0.9298  1.4231  0.4006
 3406TIP3   OH231708   4.503   5.169   6.044 -0.2779  0.2509  0.0314
 3406TIP3    H131709   4.468   5.135   6.126  1.0272 -0.2066  0.4235
 3406TIP3    H231710   4.510   5.093   5.987 -3.0307  0.8734 -1.2343
 3407TIP3   OH231711   2.560   6.058  14.548 -0.5783 -0.5969 -0.4369
 3407TIP3    H131712   2.654   6.059  14.532 -0.2721  0.0894  1.3399
 3407TIP3    H231713   2.541   5.970  14.580 -0.5492 -0.7425 -0.8198
 3408TIP3   OH231714   2.471   5.221   5.815 -0.0070  0.0621  0.1081
 3408TIP3    H131715   2.523   5.155   5.770  0.5142 -0.6158  1.6518
 3408TIP3    H231716   2.534   5.267   5.872 -0.5978  1.0449 -0.0139
 3409TIP3   OH231717   3.070   1.317  13.818  0.2221  0.0640 -0.2817
 3409TIP3    H131718   3.121   1.238  13.799 -1.7047 -1.0428 -0.9345
 3409TIP3    H231719   3.083   1.372  13.740  1.2532  0.2474  0.0103
 3410TIP3   OH231720   3.748   4.826  15.970 -0.3689  0.1623 -1.1130
 3410TIP3    H131721   3.791   4.772  16.037 -1.1567 -1.5505 -1.9589
 3410TIP3    H231722   3.735   4.910  16.013  0.3303 -0.5040  0.4600
 3411TIP3   OH231723   1.809   6.287   2.618  0.4500  0.1128  0.1144
 3411TIP3    H131724   1.851   6.245   2.544 -0.4550  1.3831 -1.1460
 3411TIP3    H231725   1.809   6.220   2.687 -0.3672 -1.7223 -1.6185
 3412TIP3   OH231726   4.360   3.609  10.343 -0.4171 -0.0271  0.1824
 3412TIP3    H131727   4.406   3.682  10.300 -0.0266 -1.3797 -1.7780
 3412TIP3    H231728   4.426   3.540  10.351 -1.1472 -0.6707  0.7193
 3413TIP3   OH231729   4.812   0.743   3.541  0.3204 -0.0556 -0.3298
 3413TIP3    H131730   4.790   0.731   3.448 -0.0227 -0.5520 -0.1904
 3413TIP3    H231731   4.905   0.765   3.541  1.2483 -3.7141 -0.5542
 3414TIP3   OH231732   4.256   4.270   5.087  0.2378  0.3101 -0.3018
 3414TIP3    H131733   4.193   4.265   5.159  1.2233  1.4538  0.6659
 3414TIP3    H231734   4.204   4.254   5.008 -0.7935 -1.2926  0.6855
 3415TIP3   OH231735   4.429   4.183  10.503 -0.2779  0.0529  0.1708
 3415TIP3    H131736   4.336   4.199  10.519 -0.5839 -0.5238 -1.0100
 3415TIP3    H231737   4.474   4.243  10.563 -1.4193  1.8108 -0.7010
 3416TIP3   OH231738   2.932   3.191   0.486  0.6038  0.3482 -0.3288
 3416TIP3    H131739   3.024   3.181   0.460  0.4927  0.5618 -0.8123
 3416TIP3    H231740   2.883   3.166   0.408  0.2374 -0.3949  0.1326
 3417TIP3   OH231741   6.507   1.262   2.564  0.1808 -0.2328 -0.1621
 3417TIP3    H131742   6.436   1.203   2.589  0.1422  0.0777  0.4788
 3417TIP3    H231743   6.465   1.347   2.552  0.1456 -0.4434 -1.6346
 3418TIP3   OH231744   1.387   5.207  12.023  0.2210 -0.3281 -0.0681
 3418TIP3    H131745   1.420   5.252  11.945  0.7283  1.2730  1.0700
 3418TIP3    H231746   1.304   5.168  11.994 -0.3167  1.4646 -1.0400
 3419TIP3   OH231747   1.889   6.337   0.193  0.1336  0.0350  0.5376
 3419TIP3    H131748   1.897   6.365   0.285 -1.3964  0.0993  0.6557
 3419TIP3    H231749   1.798   6.308   0.184 -0.3083  1.9117 -1.4695
 3420TIP3   OH231750   1.177   6.012  12.348 -0.1042 -0.1255  0.1159
 3420TIP3    H131751   1.142   6.075  12.411  0.9214 -0.7538  1.3259
 3420TIP3    H231752   1.115   5.938  12.352  0.4946 -0.5838  1.1283
 3421TIP3   OH231753   4.159   3.123   0.333 -0.2481  0.0510 -0.0317
 3421TIP3    H131754   4.117   3.174   0.402  0.9880  2.3247 -0.9044
 3421TIP3    H231755   4.099   3.050   0.317 -2.0685  1.2199  1.2735
 3422TIP3   OH231756   2.063   3.102   3.989 -0.4061 -0.1241  0.4683
 3422TIP3    H131757   1.990   3.158   3.965 -1.0268 -1.3926 -0.6563
 3422TIP3    H231758   2.139   3.142   3.948 -0.5986  0.7494  0.9652
 3423TIP3   OH231759   5.175   2.452  15.853 -0.3656 -0.1514 -0.0321
 3423TIP3    H131760   5.167   2.358  15.838  2.1371 -0.3375 -0.4013
 3423TIP3    H231761   5.266   2.472  15.833 -0.7988  2.3226  0.2808
 3424TIP3   OH231762   5.534   2.835   6.116 -0.6185  0.4428 -0.0474
 3424TIP3    H131763   5.588   2.815   6.040  1.2822  0.9753  1.1481
 3424TIP3    H231764   5.508   2.926   6.104 -2.9726 -0.3811 -1.6300
 3425TIP3   OH231765   5.855   5.184   5.406  0.1875 -0.4605  0.6693
 3425TIP3    H131766   5.864   5.269   5.449 -0.4970 -0.2438  0.3727
 3425TIP3    H231767   5.914   5.127   5.456 -0.3258 -0.1221  1.6750
 3426TIP3   OH231768   6.269   2.695   1.079 -0.1199  0.2296 -0.4312
 3426TIP3    H131769   6.296   2.612   1.041 -0.5966  0.3450 -1.0262
 3426TIP3    H231770   6.257   2.754   1.004  1.2101  1.1341  0.0519
 3427TIP3   OH231771   2.033   6.410  17.064 -0.1727 -0.5564 -0.3644
 3427TIP3    H131772   2.019   6.319  17.038  1.6623 -1.1113  0.4770
 3427TIP3    H231773   2.025   6.409  17.160 -0.7435  0.2771 -0.3970
 3428TIP3   OH231774   1.704   4.192  15.015 -0.1990 -0.3761  0.4623
 3428TIP3    H131775   1.783   4.200  14.961 -0.3838  1.8247  0.4493
 3428TIP3    H231776   1.683   4.099  15.013  1.1631 -0.6845 -1.3147
 3429TIP3   OH231777   6.307   4.201   1.612  0.1270  0.1782  0.3212
 3429TIP3    H131778   6.248   4.226   1.540  0.3279 -0.2562  0.0053
 3429TIP3    H231779   6.279   4.256   1.686 -0.2008  0.4944 -0.0350
 3430TIP3   OH231780   6.305   0.586  10.510 -0.2554 -0.7362 -0.0756
 3430TIP3    H131781   6.391   0.619  10.534 -1.1571  0.9684  0.9149
 3430TIP3    H231782   6.261   0.662  10.469 -0.6541 -2.0747 -2.2069
 3431TIP3   OH231783   0.977   0.903   5.513 -0.3894 -0.3484 -0.2133
 3431TIP3    H131784   1.043   0.933   5.576 -1.1270  0.0560  0.3702
 3431TIP3    H231785   1.026   0.894   5.431  0.7823 -1.7740  0.6094
 3432TIP3   OH231786   6.491   4.889   4.643 -0.2632  0.2834  0.0826
 3432TIP3    H131787   6.467   4.857   4.556 -0.2837 -0.5425  0.3927
 3432TIP3    H231788   6.433   4.843   4.703 -0.3271  0.9383  0.5347
 3433TIP3   OH231789   1.097   4.673   5.140  0.4331 -0.6296  0.0919
 3433TIP3    H131790   1.192   4.677   5.152  0.4586  0.6073 -0.4531
 3433TIP3    H231791   1.063   4.649   5.226  1.3065 -2.2204  0.0135
 3434TIP3   OH231792   3.009   1.902  15.069  0.3927 -0.5010 -0.6091
 3434TIP3    H131793   2.933   1.851  15.041 -0.3805  0.3900 -0.1420
 3434TIP3    H231794   3.013   1.889  15.163  0.5068 -0.1213 -0.5606
 3435TIP3   OH231795   2.115   6.439   2.032  0.2353  0.5728  0.0881
 3435TIP3    H131796   2.180   6.506   2.010  0.5068  0.4602  0.5373
 3435TIP3    H231797   2.157   6.356   2.009 -0.2118  0.5737 -0.7344
 3436TIP3   OH231798   1.727   5.310  14.896 -0.3992  0.1819 -0.3225
 3436TIP3    H131799   1.643   5.341  14.861 -0.9209  0.6183  1.2934
 3436TIP3    H231800   1.768   5.389  14.931 -0.4458 -0.4649  1.1975
 3437TIP3   OH231801   4.873   4.712   5.147  0.1336 -0.2077 -0.0937
 3437TIP3    H131802   4.853   4.623   5.175 -1.4518  0.7283  1.8813
 3437TIP3    H231803   4.882   4.705   5.051  1.0899 -2.6385  0.1290
 3438TIP3   OH231804   3.151   5.768  13.997  0.1830  0.4143  0.5016
 3438TIP3    H131805   3.238   5.729  14.008  0.2277  0.7895  1.5923
 3438TIP3    H231806   3.100   5.733  14.070 -0.2783  1.0220  0.4749
 3439TIP3   OH231807   3.463   2.001  16.239 -0.1006  0.2334 -0.4345
 3439TIP3    H131808   3.511   1.947  16.176 -0.4697 -0.4515 -0.1369
 3439TIP3    H231809   3.466   1.951  16.321 -0.1473  0.8296 -0.0659
 3440TIP3   OH231810   4.335   0.729   1.044 -0.3982 -0.3519 -0.4797
 3440TIP3    H131811   4.291   0.692   1.121 -0.0464 -0.4183 -0.3091
 3440TIP3    H231812   4.264   0.750   0.984 -0.5483 -2.0119 -0.9034
 3441TIP3   OH231813   3.815   4.960   0.807  0.0965  0.2784  0.7450
 3441TIP3    H131814   3.888   5.015   0.837  0.6996 -0.2074  0.1823
 3441TIP3    H231815   3.850   4.871   0.808  0.2942  0.2856 -1.8716
 3442TIP3   OH231816   0.227   0.768   3.762 -0.0620 -0.2325  0.7752
 3442TIP3    H131817   0.258   0.848   3.806 -0.0586  0.6617 -0.8271
 3442TIP3    H231818   0.133   0.784   3.748 -0.2452 -0.8875  1.2255
 3443TIP3   OH231819   1.779   4.234   0.383 -0.4223 -0.2257 -0.1518
 3443TIP3    H131820   1.822   4.176   0.320 -0.9556  0.1034 -0.8312
 3443TIP3    H231821   1.720   4.177   0.432 -0.9124 -0.2790 -0.7881
 3444TIP3   OH231822   2.690   5.513  12.473  0.4502 -0.4538 -0.0447
 3444TIP3    H131823   2.644   5.586  12.514  0.4641  0.1307 -1.0352
 3444TIP3    H231824   2.704   5.450  12.543 -0.2247  0.1773  0.6611
 3445TIP3   OH231825   3.340   0.997   5.613  0.4775 -0.7592  0.0134
 3445TIP3    H131826   3.418   1.050   5.625  1.4785 -2.0327 -0.7330
 3445TIP3    H231827   3.362   0.912   5.652 -0.9009 -0.8299  0.7006
 3446TIP3   OH231828   6.163   4.911   3.120 -0.7655  0.6272  0.1987
 3446TIP3    H131829   6.117   4.942   3.198 -3.4741  1.7156 -1.7439
 3446TIP3    H231830   6.164   4.987   3.061  0.8793 -0.2949 -1.0060
 3447TIP3   OH231831   6.047   0.228  15.080  0.7764 -0.1648 -0.0290
 3447TIP3    H131832   5.980   0.193  15.139  1.5105 -1.1973  0.2064
 3447TIP3    H231833   6.101   0.152  15.056  1.2192  0.4585 -1.0655
 3448TIP3   OH231834   0.662   5.680   6.056 -0.3265 -0.3696  0.2805
 3448TIP3    H131835   0.637   5.735   5.982 -0.2037 -1.0644 -0.2854
 3448TIP3    H231836   0.580   5.666   6.104 -0.6734 -1.0578 -0.4973
 3449TIP3   OH231837   3.428   5.829   3.268 -0.2809  0.5305 -0.1873
 3449TIP3    H131838   3.423   5.835   3.173  1.6662 -1.2602 -0.4323
 3449TIP3    H231839   3.407   5.738   3.288 -0.1346  0.7597  1.0557
 3450TIP3   OH231840   2.863   0.796   3.783 -0.3530  0.1773  0.3163
 3450TIP3    H131841   2.916   0.829   3.710 -2.1159  2.8235  0.1460
 3450TIP3    H231842   2.779   0.773   3.742 -1.3222  1.5934  1.4494
 3451TIP3   OH231843   5.870   3.098  15.348  0.0156  0.5841  0.3546
 3451TIP3    H131844   5.801   3.164  15.351 -0.0602  0.5155  0.1022
 3451TIP3    H231845   5.854   3.050  15.267  0.1984  0.3938  0.4319
 3452TIP3   OH231846   0.293   0.873   3.394  0.1194 -0.6201  0.0278
 3452TIP3    H131847   0.266   0.826   3.315 -0.6168 -1.7854  0.9680
 3452TIP3    H231848   0.384   0.845   3.408  0.0745 -0.8271 -0.0921
 3453TIP3   OH231849   0.172   5.674  16.223  0.0841  0.2624 -0.0617
 3453TIP3    H131850   0.179   5.700  16.131  2.0990 -2.3032 -0.6733
 3453TIP3    H231851   0.209   5.748  16.272  1.2489  0.6142 -1.4646
 3454TIP3   OH231852   2.103   1.389  11.705  0.8114  0.0745  0.1893
 3454TIP3    H131853   2.171   1.455  11.689  0.1083  0.5659 -0.8620
 3454TIP3    H231854   2.128   1.315  11.649 -0.3766  0.8891 -1.4870
 3455TIP3   OH231855   6.551   0.980  16.589  0.2126  0.1139  0.0723
 3455TIP3    H131856   6.624   1.039  16.568 -0.3114  0.6571 -0.2555
 3455TIP3    H231857   6.570   0.900  16.542  2.1242 -0.8292  2.3430
 3456TIP3   OH231858   1.322   1.133  16.892  1.0384  0.3778  0.0224
 3456TIP3    H131859   1.407   1.151  16.932  1.6189 -1.0196 -0.5291
 3456TIP3    H231860   1.336   1.150  16.799  0.3711  1.2896  0.0856
 3457TIP3   OH231861   0.139   0.611   4.394 -0.3739  0.0039  1.0523
 3457TIP3    H131862   0.072   0.679   4.398  0.0185  0.2856  3.2549
 3457TIP3    H231863   0.173   0.605   4.483  3.3008  0.6625 -0.2143
 3458TIP3   OH231864   3.459   1.899  15.736  0.1979 -0.0182 -0.4206
 3458TIP3    H131865   3.367   1.887  15.759 -0.2471  3.5017  0.0177
 3458TIP3    H231866   3.457   1.930  15.646  0.9432  0.0567 -0.4092
 3459TIP3   OH231867   0.347   0.883   2.248 -0.4996  0.6918  0.2315
 3459TIP3    H131868   0.403   0.858   2.321 -0.5780  1.1464  0.4521
 3459TIP3    H231869   0.321   0.973   2.267 -0.2959  0.9085 -0.4966
 3460TIP3   OH231870   6.365   3.316   3.812 -0.2913  0.6270 -0.2917
 3460TIP3    H131871   6.378   3.293   3.904 -2.2838 -2.7890 -0.7828
 3460TIP3    H231872   6.416   3.250   3.764  1.0784  2.6300 -1.6789
 3461TIP3   OH231873   2.285   2.664   1.204 -0.2774 -0.9311  0.1317
 3461TIP3    H131874   2.354   2.723   1.233  0.5321 -2.5277  1.5679
 3461TIP3    H231875   2.220   2.668   1.274 -0.6838 -0.9961 -0.2390
 3462TIP3   OH231876   6.007   3.410  13.812 -0.1906  0.5945  0.3562
 3462TIP3    H131877   5.914   3.401  13.833 -0.5918 -2.3483 -2.2976
 3462TIP3    H231878   6.051   3.347  13.868 -0.3128 -1.0426 -1.3356
 3463TIP3   OH231879   1.440   5.572   3.945  0.5774 -0.4589 -0.5279
 3463TIP3    H131880   1.498   5.595   3.872  0.1139  1.8536 -0.1889
 3463TIP3    H231881   1.499   5.559   4.020  1.0089 -2.3734 -1.1453
 3464TIP3   OH231882   4.974   6.760   2.044  0.0766  0.0461 -0.2610
 3464TIP3    H131883   4.879   6.764   2.052  0.1783  0.1053  1.0685
 3464TIP3    H231884   4.997   6.837   1.990 -0.6588 -0.2781 -1.0434
 3465TIP3   OH231885   2.858   2.236  16.500 -0.4614  0.8294  0.1548
 3465TIP3    H131886   2.937   2.232  16.553 -0.2550 -2.3840 -0.2482
 3465TIP3    H231887   2.787   2.223  16.563 -0.5888  2.3782  0.3383
 3466TIP3   OH231888   5.664   2.320  13.103  0.0203  0.4786  0.0193
 3466TIP3    H131889   5.602   2.254  13.131 -0.3828  1.2795  1.0304
 3466TIP3    H231890   5.612   2.382  13.051 -0.0187  1.0765  0.7529
 3467TIP3   OH231891   3.655   6.818  14.551  0.6849 -0.4704  0.6979
 3467TIP3    H131892   3.743   6.813  14.590 -0.3558 -1.3104  3.0494
 3467TIP3    H231893   3.655   6.752  14.483  1.1529 -2.1337  2.2699
 3468TIP3   OH231894   3.195   3.522  13.682 -0.0513  0.1518 -0.0857
 3468TIP3    H131895   3.174   3.582  13.754 -0.8471 -0.1108 -0.0936
 3468TIP3    H231896   3.264   3.566  13.633 -0.1729  0.7624  0.2866
 3469TIP3   OH231897   5.925   4.826  13.648  0.1420  0.6000 -0.4122
 3469TIP3    H131898   5.870   4.812  13.570 -2.0267  0.1607  1.1575
 3469TIP3    H231899   5.918   4.919  13.666 -0.3396  0.4986 -0.0520
 3470TIP3   OH231900   0.498   2.640   5.947  0.4514 -0.1222 -0.1811
 3470TIP3    H131901   0.435   2.617   5.878 -0.9968 -2.0057  1.7034
 3470TIP3    H231902   0.445   2.655   6.024  2.0871  1.7755  0.6159
 3471TIP3   OH231903   6.632   5.193  11.739  0.2634 -0.5458 -0.2459
 3471TIP3    H131904   6.598   5.108  11.766  1.4196 -0.7703  0.5791
 3471TIP3    H231905   6.713   5.202  11.789  0.0738  1.1045 -0.2334
 3472TIP3   OH231906   2.403   1.546   5.831  0.6068  0.7330  0.2096
 3472TIP3    H131907   2.493   1.577   5.826  0.6382  1.0160  1.9073
 3472TIP3    H231908   2.410   1.455   5.860  0.3342  1.2861  2.1362
 3473TIP3   OH231909   5.740   3.997  12.059 -0.7853 -0.3518 -0.4258
 3473TIP3    H131910   5.697   3.994  12.145 -0.2499 -0.0397 -0.1455
 3473TIP3    H231911   5.699   4.071  12.014 -1.2014 -0.6333 -0.5127
 3474TIP3   OH231912   5.924   3.680  14.243 -0.0485  0.2455  0.2810
 3474TIP3    H131913   5.964   3.602  14.203 -1.5418 -0.3058 -0.1626
 3474TIP3    H231914   5.970   3.690  14.327 -0.0168 -1.2601  0.4557
 3475TIP3   OH231915   6.592   2.052   3.945 -0.2749 -0.4518  0.1585
 3475TIP3    H131916   6.609   2.135   3.989  0.0998 -0.3738 -0.1311
 3475TIP3    H231917   6.611   1.985   4.010 -1.5317 -0.2894  0.7155
 3476TIP3   OH231918   4.119   3.482   4.964  0.7021 -0.3973 -0.3803
 3476TIP3    H131919   4.027   3.457   4.954  1.0503 -1.5492 -0.7738
 3476TIP3    H231920   4.141   3.456   5.053  0.9062 -1.0091 -0.6030
 3477TIP3   OH231921   5.581   2.039  16.694  0.5012 -0.8653 -0.1186
 3477TIP3    H131922   5.502   1.993  16.723 -0.7641  1.3976  0.1586
 3477TIP3    H231923   5.567   2.055  16.601  0.1018  0.5600  0.1833
 3478TIP3   OH231924   6.487   3.467  11.724  0.2142 -0.3427  0.4788
 3478TIP3    H131925   6.398   3.432  11.728 -0.8197  2.1606  0.2482
 3478TIP3    H231926   6.495   3.522  11.803  0.9120  0.8617 -0.4046
 3479TIP3   OH231927   4.327   5.725   2.797  0.3786 -0.1354 -0.0470
 3479TIP3    H131928   4.334   5.640   2.840  0.0584 -0.6223 -0.9416
 3479TIP3    H231929   4.237   5.729   2.765  0.0465  1.0419  1.0026
 3480TIP3   OH231930   6.171   4.686  11.779  0.0649  0.0655 -0.0748
 3480TIP3    H131931   6.118   4.663  11.703  1.3253 -2.3086 -0.2716
 3480TIP3    H231932   6.111   4.684  11.853 -0.3244 -1.6304 -0.4356
 3481TIP3   OH231933   5.478   6.128   2.303 -0.1202  0.3590 -0.0173
 3481TIP3    H131934   5.427   6.149   2.224  1.7214  0.0738 -1.2930
 3481TIP3    H231935   5.415   6.085   2.361 -1.6770  1.2245 -1.0199
 3482TIP3   OH231936   5.104   4.823   4.486 -0.0248 -0.6296 -0.5337
 3482TIP3    H131937   5.036   4.836   4.552 -0.5655 -1.2996 -0.9530
 3482TIP3    H231938   5.098   4.899   4.429 -0.3427 -0.6257 -0.4957
 3483TIP3   OH231939   5.775   3.563   5.184 -0.0090  0.2133 -1.0509
 3483TIP3    H131940   5.861   3.532   5.155  0.5160  0.6079  0.0316
 3483TIP3    H231941   5.751   3.504   5.255 -0.6724  0.0559 -1.4069
 3484TIP3   OH231942   0.316   3.348   3.141  0.3357 -0.2260  0.1611
 3484TIP3    H131943   0.266   3.270   3.119  1.3344 -0.3538 -1.7709
 3484TIP3    H231944   0.395   3.315   3.184  0.5558 -0.2520 -0.2639
 3485TIP3   OH231945   5.225   0.775  13.859 -0.3930  0.1896 -0.3022
 3485TIP3    H131946   5.257   0.864  13.871  1.5007 -0.6418  1.0707
 3485TIP3    H231947   5.145   0.771  13.911  0.4667  0.5881  1.0746
 3486TIP3   OH231948   1.365   5.605  11.844  0.2073 -0.8153  0.8199
 3486TIP3    H131949   1.324   5.576  11.762 -0.6406  0.9510  0.5855
 3486TIP3    H231950   1.337   5.696  11.853  1.2026 -0.6651  2.5171
 3487TIP3   OH231951   3.631   2.813  12.844 -0.0334 -0.2284  0.0482
 3487TIP3    H131952   3.664   2.902  12.859  0.7900 -0.5517  0.2052
 3487TIP3    H231953   3.710   2.759  12.841 -0.4543 -0.7929 -1.1620
 3488TIP3   OH231954   3.005   2.822  16.685 -0.0331  0.2756 -0.2776
 3488TIP3    H131955   3.079   2.861  16.638  0.8338  0.6466  1.3576
 3488TIP3    H231956   2.957   2.774  16.618  0.7757  1.3703 -1.6822
 3489TIP3   OH231957   1.102   3.063   5.546  0.1494 -0.5825 -0.9207
 3489TIP3    H131958   1.075   3.135   5.603  0.1005 -2.3641  1.3835
 3489TIP3    H231959   1.196   3.052   5.565  0.3471 -0.5813 -1.8850
 3490TIP3   OH231960   0.726   3.465   4.193  0.5478 -0.7490  0.3040
 3490TIP3    H131961   0.764   3.552   4.207 -0.6363  0.0885 -1.4880
 3490TIP3    H231962   0.633   3.477   4.210  0.6235 -2.0848  1.7176
 3491TIP3   OH231963   5.410   2.139   5.069 -0.1661 -0.2403 -0.1441
 3491TIP3    H131964   5.456   2.214   5.106 -1.1453  0.9476 -1.3236
 3491TIP3    H231965   5.478   2.073   5.057  0.7178  0.4834  0.7813
 3492TIP3   OH231966   4.703   6.582  10.848  0.2929  0.3521  0.1773
 3492TIP3    H131967   4.713   6.491  10.821 -0.0438  0.3104  0.1811
 3492TIP3    H231968   4.744   6.633  10.779  1.3430  0.1597  0.6488
 3493TIP3   OH231969   2.736   5.505  11.901  0.7845 -0.0624  0.4400
 3493TIP3    H131970   2.757   5.562  11.975  1.1496  0.2449  0.0987
 3493TIP3    H231971   2.755   5.557  11.824 -0.1135 -0.1978  0.1220
 3494TIP3   OH231972   6.119   6.478  17.276  0.3640 -0.0098  0.1698
 3494TIP3    H131973   6.065   6.409  17.239 -1.4260  2.3338 -1.7707
 3494TIP3    H231974   6.134   6.451  17.367 -0.1824 -2.9541 -0.5687
 3495TIP3   OH231975   5.096   4.920  13.087  0.2713  0.4699 -0.0095
 3495TIP3    H131976   5.116   4.878  13.003  0.8581 -0.3549  0.5242
 3495TIP3    H231977   5.096   4.848  13.150 -0.7672  0.9993  0.6048
 3496TIP3   OH231978   1.152   0.323   0.740 -0.3192 -0.3948 -0.5244
 3496TIP3    H131979   1.177   0.348   0.651 -0.6552 -1.3822 -0.8981
 3496TIP3    H231980   1.211   0.373   0.796  1.3118 -1.3496 -1.3594
 3497TIP3   OH231981   0.676   1.736  15.888 -0.3536  0.0545  0.7069
 3497TIP3    H131982   0.768   1.731  15.865 -0.5381 -0.4151  0.0643
 3497TIP3    H231983   0.676   1.752  15.983  0.3803  0.2048  0.6836
 3498TIP3   OH231984   1.670   0.826   4.501 -0.3540 -0.0988 -0.1934
 3498TIP3    H131985   1.576   0.806   4.499 -0.4536  0.2967  0.6498
 3498TIP3    H231986   1.674   0.921   4.511  0.1378  0.1243 -2.2304
 3499TIP3   OH231987   1.490   5.341  16.473  0.0334  0.4979  0.6863
 3499TIP3    H131988   1.521   5.320  16.385 -1.4266  0.5410  0.1505
 3499TIP3    H231989   1.400   5.368  16.461  0.3190  2.0929  2.0120
 3500TIP3   OH231990   2.170   1.717   0.606  0.4290 -0.3440  0.2134
 3500TIP3    H131991   2.215   1.719   0.522  1.3650  0.6814  0.7113
 3500TIP3    H231992   2.123   1.800   0.609  0.3240 -0.4186  0.6522
 3501TIP3   OH231993   5.365   0.642   0.275 -0.5293 -0.0534 -0.1039
 3501TIP3    H131994   5.437   0.703   0.291  0.3265 -0.8426 -0.8500
 3501TIP3    H231995   5.409   0.561   0.247 -1.6230 -1.0659  1.0379
 3502TIP3   OH231996   0.067   4.254   6.630  0.8954 -0.5494  0.0119
 3502TIP3    H131997   0.017   4.266   6.710  0.2519 -0.5316 -0.3865
 3502TIP3    H231998   0.010   4.201   6.574  0.2939  1.5094 -1.3700
 3503TIP3   OH231999   5.019   0.777  14.047  0.0306  0.8518 -0.2368
 3503TIP3    H132000   5.088   0.792  14.112  0.5711  0.0962 -0.6305
 3503TIP3    H232001   4.973   0.861  14.041  0.4964  1.1680  0.5114
 3504TIP3   OH232002   4.708   2.555  14.072  0.3756  0.0186 -0.2145
 3504TIP3    H132003   4.788   2.567  14.123  0.8638 -0.4267 -0.8651
 3504TIP3    H232004   4.653   2.498  14.126  1.9420 -2.6285 -1.2879
 3505TIP3   OH232005   1.686   2.492   1.250 -0.3521  0.0131  0.6706
 3505TIP3    H132006   1.614   2.474   1.191  0.1487 -0.7249  0.2807
 3505TIP3    H232007   1.666   2.578   1.288 -1.9487 -0.6503  1.3594
 3506TIP3   OH232008   4.000   3.496   1.224 -0.4774  0.4536 -0.7003
 3506TIP3    H132009   4.095   3.504   1.216  0.0350 -3.9733 -0.2160
 3506TIP3    H232010   3.971   3.463   1.139 -1.7495  2.6888 -1.1701
 3507TIP3   OH232011   0.021   2.509   2.593 -0.3084 -0.3065  0.4369
 3507TIP3    H132012   0.070   2.438   2.552 -1.2007 -1.5661  1.5028
 3507TIP3    H232013   0.045   2.504   2.686 -3.0230 -1.4447  1.1121
 3508TIP3   OH232014   3.476   4.566   3.663 -0.4956  0.6679 -0.2361
 3508TIP3    H132015   3.532   4.598   3.592  2.8163  1.0829  2.4360
 3508TIP3    H232016   3.484   4.470   3.658 -1.5935  0.6273 -1.4143
 3509TIP3   OH232017   3.793   0.526   5.874  0.1751  0.1671  1.0144
 3509TIP3    H132018   3.852   0.567   5.938 -0.3564 -2.2593  3.1011
 3509TIP3    H232019   3.851   0.472   5.820  0.8506  3.3486 -1.6264
 3510TIP3   OH232020   5.007   1.514  15.339  0.4548  0.1027 -0.3294
 3510TIP3    H132021   5.085   1.530  15.286  0.2542  1.3855 -0.2532
 3510TIP3    H232022   5.008   1.420  15.356  1.1097 -0.1414 -1.6890
 3511TIP3   OH232023   4.778   5.480   1.922  0.5622 -0.4003  0.3302
 3511TIP3    H132024   4.746   5.396   1.889 -1.5251 -0.2401  1.8764
 3511TIP3    H232025   4.800   5.530   1.844 -0.3557 -1.5485 -0.6770
 3512TIP3   OH232026   0.337   0.849   4.472 -0.0797 -0.0181 -0.1278
 3512TIP3    H132027   0.397   0.793   4.520 -3.3990 -2.7508  1.0246
 3512TIP3    H232028   0.295   0.902   4.540 -0.0442  0.8436 -0.7687
 3513TIP3   OH232029   4.819   6.749  11.941  0.3154 -0.6253 -0.8521
 3513TIP3    H132030   4.846   6.822  11.885 -1.6937 -1.2642 -2.7385
 3513TIP3    H232031   4.804   6.677  11.880 -4.0830 -0.6972  0.1698
 3514TIP3   OH232032   4.867   5.090   4.631 -0.1482 -0.5021  0.1393
 3514TIP3    H132033   4.942   5.107   4.686 -1.9823 -0.9058  2.8605
 3514TIP3    H232034   4.851   4.996   4.641  0.8160 -1.0524 -2.8768
 3515TIP3   OH232035   1.091   1.536   2.836  0.4259  0.6677  0.8319
 3515TIP3    H132036   1.164   1.597   2.844  0.4966  0.5073  1.4252
 3515TIP3    H232037   1.016   1.584   2.871  0.5408  0.3144  1.5752
 3516TIP3   OH232038   0.748   3.772   4.853  0.2393  0.4214  0.1561
 3516TIP3    H132039   0.786   3.690   4.886 -2.0834  0.2015  2.4755
 3516TIP3    H232040   0.806   3.840   4.886  0.5005 -0.1160  0.8156
 3517TIP3   OH232041   6.150   5.416  12.246 -0.2925 -0.4816  0.2555
 3517TIP3    H132042   6.083   5.425  12.313 -1.0142  0.6326 -0.5867
 3517TIP3    H232043   6.224   5.468  12.278 -0.7302  0.2567  0.0847
 3518TIP3   OH232044   1.342   0.999   0.763 -0.1169 -0.0283 -0.1074
 3518TIP3    H132045   1.312   1.054   0.835  0.4764  0.4897 -0.2494
 3518TIP3    H232046   1.427   1.036   0.738  0.8696 -1.7331  0.5978
 3519TIP3   OH232047   5.238   0.361  17.086 -0.3551  0.3885 -0.0740
 3519TIP3    H132048   5.287   0.424  17.033 -0.6016  0.8011  0.1848
 3519TIP3    H232049   5.146   0.376  17.063 -0.4453  0.4190  0.2979
 3520TIP3   OH232050   1.078   2.208   6.258  0.0728 -0.0821 -0.7842
 3520TIP3    H132051   1.146   2.141   6.271  0.0182  0.0091 -0.0314
 3520TIP3    H232052   1.001   2.158   6.230 -0.2030 -0.4209  0.5772
 3521TIP3   OH232053   4.138   5.674  16.297  0.2756  0.0969 -0.2570
 3521TIP3    H132054   4.136   5.630  16.382 -0.3529 -0.7780 -0.7096
 3521TIP3    H232055   4.060   5.641  16.252  2.9587 -2.9968 -2.9075
 3522TIP3   OH232056   5.983   2.507   0.619  0.4085  0.0140 -0.4857
 3522TIP3    H132057   5.939   2.484   0.537  0.2021  1.4319 -0.7893
 3522TIP3    H232058   5.969   2.431   0.676  1.5611 -1.4956 -2.1459
 3523TIP3   OH232059   4.256   0.390  12.202  0.1853  0.4743 -0.2222
 3523TIP3    H132060   4.213   0.395  12.287  0.6715 -1.3010  0.1467
 3523TIP3    H232061   4.341   0.432  12.214  0.4579 -0.2220  0.3144
 3524TIP3   OH232062   5.868   2.773   3.520 -0.2196  0.2765  0.4603
 3524TIP3    H132063   5.832   2.728   3.596  1.0469  0.0071  0.9238
 3524TIP3    H232064   5.962   2.754   3.523  0.0761  1.5236 -0.3067
 3525TIP3   OH232065   2.644   5.342   6.066 -0.1083 -0.1839  0.4708
 3525TIP3    H132066   2.713   5.405   6.087 -1.5880  1.4675  0.5106
 3525TIP3    H232067   2.588   5.341   6.144 -2.0824  1.1922 -0.8688
 3526TIP3   OH232068   2.107   1.047  17.134  0.1583 -0.1590 -0.0598
 3526TIP3    H132069   2.189   1.097  17.129 -0.8461  1.4348 -0.8812
 3526TIP3    H232070   2.120   0.989  17.209  1.5894  0.9136  0.5644
 3527TIP3   OH232071   5.817   4.798   3.769  0.3835 -0.1954 -0.6314
 3527TIP3    H132072   5.847   4.833   3.852 -0.6338 -0.0402 -0.3203
 3527TIP3    H232073   5.872   4.722   3.753  1.3264  0.4224 -0.3727
 3528TIP3   OH232074   3.826   2.223  11.584 -0.0731 -0.0297  0.2809
 3528TIP3    H132075   3.869   2.309  11.579 -0.8116  0.2878 -0.8659
 3528TIP3    H232076   3.793   2.208  11.495  0.9554 -1.9779  0.2036
 3529TIP3   OH232077   2.908   6.390  16.287 -0.6732  0.3158 -0.6408
 3529TIP3    H132078   2.978   6.365  16.347 -0.8334 -0.9000 -0.9433
 3529TIP3    H232079   2.847   6.440  16.341  0.7094  1.9023 -0.5174
 3530TIP3   OH232080   1.798   0.986   5.446  0.1382  0.0369  0.6236
 3530TIP3    H132081   1.786   0.993   5.540  0.1008 -0.7373  0.6756
 3530TIP3    H232082   1.868   1.049   5.426  0.0243  0.3292  1.1377
 3531TIP3   OH232083   2.509   2.531   6.306  0.4785 -0.1646 -0.1346
 3531TIP3    H132084   2.518   2.436   6.305  0.9844 -0.1298  0.5602
 3531TIP3    H232085   2.590   2.563   6.266  1.0448  0.0101  1.1195
 3532TIP3   OH232086   1.672   5.659   1.182 -0.6834  0.2267  0.1447
 3532TIP3    H132087   1.692   5.734   1.238 -2.2063  1.3589 -0.8135
 3532TIP3    H232088   1.714   5.679   1.099 -1.1912  0.0642 -0.1507
 3533TIP3   OH232089   4.889   6.241   1.811 -0.1361 -0.2490 -0.0680
 3533TIP3    H132090   4.897   6.198   1.726  1.1986  0.1703 -0.1816
 3533TIP3    H232091   4.968   6.295   1.817 -0.4075  0.0099  1.2763
 3534TIP3   OH232092   5.520   4.278   4.865 -0.4447 -0.2993  0.0444
 3534TIP3    H132093   5.530   4.183   4.858 -1.3283 -0.5778  2.1754
 3534TIP3    H232094   5.594   4.306   4.919 -0.2532  0.2237 -0.4805
 3535TIP3   OH232095   6.697   5.014   2.723 -0.3465  0.6642  0.6397
 3535TIP3    H132096   6.770   4.967   2.765 -0.1089 -0.1075 -0.5989
 3535TIP3    H232097   6.641   4.944   2.690  0.2048  1.2384 -1.5689
 3536TIP3   OH232098   5.784   0.661  12.780 -0.3071 -0.4824 -0.0329
 3536TIP3    H132099   5.874   0.632  12.767 -0.3472 -1.0874  0.9381
 3536TIP3    H232100   5.742   0.588  12.826 -1.1567 -0.0058 -0.0379
 3537TIP3   OH232101   4.862   0.706   2.730  0.0702  0.0362 -0.1276
 3537TIP3    H132102   4.910   0.627   2.755  0.8520  0.0168 -1.6510
 3537TIP3    H232103   4.927   0.776   2.730  0.6714 -0.3756 -4.2736
 3538TIP3   OH232104   5.471   3.309  11.498  0.2210  0.2515  0.2212
 3538TIP3    H132105   5.551   3.287  11.546 -0.2230 -0.1500  0.7743
 3538TIP3    H232106   5.411   3.237  11.516  0.4769 -0.5624 -1.9632
 3539TIP3   OH232107   6.671   6.545   5.310  0.6978  0.1801 -0.6321
 3539TIP3    H132108   6.598   6.594   5.272  1.8674  0.7330 -2.2203
 3539TIP3    H232109   6.631   6.464   5.342 -0.6931  0.6932 -0.9964
 3540TIP3   OH232110   2.699   3.443   0.382  0.6330  0.0603 -0.0728
 3540TIP3    H132111   2.664   3.527   0.411 -0.9920  0.3869 -2.8723
 3540TIP3    H232112   2.640   3.378   0.420  1.4485  0.1931  1.4643
 3541TIP3   OH232113   1.086   2.655  15.762 -0.3523 -0.1663 -0.6441
 3541TIP3    H132114   1.150   2.632  15.830  1.1254  1.7491 -1.3695
 3541TIP3    H232115   1.008   2.681  15.811  0.2321 -0.1535  0.2929
 3542TIP3   OH232116   3.370   5.168   6.193  0.1168  0.3428 -0.0412
 3542TIP3    H132117   3.339   5.249   6.152  0.8373  0.0964 -1.0905
 3542TIP3    H232118   3.432   5.197   6.260  0.7615  0.6453 -0.7599
 3543TIP3   OH232119   0.891   1.199  15.624  0.4692 -0.9330  0.0692
 3543TIP3    H132120   0.893   1.294  15.609  0.3405 -1.2353 -1.8928
 3543TIP3    H232121   0.813   1.186  15.678  0.1607  0.0075 -0.1271
 3544TIP3   OH232122   1.242   4.444  13.278 -0.4950 -0.8340 -0.5176
 3544TIP3    H132123   1.327   4.400  13.267 -0.4402 -0.8328 -0.0872
 3544TIP3    H232124   1.259   4.515  13.339 -1.3307 -2.3665  1.5837
 3545TIP3   OH232125   2.455   5.049   5.407  1.0481 -0.0323 -0.1581
 3545TIP3    H132126   2.510   5.111   5.456  1.5444  1.1229 -2.1083
 3545TIP3    H232127   2.423   5.099   5.332 -1.3110 -1.1971  0.0210
 3546TIP3   OH232128   5.418   6.044   3.587  0.0674 -0.5535 -0.1731
 3546TIP3    H132129   5.335   6.031   3.632 -0.3599  1.2736 -0.3829
 3546TIP3    H232130   5.438   6.137   3.601  1.5417 -0.7324 -1.0068
 3547TIP3   OH232131   3.338   5.472   0.114  0.2126 -0.2004 -0.5433
 3547TIP3    H132132   3.414   5.509   0.159  1.1033 -1.7735 -0.7017
 3547TIP3    H232133   3.376   5.417   0.045 -1.1107  0.8055 -2.1090
 3548TIP3   OH232134   4.485   2.106   0.470  0.3440  0.5005  0.1779
 3548TIP3    H132135   4.548   2.178   0.462  2.9439 -1.6740  0.4769
 3548TIP3    H232136   4.494   2.056   0.389  1.9397 -2.0646  1.8628
 3549TIP3   OH232137   6.728   3.345  17.178  0.2610  0.2164  0.2385
 3549TIP3    H132138   6.822   3.343  17.163  0.1619 -3.1240 -0.4336
 3549TIP3    H232139   6.715   3.297  17.260 -0.9098 -0.3988 -0.2843
 3550TIP3   OH232140   3.940   4.840   4.935 -0.2565 -0.2555 -0.2433
 3550TIP3    H132141   3.869   4.903   4.920 -1.1118 -0.9176  0.9106
 3550TIP3    H232142   4.014   4.875   4.886 -0.3968  2.2460  1.2434
 3551TIP3   OH232143   1.662   5.449  16.883  0.2195  0.2994 -0.1382
 3551TIP3    H132144   1.708   5.491  16.811 -1.9566  0.8689 -1.2506
 3551TIP3    H232145   1.609   5.381  16.841 -1.6028  1.0950  0.7785
 3552TIP3   OH232146   5.700   2.836  12.316 -0.0586 -0.4672 -0.6738
 3552TIP3    H132147   5.740   2.916  12.349  0.5470 -0.9914 -0.1249
 3552TIP3    H232148   5.612   2.863  12.287  0.4996  0.5772 -1.4057
 3553TIP3   OH232149   2.748   2.866   1.461  0.3272  0.0647 -0.9448
 3553TIP3    H132150   2.760   2.953   1.422  0.7398 -0.2805 -1.6015
 3553TIP3    H232151   2.816   2.812   1.421 -0.3595 -0.7277 -1.0645
 3554TIP3   OH232152   4.301   6.222   5.789  0.2887  0.2668  0.2280
 3554TIP3    H132153   4.220   6.267   5.813 -0.9606 -1.7514 -0.1114
 3554TIP3    H232154   4.325   6.172   5.867  1.0025  0.5668  0.1993
 3555TIP3   OH232155   4.881   1.306   2.705  0.2172 -0.6779 -0.1994
 3555TIP3    H132156   4.795   1.290   2.667  0.7288 -0.2545 -1.5769
 3555TIP3    H232157   4.933   1.229   2.680  0.8234  0.0423 -1.1676
 3556TIP3   OH232158   2.757   2.714  13.511  0.7646  0.0324 -0.7690
 3556TIP3    H132159   2.749   2.803  13.479  0.4523  0.0323 -0.6976
 3556TIP3    H232160   2.667   2.687  13.530  0.7948 -0.5439 -1.4459
 3557TIP3   OH232161   5.658   5.866   4.349 -0.0952 -0.2982  0.1011
 3557TIP3    H132162   5.594   5.820   4.296  0.3116  0.3196 -0.9311
 3557TIP3    H232163   5.692   5.935   4.292  1.6393 -0.7412  0.5596
 3558TIP3   OH232164   4.142   4.124  13.374 -0.6749  0.1078  0.3358
 3558TIP3    H132165   4.128   4.172  13.292 -0.8374 -0.4519  0.0285
 3558TIP3    H232166   4.237   4.121  13.385 -0.5698 -1.2880 -0.7375
 3559TIP3   OH232167   2.094   4.219  16.733 -0.1034  0.1777  0.3633
 3559TIP3    H132168   2.111   4.125  16.736  1.3674  0.4255 -0.0112
 3559TIP3    H232169   1.999   4.226  16.725 -0.1020 -1.2984 -1.0926
 3560TIP3   OH232170   2.267   6.318   4.198  0.3311 -0.0239  0.2046
 3560TIP3    H132171   2.190   6.298   4.252 -0.0387  0.8698  0.0289
 3560TIP3    H232172   2.240   6.394   4.146  0.6416 -0.9336 -1.3274
 3561TIP3   OH232173   3.262   5.806  17.245 -0.3292 -0.2883  0.1380
 3561TIP3    H132174   3.197   5.865  17.207  0.4966  0.6169  0.1258
 3561TIP3    H232175   3.280   5.743  17.175 -2.8892 -1.9539  0.9081
 3562TIP3   OH232176   6.266   1.627  10.601 -0.5383  0.3262 -0.0431
 3562TIP3    H132177   6.344   1.623  10.656 -0.2040 -2.0516 -0.6657
 3562TIP3    H232178   6.244   1.721  10.598  1.9352  0.9596  0.6137
 3563TIP3   OH232179   6.497   5.458   5.205  0.7365 -0.6393 -0.2430
 3563TIP3    H132180   6.424   5.437   5.263  0.9955  1.3130  0.8562
 3563TIP3    H232181   6.570   5.407   5.238  0.5552 -0.5115  0.3540
 3564TIP3   OH232182   2.167   6.530   4.051 -0.0228 -0.3207  0.2193
 3564TIP3    H132183   2.157   6.619   4.084  1.1273  0.0607 -0.4197
 3564TIP3    H232184   2.087   6.514   4.001 -0.7200 -0.0536  1.2403
 3565TIP3   OH232185   4.270   2.593   4.868  0.0318 -0.1809  0.0531
 3565TIP3    H132186   4.310   2.626   4.949  1.4380  0.3768 -0.8571
 3565TIP3    H232187   4.269   2.498   4.879  0.5790 -0.1308  0.5547
 3566TIP3   OH232188   3.553   1.629   4.141  0.2333  0.5384 -0.0133
 3566TIP3    H132189   3.632   1.593   4.102 -0.0962  0.3904 -0.5410
 3566TIP3    H232190   3.527   1.566   4.208  1.1355  1.0823  0.8748
 3567TIP3   OH232191   3.319   2.590  16.949 -0.2539 -0.1030  0.0917
 3567TIP3    H132192   3.290   2.588  16.857  0.5675  3.3041 -0.3380
 3567TIP3    H232193   3.238   2.602  16.999 -0.3841  2.0633 -0.5510
 3568TIP3   OH232194   3.977   3.220   5.600  0.3019 -0.6789  0.5470
 3568TIP3    H132195   3.889   3.191   5.622  0.3234  1.3888  3.8007
 3568TIP3    H232196   4.032   3.183   5.670  1.6899 -0.2960 -0.3181
 3569TIP3   OH232197   3.506   4.305  16.833  0.1028  0.1710 -0.6796
 3569TIP3    H132198   3.510   4.209  16.840  1.1004  0.2722  0.3122
 3569TIP3    H232199   3.597   4.332  16.833 -0.1957  1.2092  0.3421
 3570TIP3   OH232200   4.987   2.630   5.347 -0.1589  0.7661  0.2081
 3570TIP3    H132201   4.945   2.579   5.278 -1.4992  2.3279 -0.1650
 3570TIP3    H232202   4.973   2.721   5.322  1.7619  1.3346  1.1171
 3571TIP3   OH232203   3.029   4.408  12.091  0.1933  0.4685  0.4319
 3571TIP3    H132204   3.065   4.395  12.003 -1.3499  0.4525 -0.2045
 3571TIP3    H232205   2.966   4.337  12.102  1.2133 -0.2442  2.0272
 3572TIP3   OH232206   0.668   1.073  15.755  0.7671 -0.2727  0.1529
 3572TIP3    H132207   0.613   1.114  15.822 -0.5353 -1.0587 -0.4069
 3572TIP3    H232208   0.681   0.983  15.788 -0.2447 -0.7943 -0.8491
 3573TIP3   OH232209   2.584   3.314  12.525  0.3166 -0.2840  0.1740
 3573TIP3    H132210   2.642   3.238  12.527  0.5347 -0.1764 -1.2450
 3573TIP3    H232211   2.633   3.380  12.477 -0.9375 -0.1599 -0.9561
 3574TIP3   OH232212   4.879   0.976   0.870  0.0526  0.1558 -0.4785
 3574TIP3    H132213   4.912   0.901   0.821 -0.6025  0.1867 -0.9633
 3574TIP3    H232214   4.788   0.954   0.889  0.6216 -0.4163  1.7888
 3575TIP3   OH232215   4.873   2.402   1.761  0.0160  0.0970  0.4279
 3575TIP3    H132216   4.831   2.391   1.846 -0.1728 -0.0553  0.3139
 3575TIP3    H232217   4.866   2.496   1.742 -1.8235 -0.1744 -0.3951
 3576TIP3   OH232218   1.186   2.319   0.907 -0.1800 -0.1336 -0.1314
 3576TIP3    H132219   1.161   2.249   0.847 -0.0773 -1.3643  1.2170
 3576TIP3    H232220   1.107   2.373   0.914 -0.1527  0.0950 -1.4430
 3577TIP3   OH232221   0.495   2.656  15.128 -1.0004 -0.1552 -0.0147
 3577TIP3    H132222   0.557   2.605  15.076  0.3404  1.6108 -0.2200
 3577TIP3    H232223   0.409   2.628  15.098 -0.2661 -0.7968 -1.5715
 3578TIP3   OH232224   0.900   3.641   3.881  0.2279  0.0202 -0.1853
 3578TIP3    H132225   0.835   3.696   3.925  1.8223  1.0226  1.0018
 3578TIP3    H232226   0.931   3.582   3.950  0.2501 -0.7498 -0.8511
 3579TIP3   OH232227   3.451   0.387  12.986  0.2974  0.1298 -0.4468
 3579TIP3    H132228   3.368   0.436  12.989  1.0316  1.3341  0.6820
 3579TIP3    H232229   3.431   0.305  13.029 -0.6557 -0.1363 -1.3565
 3580TIP3   OH232230   0.586   3.658   0.665  0.1015 -0.2041  0.6048
 3580TIP3    H132231   0.655   3.617   0.612 -0.7046  1.0974 -1.5030
 3580TIP3    H232232   0.633   3.720   0.721  0.7723 -0.0761 -0.0866
 3581TIP3   OH232233   5.192   5.783  11.846  0.5357 -0.3995  0.2017
 3581TIP3    H132234   5.241   5.776  11.928  0.6730  0.4586  0.1994
 3581TIP3    H232235   5.178   5.877  11.834  2.1086 -0.3637 -1.6944
 3582TIP3   OH232236   3.506   2.706  14.414 -0.1214  0.3203  0.9154
 3582TIP3    H132237   3.541   2.621  14.386 -0.3284  0.7821 -0.8264
 3582TIP3    H232238   3.416   2.706  14.382 -0.2296  1.0508  1.2212
 3583TIP3   OH232239   4.054   4.927  11.653  0.0701  0.5504 -0.1539
 3583TIP3    H132240   4.113   4.926  11.728 -1.0464 -0.1450  0.7405
 3583TIP3    H232241   4.041   5.019  11.633 -0.5997  0.7759  1.3062
 3584TIP3   OH232242   5.901   4.934   1.066  1.0225  0.0475  0.4822
 3584TIP3    H132243   5.889   4.918   1.160  1.3938  3.2732  1.1312
 3584TIP3    H232244   5.917   5.028   1.059 -2.7640  0.5680 -3.1922
 3585TIP3   OH232245   3.760   5.322  14.980  0.1460 -0.1346 -0.1391
 3585TIP3    H132246   3.766   5.340  15.073  0.4007 -0.0352 -0.1746
 3585TIP3    H232247   3.781   5.229  14.972  1.8085  0.2464 -0.2781
 3586TIP3   OH232248   4.729   6.212   3.607  0.7380  0.2379 -1.4689
 3586TIP3    H132249   4.637   6.195   3.585  0.7799  0.0300 -1.4759
 3586TIP3    H232250   4.725   6.249   3.695  0.8307 -1.8430 -0.5786
 3587TIP3   OH232251   1.274   6.138  13.824  0.2948  0.2593 -0.8215
 3587TIP3    H132252   1.218   6.062  13.836 -1.4835  1.5812 -0.5925
 3587TIP3    H232253   1.314   6.152  13.911 -1.1173  0.9344 -0.2746
 3588TIP3   OH232254   5.085   0.697   5.967 -0.0293  0.1621  0.3952
 3588TIP3    H132255   5.044   0.780   5.943 -0.6550  0.1311  1.3545
 3588TIP3    H232256   5.033   0.631   5.922 -0.4780  0.1863  0.8732
 3589TIP3   OH232257   4.450   6.712  13.537 -0.1090  0.0622 -0.3891
 3589TIP3    H132258   4.445   6.799  13.577 -1.3822  0.5600 -1.5868
 3589TIP3    H232259   4.400   6.656  13.597 -1.6459  0.7202 -1.0117
 3590TIP3   OH232260   6.678   4.928   4.969  0.4004 -0.0448 -0.8666
 3590TIP3    H132261   6.617   4.999   4.987 -0.0476 -0.5642 -0.2917
 3590TIP3    H232262   6.723   4.954   4.889  0.6572  1.1562 -0.3382
 3591TIP3   OH232263   3.600   5.013  13.193  0.2523 -0.1112  0.5554
 3591TIP3    H132264   3.616   4.973  13.107 -0.2858  0.6274  0.1091
 3591TIP3    H232265   3.622   4.944  13.255 -1.9421 -1.5743 -0.2152
 3592TIP3   OH232266   6.817   6.650  13.825  0.5467 -0.0135  0.6935
 3592TIP3    H132267   6.898   6.700  13.833  1.2011 -0.5606 -2.2569
 3592TIP3    H232268   6.749   6.717  13.814  0.7644  0.3678  1.5437
 3593TIP3   OH232269   5.390   3.346  13.544 -0.1546 -0.0986  0.3121
 3593TIP3    H132270   5.462   3.339  13.606  0.8296 -2.6991 -1.0166
 3593TIP3    H232271   5.352   3.258  13.542 -2.0317  0.7002 -0.5822
 3594TIP3   OH232272   3.334   2.292   1.289  0.6378 -0.2241 -0.1794
 3594TIP3    H132273   3.379   2.323   1.210  0.3951  0.0262 -0.2205
 3594TIP3    H232274   3.404   2.283   1.354  0.7376  0.2347 -0.2229
 3595TIP3   OH232275   6.165   4.805   2.874  0.7742  0.8749  0.3704
 3595TIP3    H132276   6.149   4.786   2.966 -0.5076 -0.9182 -0.1904
 3595TIP3    H232277   6.132   4.893   2.861 -1.2867  0.2432  1.1113
 3596TIP3   OH232278   4.564   4.931   1.171  0.2833  0.5656  0.1378
 3596TIP3    H132279   4.573   4.904   1.262  0.3089  1.4706  0.4166
 3596TIP3    H232280   4.526   5.019   1.177 -0.2586  0.3979 -0.7415
 3597TIP3   OH232281   5.693   6.151   6.578 -0.2181 -0.0371 -0.5451
 3597TIP3    H132282   5.616   6.163   6.633 -0.7024  0.0507 -1.2451
 3597TIP3    H232283   5.725   6.063   6.601  0.1718  0.3891  0.6038
 3598TIP3   OH232284   5.253   6.574  13.581 -0.3239  0.2089 -0.3760
 3598TIP3    H132285   5.311   6.650  13.582  0.3383 -0.2745 -1.5384
 3598TIP3    H232286   5.245   6.549  13.673  0.4270  0.9473 -0.1036
 3599TIP3   OH232287   3.636   2.250  12.530  0.1471 -0.4955  0.2111
 3599TIP3    H132288   3.710   2.269  12.588  2.2160  1.2267 -2.8234
 3599TIP3    H232289   3.667   2.180  12.474 -1.3508 -1.2585  0.3191
 3600TIP3   OH232290   2.520   4.781   3.121  0.0848  0.3008  0.0557
 3600TIP3    H132291   2.427   4.804   3.113  0.2012  0.7835  0.0986
 3600TIP3    H232292   2.566   4.865   3.124  0.3557  0.0983  2.0508
 3601TIP3   OH232293   2.478   5.881   2.534  0.0745 -0.0480  0.1018
 3601TIP3    H132294   2.567   5.902   2.506  0.2682 -1.8711 -0.6991
 3601TIP3    H232295   2.445   5.821   2.468 -0.2018 -2.8356  2.6798
 3602TIP3   OH232296   4.785   4.169   3.108 -0.6616  0.1785  0.1947
 3602TIP3    H132297   4.846   4.139   3.175 -0.4948 -0.2712 -0.1500
 3602TIP3    H232298   4.772   4.092   3.051 -1.3151  0.3564  0.0928
 3603TIP3   OH232299   6.019   1.331  12.236 -0.1061 -0.4602 -0.0624
 3603TIP3    H132300   6.044   1.240  12.223 -1.2323 -0.4623 -2.5292
 3603TIP3    H232301   6.012   1.341  12.331 -1.8521 -3.4540  0.1943
 3604TIP3   OH232302   0.354   0.616   0.797 -0.2301 -0.0410  0.6499
 3604TIP3    H132303   0.266   0.653   0.791  0.2216  0.6349 -3.5343
 3604TIP3    H232304   0.341   0.521   0.794 -0.8816  0.0375  1.0834
 3605TIP3   OH232305   2.046   0.509  15.485  0.4681 -0.3563  0.0332
 3605TIP3    H132306   2.138   0.513  15.457  0.7051 -0.0872  0.8371
 3605TIP3    H232307   2.010   0.433  15.440  0.5995  0.5913 -1.7260
 3606TIP3   OH232308   6.129   1.876   6.205 -0.3743  0.2028  0.2903
 3606TIP3    H132309   6.112   1.791   6.246  0.1234 -0.1933 -0.3182
 3606TIP3    H232310   6.199   1.859   6.143 -1.3953  0.6970 -1.0268
 3607TIP3   OH232311   5.273   2.748  13.995 -0.3706 -0.5087 -0.2894
 3607TIP3    H132312   5.223   2.680  13.950  1.2949 -1.7325 -0.3776
 3607TIP3    H232313   5.353   2.756  13.943  0.9275 -0.8919  1.5966
 3608TIP3   OH232314   0.236   3.498   3.957  0.0158  0.2297 -0.6997
 3608TIP3    H132315   0.178   3.544   3.895 -1.3880 -2.2819 -1.3139
 3608TIP3    H232316   0.193   3.508   4.042  0.5976  1.4637 -0.5366
 3609TIP3   OH232317   0.081   3.421   3.293  0.1192  0.4894  0.1689
 3609TIP3    H132318   0.163   3.403   3.248  0.4710  0.5042  0.7915
 3609TIP3    H232319   0.042   3.335   3.307 -0.2753  0.5239 -0.6765
 3610TIP3   OH232320   4.531   6.575  10.490  0.2071 -0.1259 -0.3688
 3610TIP3    H132321   4.535   6.636  10.417 -0.2815  1.2722  0.7552
 3610TIP3    H232322   4.622   6.559  10.513  0.3393  0.0709 -0.7511
 3611TIP3   OH232323   2.681   4.094  16.443 -0.7747 -0.5954  0.0528
 3611TIP3    H132324   2.763   4.142  16.436 -1.6813  0.8722 -0.8503
 3611TIP3    H232325   2.642   4.101  16.355 -2.6792  0.2818  0.9374
 3612TIP3   OH232326   1.390   3.086   3.634 -0.1577 -0.5364  0.4175
 3612TIP3    H132327   1.421   3.022   3.698  1.8986 -0.8348 -0.8327
 3612TIP3    H232328   1.413   3.048   3.549  3.6598  3.0709 -0.3092
 3613TIP3   OH232329   6.137   2.124   1.312 -0.2720 -0.2845  0.7034
 3613TIP3    H132330   6.118   2.132   1.405  1.7468 -0.7519  1.1773
 3613TIP3    H232331   6.169   2.211   1.287 -1.3171 -0.0028  0.3051
 3614TIP3   OH232332   6.605   2.107  15.086 -0.4405  0.3880 -0.9636
 3614TIP3    H132333   6.593   2.201  15.100  0.7356  0.5173 -0.7880
 3614TIP3    H232334   6.518   2.075  15.063 -0.5796  1.7741 -2.4359
 3615TIP3   OH232335   1.233   4.504  12.475  0.0359  0.1988  0.2987
 3615TIP3    H132336   1.265   4.571  12.415 -0.0201  1.3628  1.5585
 3615TIP3    H232337   1.250   4.539  12.562  0.0436 -1.4454  0.9778
 3616TIP3   OH232338   0.938   1.844   0.597 -0.0540  0.2820  0.4831
 3616TIP3    H132339   0.869   1.848   0.663 -1.7224 -1.2843 -1.1271
 3616TIP3    H232340   0.948   1.750   0.579  1.7098  0.5666 -0.1289
 3617TIP3   OH232341   4.735   2.964   1.324  0.6971  0.5098 -0.6016
 3617TIP3    H132342   4.724   2.923   1.239 -0.4223  0.3039 -0.3580
 3617TIP3    H232343   4.658   3.020   1.334 -0.0820 -0.8266  1.0434
 3618TIP3   OH232344   1.542   0.484   1.403  0.0309 -0.1334  0.0640
 3618TIP3    H132345   1.464   0.428   1.397  0.7336 -1.0165 -1.3664
 3618TIP3    H232346   1.601   0.437   1.461 -0.8722  1.0155  1.9341
 3619TIP3   OH232347   0.954   5.883   3.478 -0.8997  0.2727  0.0800
 3619TIP3    H132348   1.042   5.848   3.466 -1.6312 -2.1199  1.3757
 3619TIP3    H232349   0.968   5.968   3.520  0.8028 -0.0984  0.3035
 3620TIP3   OH232350   0.445   4.137  11.739 -0.2670  0.1177  0.1512
 3620TIP3    H132351   0.485   4.051  11.747 -1.4972 -0.4533  0.2933
 3620TIP3    H232352   0.507   4.196  11.782  1.0624 -0.5276 -0.8220
 3621TIP3   OH232353   4.696   0.258   5.216 -0.3517  0.4191  0.4951
 3621TIP3    H132354   4.711   0.171   5.177 -1.0870  0.9876 -1.0955
 3621TIP3    H232355   4.782   0.300   5.215 -0.1105 -0.0695  0.6999
 3622TIP3   OH232356   1.460   2.980   5.355 -0.0233 -0.1448 -0.2218
 3622TIP3    H132357   1.440   2.986   5.448  0.8788 -1.1947  0.0526
 3622TIP3    H232358   1.525   3.049   5.340 -1.0588  0.8288 -0.3460
 3623TIP3   OH232359   0.368   0.157  15.606 -0.0073  0.0710 -0.4721
 3623TIP3    H132360   0.446   0.197  15.567 -0.5543  0.1581 -1.4838
 3623TIP3    H232361   0.398   0.071  15.635  1.1695  1.1484  1.6795
 3624TIP3   OH232362   2.380   4.300  15.417 -0.2102 -0.3143  0.0682
 3624TIP3    H132363   2.397   4.370  15.354  0.1131 -1.5433 -1.2182
 3624TIP3    H232364   2.384   4.344  15.503 -1.6148  1.5558 -0.7837
 3625TIP3   OH232365   3.072   3.396   2.121  0.5034 -0.1448 -0.1422
 3625TIP3    H132366   3.045   3.369   2.033 -0.6901 -0.9442  0.4564
 3625TIP3    H232367   3.120   3.322   2.156  1.9715  0.6095 -0.5400
 3626TIP3   OH232368   5.941   1.224  11.788 -0.3807  0.5312 -0.0018
 3626TIP3    H132369   5.943   1.155  11.855 -0.0120  2.5692  2.1449
 3626TIP3    H232370   5.896   1.184  11.713  0.8644 -2.4018  0.7579
 3627TIP3   OH232371   2.674   5.881   5.802 -0.2746 -0.2079 -0.0071
 3627TIP3    H132372   2.696   5.802   5.852  0.9163 -0.2303 -0.5542
 3627TIP3    H232373   2.681   5.854   5.711 -0.8073  0.2882 -0.1967
 3628TIP3   OH232374   1.751   3.625   6.738 -0.5099 -0.3747 -0.5216
 3628TIP3    H132375   1.797   3.601   6.818  0.9742  1.6113 -0.7466
 3628TIP3    H232376   1.722   3.715   6.753  1.7453  0.8435 -3.0368
 3629TIP3   OH232377   1.631   3.459   4.714 -0.0493 -0.4689 -0.7573
 3629TIP3    H132378   1.563   3.392   4.705 -0.2220 -0.3975 -0.0340
 3629TIP3    H232379   1.620   3.493   4.803  1.0779 -0.6238 -0.5430
 3630TIP3   OH232380   4.733   2.559   2.878 -0.0153 -0.4736  0.1579
 3630TIP3    H132381   4.773   2.619   2.816  0.3315 -0.8122  0.0516
 3630TIP3    H232382   4.790   2.482   2.878  0.3610 -0.2007  1.4179
 3631TIP3   OH232383   4.751   5.715   1.278 -0.0396  0.0683 -0.4423
 3631TIP3    H132384   4.756   5.620   1.289 -2.6652 -0.1806 -1.0394
 3631TIP3    H232385   4.820   5.736   1.215 -0.4782 -1.6524 -1.5253
 3632TIP3   OH232386   1.104   3.902  12.956 -0.2210 -0.7520 -0.4458
 3632TIP3    H132387   1.010   3.885  12.952 -0.8687  2.5996 -1.5833
 3632TIP3    H232388   1.118   3.943  13.041  0.0885 -0.5491 -0.5900
 3633TIP3   OH232389   1.196   6.524   4.137  0.1865  0.2993  0.5046
 3633TIP3    H132390   1.155   6.438   4.145 -0.7952  0.7869  0.7713
 3633TIP3    H232391   1.178   6.551   4.047  1.5412 -0.2906  0.0396
 3634TIP3   OH232392   0.328   4.454  15.824 -0.4989  0.3926  0.4674
 3634TIP3    H132393   0.317   4.546  15.802  1.6234  0.7305  0.7073
 3634TIP3    H232394   0.338   4.410  15.740 -0.4499  0.5395  0.3967
 3635TIP3   OH232395   0.997   4.281   3.327  0.0334 -0.1877 -0.7862
 3635TIP3    H132396   0.907   4.295   3.299 -0.3299 -1.6836 -0.3908
 3635TIP3    H232397   0.994   4.201   3.380  1.3803  0.4312  0.2483
 3636TIP3   OH232398   0.814   1.094  14.444  0.7167 -1.5923  0.5287
 3636TIP3    H132399   0.744   1.129  14.500  0.7414 -0.7928  0.0751
 3636TIP3    H232400   0.777   1.098  14.355  1.9708  0.4986  0.0745
 3637TIP3   OH232401   0.683   3.623  13.142 -0.0317 -0.4531  0.1819
 3637TIP3    H132402   0.694   3.714  13.170  0.4324  0.2976 -2.3352
 3637TIP3    H232403   0.699   3.624  13.047 -1.2922 -2.9380 -0.1126
 3638TIP3   OH232404   0.576   4.797   5.089 -0.1740  0.0755  0.9847
 3638TIP3    H132405   0.664   4.784   5.054 -0.5711 -0.8467  0.3199
 3638TIP3    H232406   0.574   4.748   5.171 -1.1638 -2.9083 -0.7314
 3639TIP3   OH232407   4.749   2.670  14.444  0.0364 -0.2914 -0.6041
 3639TIP3    H132408   4.740   2.747  14.388  0.1102 -0.2379 -0.5432
 3639TIP3    H232409   4.664   2.627  14.439 -0.3859  0.4080  0.2610
 3640TIP3   OH232410   2.422   5.436  16.443  0.7200 -0.3236  0.0983
 3640TIP3    H132411   2.463   5.471  16.522  0.1652 -0.6065  0.5077
 3640TIP3    H232412   2.332   5.416  16.468  0.4278 -0.0583 -0.7034
 3641TIP3   OH232413   4.562   6.162   0.347 -0.0881  0.5255 -0.9670
 3641TIP3    H132414   4.655   6.178   0.334 -0.6242  2.4999 -2.5501
 3641TIP3    H232415   4.522   6.249   0.350 -1.8809 -0.2797 -0.1989
 3642TIP3   OH232416   4.244   5.638   0.806  0.1372  0.3903  0.0667
 3642TIP3    H132417   4.277   5.716   0.851  0.2823  1.3242 -1.5967
 3642TIP3    H232418   4.186   5.673   0.738  0.6788 -0.9269 -1.0905
 3643TIP3   OH232419   0.541   6.599   0.080 -0.3879 -0.0752 -0.1337
 3643TIP3    H132420   0.599   6.650   0.024  0.3072  0.3580  0.9652
 3643TIP3    H232421   0.459   6.593   0.031  0.0756  0.6407 -1.0066
 3644TIP3   OH232422   5.938   3.597   1.537 -0.1026  0.3751 -0.4335
 3644TIP3    H132423   5.881   3.547   1.596  1.3627 -2.4206 -1.3149
 3644TIP3    H232424   5.884   3.612   1.459 -0.7633  0.7216  0.0881
 3645TIP3   OH232425   6.307   5.974   1.329  0.4685 -0.3149  0.2141
 3645TIP3    H132426   6.336   5.912   1.262  0.7956  0.0318  0.0338
 3645TIP3    H232427   6.295   5.921   1.407  1.3127 -0.5129  0.2163
 3646TIP3   OH232428   0.757   4.344   1.812 -0.1717  0.3616 -0.0614
 3646TIP3    H132429   0.793   4.412   1.868 -1.0370  0.2696  0.6221
 3646TIP3    H232430   0.680   4.384   1.771 -0.2545  0.0364 -0.2326
 3647TIP3   OH232431   4.818   3.453   3.861 -0.3428 -0.1160 -0.3051
 3647TIP3    H132432   4.840   3.405   3.941 -0.4902 -0.5196 -0.5072
 3647TIP3    H232433   4.801   3.385   3.796 -0.8734  0.2119 -0.5077
 3648TIP3   OH232434   5.328   1.053  15.057 -0.1530  0.2265 -0.2836
 3648TIP3    H132435   5.350   1.075  15.147 -1.9922  0.6670  0.0772
 3648TIP3    H232436   5.374   1.118  15.004  1.2767 -0.2978  0.3074
 3649TIP3   OH232437   2.683   4.967  16.786  0.1839  0.3203  0.0925
 3649TIP3    H132438   2.705   5.029  16.717  1.2757 -0.8382 -0.6332
 3649TIP3    H232439   2.714   5.008  16.867  1.3877  0.4974 -0.4476
 3650TIP3   OH232440   0.443   1.427  14.361  0.2055 -0.5186 -0.1353
 3650TIP3    H132441   0.499   1.349  14.368  1.5245  0.4431  0.4373
 3650TIP3    H232442   0.441   1.447  14.268  1.0815 -0.3991 -0.1383
 3651TIP3   OH232443   1.411   5.207  13.671 -0.3763  0.1108  0.2244
 3651TIP3    H132444   1.351   5.266  13.715 -0.3493  0.0310  0.3718
 3651TIP3    H232445   1.361   5.169  13.600 -0.5931 -0.1783  0.5272
 3652TIP3   OH232446   5.489   3.182   4.725  0.1994 -0.1811  0.1406
 3652TIP3    H132447   5.523   3.261   4.768  1.1332 -0.2252 -0.5103
 3652TIP3    H232448   5.515   3.111   4.783  0.7905 -0.1662 -0.1017
 3653TIP3   OH232449   2.546   4.318   4.604 -0.1513 -0.2668 -0.1160
 3653TIP3    H132450   2.572   4.407   4.578  3.0327 -0.7188  1.3364
 3653TIP3    H232451   2.509   4.329   4.691 -0.3555 -0.2849 -0.2002
 3654TIP3   OH232452   5.169   5.149  10.791 -0.1718 -0.3022  0.4170
 3654TIP3    H132453   5.131   5.071  10.750 -0.6708 -0.2584  0.7939
 3654TIP3    H232454   5.101   5.216  10.784  0.5986  0.3868 -0.7380
 3655TIP3   OH232455   6.808   2.057   0.388  0.1957  0.2545 -0.3798
 3655TIP3    H132456   6.850   2.086   0.469  1.0844 -0.0406 -0.7208
 3655TIP3    H232457   6.858   2.101   0.319  0.4345 -0.7087 -0.8283
 3656TIP3   OH232458   1.408   5.415  12.264  0.4206  0.1670  0.2819
 3656TIP3    H132459   1.448   5.404  12.178  3.8740  5.1142  1.0325
 3656TIP3    H232460   1.444   5.343  12.317  0.5553 -1.2036 -1.6378
 3657TIP3   OH232461   5.279   6.765   1.683  0.2684 -0.2379  0.1288
 3657TIP3    H132462   5.256   6.691   1.626  1.2072  0.5554 -1.2957
 3657TIP3    H232463   5.345   6.730   1.743 -0.8502 -1.1219  0.8762
 3658TIP3   OH232464   3.156   3.116  13.010 -0.3512 -0.6011  0.2161
 3658TIP3    H132465   3.105   3.084  12.936 -0.5711 -0.1165  0.1572
 3658TIP3    H232466   3.100   3.182  13.051  0.3337  0.1399 -0.0149
 3659TIP3   OH232467   5.525   6.239   5.736  0.1659  1.2908 -0.0254
 3659TIP3    H132468   5.467   6.271   5.805 -0.1442 -0.1702  0.4097
 3659TIP3    H232469   5.585   6.179   5.780 -1.6137 -1.6163 -1.3529
 3660TIP3   OH232470   3.457   1.497  11.225  0.1039  0.0972 -0.7688
 3660TIP3    H132471   3.424   1.537  11.306 -0.6876  0.5966 -1.3252
 3660TIP3    H232472   3.488   1.572  11.173  0.7919 -0.2397 -0.8462
 3661TIP3   OH232473   3.999   6.304   1.885 -0.3461 -0.4298 -0.3286
 3661TIP3    H132474   4.048   6.379   1.853  1.1214 -0.5965  1.4750
 3661TIP3    H232475   3.939   6.340   1.951 -1.1185 -0.5544 -0.9489
 3662TIP3   OH232476   1.180   4.735   4.316  0.3167  0.3575  0.1270
 3662TIP3    H132477   1.125   4.733   4.394  0.5030 -0.6402  0.2441
 3662TIP3    H232478   1.193   4.642   4.294  1.3786  0.5986 -0.2943
 3663TIP3   OH232479   0.485   5.160   0.692 -0.0048 -1.1262 -0.6913
 3663TIP3    H132480   0.437   5.123   0.618 -0.0548 -1.8127 -0.3215
 3663TIP3    H232481   0.418   5.171   0.760  0.0358 -0.4750 -0.7541
 3664TIP3   OH232482   0.357   0.248   1.748  0.2046 -0.2982 -0.5968
 3664TIP3    H132483   0.342   0.332   1.705 -1.0013 -0.7772 -1.1319
 3664TIP3    H232484   0.273   0.203   1.743  1.3992 -2.4531 -2.3106
 3665TIP3   OH232485   0.790   3.974  12.316  0.1581 -0.3476  0.1871
 3665TIP3    H132486   0.746   3.891  12.333  0.9753 -0.8286 -0.0346
 3665TIP3    H232487   0.800   4.013  12.403 -0.7691 -0.1939  0.2337
 3666TIP3   OH232488   0.738   3.608  15.039  0.0753 -0.1457 -0.1206
 3666TIP3    H132489   0.773   3.649  14.960 -1.5632  0.3114 -0.6101
 3666TIP3    H232490   0.693   3.678  15.086  1.3669 -0.3177  1.4571
 3667TIP3   OH232491   5.187   0.064  11.271  0.8846  1.1337  0.1712
 3667TIP3    H132492   5.189  -0.017  11.221 -1.4006  1.4070 -0.4149
 3667TIP3    H232493   5.223   0.041  11.356 -0.7361 -0.7616  0.3596
 3668TIP3   OH232494   5.061   6.457   1.930 -0.3556 -0.1553  0.7002
 3668TIP3    H132495   5.017   6.504   1.858  0.0022 -0.1408  0.4927
 3668TIP3    H232496   5.077   6.524   1.996  1.0538  0.2189 -0.0104
 3669TIP3   OH232497   5.226   1.492   1.656 -0.0065  0.1455  0.3253
 3669TIP3    H132498   5.237   1.475   1.749 -1.8457 -0.1698  0.4943
 3669TIP3    H232499   5.294   1.439   1.614  1.2161  0.7357  1.4943
 3670TIP3   OH232500   6.653   4.473   3.650  0.4431 -0.5197 -0.0947
 3670TIP3    H132501   6.693   4.439   3.731 -2.2378 -1.0406  1.0691
 3670TIP3    H232502   6.568   4.430   3.646 -0.3866  1.2481 -2.0316
 3671TIP3   OH232503   0.892   3.603  15.694 -0.0411 -0.2735 -0.3560
 3671TIP3    H132504   0.952   3.528  15.691  1.4536  0.9532 -3.3578
 3671TIP3    H232505   0.942   3.674  15.655 -2.3704  1.6234  0.0446
 3672TIP3   OH232506   0.451   4.707  16.623  0.1068  0.4992  0.6379
 3672TIP3    H132507   0.371   4.758  16.634  0.9697  2.1028 -0.3059
 3672TIP3    H232508   0.486   4.698  16.712 -1.3274 -0.5832  1.1048
 3673TIP3   OH232509   2.910   0.511   4.310 -0.4427 -0.3660  0.4319
 3673TIP3    H132510   2.986   0.484   4.361 -0.0114  0.3767  0.1962
 3673TIP3    H232511   2.835   0.471   4.354  0.1515 -1.7768  0.1972
 3674TIP3   OH232512   1.559   4.920  14.922  0.2934 -0.2985  0.0265
 3674TIP3    H132513   1.497   4.867  14.971  1.3966 -0.3675  1.3576
 3674TIP3    H232514   1.536   5.011  14.943 -1.0140 -0.2397 -1.5410
 3675TIP3   OH232515   0.652   5.679  13.262  0.4100  0.7063  0.0220
 3675TIP3    H132516   0.574   5.634  13.228  2.2604 -1.2239 -1.8445
 3675TIP3    H232517   0.622   5.768  13.279 -1.7162  0.5852 -2.6522
 3676TIP3   OH232518   5.244   3.883   5.181  0.1501  0.1167  0.1711
 3676TIP3    H132519   5.198   3.843   5.254  2.2335 -1.0272  0.8988
 3676TIP3    H232520   5.189   3.957   5.155 -2.0038 -1.1286  1.0725
 3677TIP3   OH232521   6.427   0.582  16.253 -0.0985  0.2652 -0.3102
 3677TIP3    H132522   6.344   0.553  16.291  0.1544  1.3034  1.1234
 3677TIP3    H232523   6.494   0.540  16.307  0.2896  0.2512 -0.8041
 3678TIP3   OH232524   0.266   5.550   2.810  0.4813  0.0256  0.4148
 3678TIP3    H132525   0.233   5.640   2.801  1.4632  0.4757  1.1617
 3678TIP3    H232526   0.286   5.523   2.721  0.7643  0.7910  0.2370
 3679TIP3   OH232527   0.073   1.738  15.616 -0.3808  0.1792 -0.7394
 3679TIP3    H132528   0.139   1.668  15.623 -0.8037 -0.0820  1.1047
 3679TIP3    H232529   0.087   1.791  15.695 -1.2263  1.1482 -1.2377
 3680TIP3   OH232530   4.741   1.374   1.967  0.3477  0.0370 -0.2183
 3680TIP3    H132531   4.817   1.353   1.914  1.5175 -1.9500  2.1424
 3680TIP3    H232532   4.776   1.426   2.040 -1.0667  1.8598 -0.8038
 3681TIP3   OH232533   0.237   4.331   4.275 -0.1163  0.0998  0.3141
 3681TIP3    H132534   0.248   4.356   4.367  1.2063 -1.9450  0.7356
 3681TIP3    H232535   0.326   4.318   4.242 -0.5676  1.2684 -1.3923
 3682TIP3   OH232536   2.026   5.779   1.722  0.1982 -0.4029  0.0288
 3682TIP3    H132537   1.954   5.773   1.786  0.6682  1.2890  0.7441
 3682TIP3    H232538   2.089   5.838   1.763  0.9639 -0.0813 -1.5934
 3683TIP3   OH232539   0.323   3.489   2.604  0.6104  0.2037 -0.2175
 3683TIP3    H132540   0.345   3.409   2.651  0.8625  0.9430  0.9489
 3683TIP3    H232541   0.313   3.555   2.673 -4.0223  0.2116 -0.7094
 3684TIP3   OH232542   5.400   3.867  14.446  0.3127 -0.1223 -0.0518
 3684TIP3    H132543   5.358   3.812  14.380  2.3727 -0.5793 -1.0343
 3684TIP3    H232544   5.328   3.907  14.494 -1.2162 -0.9269 -1.6354
 3685TIP3   OH232545   0.686   4.521  16.311  0.0769 -0.7107  0.2041
 3685TIP3    H132546   0.622   4.588  16.286  0.9822 -0.3379 -1.1824
 3685TIP3    H232547   0.657   4.491  16.397 -1.6507 -0.1675 -0.1725
 3686TIP3   OH232548   1.962   2.491  12.920 -0.8996  0.0921  0.2075
 3686TIP3    H132549   2.042   2.535  12.949 -0.5578 -0.7236  0.4988
 3686TIP3    H232550   1.984   2.455  12.834 -0.8299 -0.4760  0.4636
 3687TIP3   OH232551   0.080   0.861  12.068  0.2648 -0.3970 -0.6749
 3687TIP3    H132552   0.065   0.860  12.162 -0.7136 -0.7744 -0.8306
 3687TIP3    H232553   0.057   0.950  12.041 -3.5236 -1.4537 -1.1835
 3688TIP3   OH232554   2.995   4.542  11.587  0.3080  0.0478 -0.0573
 3688TIP3    H132555   2.914   4.587  11.562  0.0704 -0.2798  0.1201
 3688TIP3    H232556   3.001   4.468  11.527  2.6621  2.4055 -2.8863
 3689TIP3   OH232557   4.686   2.436  13.815 -0.2156  0.0724 -0.1282
 3689TIP3    H132558   4.666   2.478  13.899 -0.7114  0.7113 -0.5593
 3689TIP3    H232559   4.780   2.450  13.804 -0.3209  0.8121 -0.1223
 3690TIP3   OH232560   0.611   0.993   2.744  0.0162 -0.5044 -0.1189
 3690TIP3    H132561   0.640   0.903   2.761  1.0206  0.2655  2.4701
 3690TIP3    H232562   0.561   0.987   2.663  0.5443 -3.3058 -0.2860
 3691TIP3   OH232563   2.704   3.888  14.760  0.2631 -0.0968 -0.0098
 3691TIP3    H132564   2.728   3.883  14.667  0.3318 -0.8823  0.0531
 3691TIP3    H232565   2.657   3.807  14.778 -2.3612  1.3146 -0.0874
 3692TIP3   OH232566   3.171   1.002   0.373  0.1008 -0.6089 -0.2865
 3692TIP3    H132567   3.219   1.053   0.438 -0.6344  0.5832 -0.6517
 3692TIP3    H232568   3.081   1.035   0.378 -0.1671 -1.1435 -1.2576
 3693TIP3   OH232569   3.448   6.095   5.129 -0.1991  0.2234 -0.6318
 3693TIP3    H132570   3.394   6.047   5.192  0.7839  0.7531  0.6315
 3693TIP3    H232571   3.458   6.035   5.055 -0.8273 -0.6552 -0.0136
 3694TIP3   OH232572   5.817   3.553   0.635 -0.4769  0.0571 -0.0810
 3694TIP3    H132573   5.728   3.589   0.629 -1.1749 -1.3359  1.3293
 3694TIP3    H232574   5.804   3.461   0.661  1.3664 -0.2086 -0.0164
 3695TIP3   OH232575   6.094   6.115   2.037 -0.2138 -0.5523 -0.1140
 3695TIP3    H132576   6.042   6.152   1.967  0.5060 -0.6067 -0.6844
 3695TIP3    H232577   6.102   6.186   2.101  3.2279  1.1592 -2.3140
 3696TIP3   OH232578   2.105   3.641  14.825  0.3971  0.1579 -0.2045
 3696TIP3    H132579   2.078   3.703  14.893  0.0539  1.0525 -1.1662
 3696TIP3    H232580   2.103   3.690  14.744 -0.1726 -1.1872 -1.0305
 3697TIP3   OH232581   5.951   5.326   0.137 -0.4486 -0.1458  0.0344
 3697TIP3    H132582   5.901   5.246   0.119  2.3818 -1.6384 -1.5443
 3697TIP3    H232583   5.962   5.366   0.050 -2.5746  2.4878  0.8999
 3698TIP3   OH232584   1.067   1.660  14.349 -0.2861  0.7035 -0.1542
 3698TIP3    H132585   1.162   1.661  14.336 -0.3406 -0.7768 -0.7533
 3698TIP3    H232586   1.056   1.649  14.444  0.1606 -1.7627 -0.3671
 3699TIP3   OH232587   6.486   3.780  16.612 -0.1067  0.2689 -0.4557
 3699TIP3    H132588   6.543   3.844  16.568  0.5186 -1.0255 -1.5747
 3699TIP3    H232589   6.403   3.827  16.624 -0.3145  0.6896 -3.0437
 3700TIP3   OH232590   4.772   2.566  13.543  0.0162 -0.1849 -0.2063
 3700TIP3    H132591   4.795   2.641  13.487  0.8373  0.3483  0.8347
 3700TIP3    H232592   4.771   2.492  13.483 -1.9105  0.8219 -1.4603
 3701TIP3   OH232593   6.737   4.241  14.687 -0.4463 -0.4954  0.7294
 3701TIP3    H132594   6.813   4.189  14.715 -0.2880 -0.3240  0.6191
 3701TIP3    H232595   6.732   4.313  14.750  0.0912  0.0578  0.1452
 3702TIP3   OH232596   6.662   4.302   6.086 -0.1037  0.5833 -0.2525
 3702TIP3    H132597   6.724   4.273   6.153 -1.3017  0.1649  0.7106
 3702TIP3    H232598   6.625   4.383   6.122 -1.1297  0.0824 -0.1649
 3703TIP3   OH232599   3.209   6.549   2.900 -0.1554 -0.2462  0.6531
 3703TIP3    H132600   3.178   6.537   2.810 -0.5485 -0.4754  0.8183
 3703TIP3    H232601   3.281   6.612   2.892 -0.7161  0.3593  0.2755
 3704TIP3   OH232602   3.815   6.103  10.941  0.6700  0.4087  0.5944
 3704TIP3    H132603   3.908   6.120  10.928  0.5627  1.7241  1.4347
 3704TIP3    H232604   3.780   6.186  10.971 -1.4112  0.8769 -2.8795
 3705TIP3   OH232605   1.473   4.828  16.163  0.0914  0.0749  0.0640
 3705TIP3    H132606   1.414   4.761  16.198  1.0267  0.0438  1.6261
 3705TIP3    H232607   1.471   4.815  16.068 -1.3382 -0.8190  0.2121
 3706TIP3   OH232608   6.524   6.670   1.066  0.1919  0.5111  0.0152
 3706TIP3    H132609   6.594   6.635   1.120  0.8584 -0.0458 -1.1813
 3706TIP3    H232610   6.563   6.747   1.023  0.2892 -0.1586 -1.1307
 3707TIP3   OH232611   6.675   3.675   5.768 -0.0840 -0.0607  0.0099
 3707TIP3    H132612   6.753   3.660   5.821  0.1387 -0.9617 -0.5620
 3707TIP3    H232613   6.691   3.759   5.726 -0.4920  0.9162  1.7566
 3708TIP3   OH232614   4.621   5.808  11.222 -0.1555  0.0520 -0.6133
 3708TIP3    H132615   4.589   5.719  11.209  0.4827 -0.3048  0.1929
 3708TIP3    H232616   4.571   5.861  11.160 -0.4419 -0.8851 -1.1933
 3709TIP3   OH232617   5.534   5.705   5.147  0.3000  0.0628 -0.2576
 3709TIP3    H132618   5.586   5.625   5.138  1.5436  0.9705 -1.4754
 3709TIP3    H232619   5.554   5.738   5.234 -0.2577 -0.9720  0.2663
 3710TIP3   OH232620   0.857   3.612  14.589  0.0771  0.0155  0.2833
 3710TIP3    H132621   0.872   3.518  14.578 -1.8455 -0.1506 -1.3391
 3710TIP3    H232622   0.855   3.646  14.500 -1.7496  1.1398  0.7194
 3711TIP3   OH232623   2.863   1.045   4.413  0.5323  0.2201 -0.1339
 3711TIP3    H132624   2.910   1.043   4.496  0.7299 -0.0190 -0.2512
 3711TIP3    H232625   2.848   0.953   4.392 -2.2843  0.3065  1.2110
 3712TIP3   OH232626   0.857   0.648  11.825 -0.0421 -0.0941 -0.0014
 3712TIP3    H132627   0.883   0.588  11.754  2.5526  0.7581  0.1556
 3712TIP3    H232628   0.849   0.593  11.902  1.1866 -0.4480 -0.1115
 3713TIP3   OH232629   0.209   1.568  17.166  0.1114  0.5534  0.3863
 3713TIP3    H132630   0.220   1.491  17.222 -2.6906 -1.0375 -1.1077
 3713TIP3    H232631   0.248   1.542  17.083 -1.2976  0.5107 -0.2813
 3714TIP3   OH232632   5.740   1.808  11.513 -0.4704  0.1755 -0.2593
 3714TIP3    H132633   5.756   1.762  11.595  0.4306 -0.7964 -0.9682
 3714TIP3    H232634   5.654   1.778  11.484 -1.4996  1.7337  1.1251
 3715TIP3   OH232635   1.844   5.245  11.827 -0.2830 -0.2300  0.2332
 3715TIP3    H132636   1.831   5.305  11.753  0.2388 -0.1920  0.1682
 3715TIP3    H232637   1.842   5.301  11.904  0.6193 -0.0636  0.1433
 3716TIP3   OH232638   0.272   1.355  14.947 -0.1509 -0.1244  0.8373
 3716TIP3    H132639   0.332   1.395  15.009 -0.0378  0.1112  0.5778
 3716TIP3    H232640   0.267   1.418  14.874 -0.1994 -0.4435  0.5629
 3717TIP3   OH232641   6.203   6.394  11.137 -0.2882  0.1963 -0.0491
 3717TIP3    H132642   6.167   6.483  11.136 -0.6983  0.0407  0.3862
 3717TIP3    H232643   6.185   6.360  11.049 -0.2661  0.4894 -0.1691
 3718TIP3   OH232644   2.942   3.815   2.422  0.1872 -0.3440  0.6050
 3718TIP3    H132645   2.976   3.854   2.342 -0.3617  1.2364  1.1201
 3718TIP3    H232646   2.863   3.768   2.395 -0.0169  0.2126  0.2210
 3719TIP3   OH232647   0.948   6.221   5.381 -0.4325  0.1995  0.1267
 3719TIP3    H132648   0.936   6.277   5.458  0.9374  1.4766 -0.5797
 3719TIP3    H232649   0.908   6.269   5.309 -2.2644 -1.2673  0.1012
 3720TIP3   OH232650   2.193   3.259   3.257  0.1268 -0.2681 -0.1051
 3720TIP3    H132651   2.103   3.231   3.239 -0.2896  0.3969  0.8997
 3720TIP3    H232652   2.237   3.179   3.287 -0.9074 -0.0240  2.1827
 3721TIP3   OH232653   0.456   2.538  13.354 -0.9131 -0.3645 -0.1167
 3721TIP3    H132654   0.537   2.536  13.304  0.2845 -1.2566  1.7930
 3721TIP3    H232655   0.396   2.591  13.302  0.6459 -0.3439 -1.9176
 3722TIP3   OH232656   6.011   4.133   0.712  0.1158 -0.4066 -0.4934
 3722TIP3    H132657   5.916   4.138   0.703  0.1115 -0.5016 -0.5111
 3722TIP3    H232658   6.042   4.222   0.697 -0.0714 -0.1182  0.7968
 3723TIP3   OH232659   0.572   0.093   5.188  0.4428 -0.4228 -0.2214
 3723TIP3    H132660   0.527   0.014   5.159 -2.0442  0.4164  1.1605
 3723TIP3    H232661   0.598   0.075   5.278 -1.1338  0.7155  0.4753
 3724TIP3   OH232662   0.654   6.114  11.491 -0.1698  0.2428 -0.3031
 3724TIP3    H132663   0.594   6.141  11.422 -0.0776  0.1673 -0.4124
 3724TIP3    H232664   0.719   6.059  11.447  0.0293  0.3941 -0.1994
 3725TIP3   OH232665   6.735   5.142   5.215 -0.1045  0.0060 -0.4293
 3725TIP3    H132666   6.775   5.179   5.136 -1.0402 -0.3415 -1.0776
 3725TIP3    H232667   6.796   5.164   5.286  0.6847  0.4202 -1.2308
 3726TIP3   OH232668   4.805   6.089   0.542  0.4264 -0.2780  0.3698
 3726TIP3    H132669   4.829   6.085   0.449  0.7946 -0.1708  0.4607
 3726TIP3    H232670   4.888   6.080   0.589  0.2810  0.0207  0.6848
 3727TIP3   OH232671   3.038   3.586   1.179 -0.1477 -0.5730 -0.3406
 3727TIP3    H132672   2.982   3.654   1.142 -0.2062  0.3462  1.3919
 3727TIP3    H232673   2.997   3.564   1.263  3.0230  1.3930  1.8114
 3728TIP3   OH232674   5.935   4.821   6.564 -0.1113 -0.2072 -0.5641
 3728TIP3    H132675   5.944   4.727   6.580 -0.4327 -0.1158  0.1844
 3728TIP3    H232676   5.905   4.827   6.474 -0.9324 -0.8600 -0.3401
 3729TIP3   OH232677   2.959   1.272  16.025 -0.1769  0.5484  0.3673
 3729TIP3    H132678   2.967   1.220  15.945  0.9836 -0.0056  0.8433
 3729TIP3    H232679   3.008   1.352  16.007 -0.9614  0.9772  0.0827
 3730TIP3   OH232680   0.381   6.624  14.895 -0.0186 -0.2631 -0.0027
 3730TIP3    H132681   0.291   6.605  14.869 -0.0686  1.2097 -0.9456
 3730TIP3    H232682   0.421   6.663  14.817  0.7831  1.1559  1.1041
 3731TIP3   OH232683   5.159   0.364  14.630  0.7588  0.2549  0.0653
 3731TIP3    H132684   5.228   0.426  14.609  0.2596  0.5372 -0.7472
 3731TIP3    H232685   5.084   0.418  14.653  0.1392 -0.0302 -1.2218
 3732TIP3   OH232686   0.591   1.064  10.885  0.7547  0.2363 -0.2862
 3732TIP3    H132687   0.625   1.104  10.965 -2.0839  0.9584  0.6067
 3732TIP3    H232688   0.598   1.133  10.819  0.5811  0.5375  0.0089
 3733TIP3   OH232689   1.191   0.431   1.737  0.2251 -0.0962  0.1718
 3733TIP3    H132690   1.185   0.354   1.681  1.6083 -0.4679  0.5156
 3733TIP3    H232691   1.131   0.412   1.810  1.0009 -1.1345  0.5672
 3734TIP3   OH232692   1.969   4.234  15.737  0.1045 -0.1906  0.8390
 3734TIP3    H132693   1.997   4.143  15.721  1.9755  0.7758 -1.8382
 3734TIP3    H232694   2.050   4.281  15.755 -0.8693  0.9444  2.3022
 3735TIP3   OH232695   0.497   4.142  16.212 -0.6836  0.4145  0.0344
 3735TIP3    H132696   0.457   4.090  16.142 -0.0459 -0.6275  0.4347
 3735TIP3    H232697   0.484   4.233  16.185 -1.4630  0.0426 -0.8688
 3736TIP3   OH232698   4.685   3.079   4.480  0.1347  0.7328  0.1658
 3736TIP3    H132699   4.622   3.142   4.515 -1.0993 -1.1924  1.5438
 3736TIP3    H232700   4.771   3.115   4.503 -0.5909  0.7070  3.1421
 3737TIP3   OH232701   4.343   3.038  16.461  0.0593 -0.0576 -0.6393
 3737TIP3    H132702   4.371   2.998  16.543  0.2354 -0.3140 -0.8238
 3737TIP3    H232703   4.384   2.984  16.393  0.0144  0.2271 -0.8936
 3738TIP3   OH232704   6.059   3.068   5.089  0.2379  0.0916  0.1487
 3738TIP3    H132705   6.049   3.007   5.162  0.8781  0.7183  0.7602
 3738TIP3    H232706   6.128   3.029   5.035 -2.2354 -1.9113 -1.7188
 3739TIP3   OH232707   3.319   1.426   3.391 -0.5360  0.1206 -0.0185
 3739TIP3    H132708   3.403   1.387   3.413 -0.1881  0.4817 -0.7327
 3739TIP3    H232709   3.304   1.403   3.300 -2.0696 -1.5029  0.6025
 3740TIP3   OH232710   6.283   0.487  11.202 -0.5081 -0.2699 -0.1956
 3740TIP3    H132711   6.314   0.453  11.286  1.3392  1.2889 -0.2340
 3740TIP3    H232712   6.295   0.414  11.141 -0.9504 -1.0885  0.6831
 3741TIP3   OH232713   4.967   4.090  15.439  0.2045 -0.6141 -0.4138
 3741TIP3    H132714   4.999   4.020  15.381  0.4777 -0.7744 -0.0704
 3741TIP3    H232715   4.913   4.045  15.503 -0.9332 -0.3103 -1.1455
 3742TIP3   OH232716   1.189   0.423   4.976 -0.4572 -0.1136  0.0857
 3742TIP3    H132717   1.130   0.498   4.964 -1.0459 -0.1579  2.3835
 3742TIP3    H232718   1.192   0.411   5.071  0.9086 -2.0017 -0.1826
 3743TIP3   OH232719   3.810   3.785   2.534 -0.0398 -0.1967  0.0363
 3743TIP3    H132720   3.792   3.770   2.627 -2.1295 -0.9116 -0.4415
 3743TIP3    H232721   3.893   3.740   2.518  0.1396 -0.4073  1.4648
 3744TIP3   OH232722   6.493   3.970  13.308  0.1155  0.3816  0.1407
 3744TIP3    H132723   6.551   3.997  13.237 -0.3402 -0.4953 -0.5730
 3744TIP3    H232724   6.491   4.045  13.368  3.6285 -0.3111  1.2509
 3745TIP3   OH232725   0.715   4.989   2.247 -0.3623 -0.0085 -0.4589
 3745TIP3    H132726   0.758   5.057   2.299 -0.8443  0.1082 -0.2109
 3745TIP3    H232727   0.647   5.036   2.198 -0.6031 -0.2914 -0.3945
 3746TIP3   OH232728   3.120   0.120   4.010 -0.2937  0.2248  0.2294
 3746TIP3    H132729   3.113   0.104   3.916  1.6043 -1.1846  0.2850
 3746TIP3    H232730   3.073   0.047   4.050 -0.7264  0.5852  0.3799
 3747TIP3   OH232731   1.520   5.367  15.861  0.0194 -0.2134  0.6134
 3747TIP3    H132732   1.430   5.333  15.870  0.0993 -0.8115 -0.6667
 3747TIP3    H232733   1.514   5.459  15.888 -0.7703 -0.5172  1.4995
 3748TIP3   OH232734   4.460   6.644  11.886 -0.4386 -0.4038 -0.0931
 3748TIP3    H132735   4.371   6.642  11.849 -0.1110  2.3032 -1.1548
 3748TIP3    H232736   4.517   6.661  11.811  0.6319  1.2570  1.0613
 3749TIP3   OH232737   3.917   0.265  13.706  0.2995  0.5164  0.0202
 3749TIP3    H132738   3.959   0.199  13.650 -1.0465 -0.5215  0.1938
 3749TIP3    H232739   3.829   0.273  13.671 -0.5469 -0.1083  1.9251
 3750TIP3   OH232740   6.521   5.989  17.208 -0.0381  0.5146 -0.2962
 3750TIP3    H132741   6.586   6.060  17.206  0.9966 -0.4044  0.3700
 3750TIP3    H232742   6.449   6.024  17.260  1.6127  0.1182  2.3158
 3751TIP3   OH232743   4.157   0.331  17.136 -0.6486  0.3941  0.6374
 3751TIP3    H132744   4.188   0.343  17.046 -0.2986 -1.0597  0.5613
 3751TIP3    H232745   4.121   0.243  17.138 -0.4391  0.3345  1.9873
 3752TIP3   OH232746   2.855   1.787  16.374  0.4781 -0.4497  0.0147
 3752TIP3    H132747   2.855   1.708  16.320 -0.2012 -2.0519  2.2944
 3752TIP3    H232748   2.947   1.807  16.387  0.6812 -2.0863  1.1528
 3753TIP3   OH232749   6.555   1.829  15.227  0.0642  0.1852  0.6854
 3753TIP3    H132750   6.607   1.751  15.208 -2.2114 -1.6645  1.6690
 3753TIP3    H232751   6.600   1.900  15.182  1.8017 -1.8272 -0.8691
 3754TIP3   OH232752   1.364   3.802   5.071 -0.0283  0.8888 -0.6589
 3754TIP3    H132753   1.378   3.851   4.990  0.6102  2.7239  0.5406
 3754TIP3    H232754   1.359   3.710   5.043  2.9327  1.2263 -2.4801
 3755TIP3   OH232755   5.034   0.043   4.664  0.0024 -0.5594  0.6172
 3755TIP3    H132756   5.103   0.007   4.720  1.1214  0.1386 -0.2859
 3755TIP3    H232757   5.034  -0.013   4.587  0.8247  0.5263 -0.1922
 3756TIP3   OH232758   5.615   6.188  12.505  1.1210  0.6024  0.5331
 3756TIP3    H132759   5.648   6.207  12.592 -0.2505  0.9980  0.9775
 3756TIP3    H232760   5.578   6.270  12.474 -0.8236 -0.1711  0.6865
 3757TIP3   OH232761   1.589   3.260  13.606 -0.2737  0.3981 -0.2768
 3757TIP3    H132762   1.672   3.289  13.568 -0.3113 -0.0608 -0.6994
 3757TIP3    H232763   1.523   3.281  13.540 -0.3427 -0.3502 -0.4508
 3758TIP3   OH232764   6.168   5.722  11.060  0.7004 -0.3770 -0.0843
 3758TIP3    H132765   6.105   5.762  11.000  0.1651 -0.0171  0.7007
 3758TIP3    H232766   6.144   5.629  11.062  0.7757 -0.4088 -0.4834
 3759TIP3   OH232767   0.993   5.566  13.899  0.1852  0.1940  0.0267
 3759TIP3    H132768   0.946   5.610  13.827  0.8708 -0.3106 -0.7431
 3759TIP3    H232769   1.025   5.637  13.954  0.5283  0.6370 -0.7301
 3760TIP3   OH232770   0.952   5.008   6.118 -0.3388  0.3825 -0.8155
 3760TIP3    H132771   0.908   4.977   6.197 -0.2244 -1.3680 -1.4248
 3760TIP3    H232772   1.016   4.940   6.098  0.2404  1.2375 -1.9286
 3761TIP3   OH232773   4.059   3.422   2.566 -0.3377  0.2775 -0.1432
 3761TIP3    H132774   4.054   3.394   2.474 -1.3214  0.7772 -0.2501
 3761TIP3    H232775   4.071   3.340   2.615 -0.1378 -0.0256 -0.6889
 3762TIP3   OH232776   0.146   2.003   3.690 -0.2403 -0.1835  0.1368
 3762TIP3    H132777   0.163   1.953   3.770  1.3150  0.3866  0.1807
 3762TIP3    H232778   0.052   2.020   3.692 -0.3014 -0.6300  1.5783
 3763TIP3   OH232779   1.537   5.805  11.570  0.3276  0.4343  0.2404
 3763TIP3    H132780   1.510   5.852  11.491  1.2152 -0.7002 -0.7484
 3763TIP3    H232781   1.481   5.841  11.639  0.7074  2.6642 -0.5577
 3764TIP3   OH232782   0.542   0.290   0.967 -0.6180  0.1640  0.1011
 3764TIP3    H132783   0.635   0.290   0.987 -0.3791 -0.8830 -0.9538
 3764TIP3    H232784   0.499   0.286   1.052  0.2861  0.6268  0.5923
 3765TIP3   OH232785   3.082   6.720  15.513 -0.1180 -0.7020 -0.4253
 3765TIP3    H132786   3.100   6.761  15.598  0.0494 -0.7120 -0.4563
 3765TIP3    H232787   3.034   6.787  15.464 -0.6750 -0.8818 -0.1362
 3766TIP3   OH232788   6.541   3.217   1.816  0.2602 -0.0132  0.5680
 3766TIP3    H132789   6.542   3.290   1.878  0.1922  0.5229 -0.0518
 3766TIP3    H232790   6.511   3.256   1.734 -0.3791 -0.8739  0.3897
 3767TIP3   OH232791   2.441   3.995  12.572 -0.3196 -0.0731 -0.4698
 3767TIP3    H132792   2.449   4.068  12.633  0.1807 -1.4854  1.2004
 3767TIP3    H232793   2.493   3.925  12.612  1.1709 -0.6004 -3.2048
 3768TIP3   OH232794   6.346   3.990   1.978  0.1470 -0.4113  0.0096
 3768TIP3    H132795   6.347   3.996   1.882 -0.5817 -0.4922 -0.0041
 3768TIP3    H232796   6.298   3.909   1.996 -3.5837  1.8083  0.5362
 3769TIP3   OH232797   6.014   3.133   0.962  0.0837 -0.0137  0.1656
 3769TIP3    H132798   6.012   3.220   1.001  0.6549 -0.4483  1.1771
 3769TIP3    H232799   5.934   3.128   0.910  0.4838  1.4560 -0.6542
 3770TIP3   OH232800   3.842   5.208   5.069  0.6335  0.1697  0.3769
 3770TIP3    H132801   3.824   5.253   5.152 -1.1579  0.0867  0.0575
 3770TIP3    H232802   3.936   5.194   5.070  0.9215  1.9444  1.4993
 3771TIP3   OH232803   4.238   5.952   3.819 -0.2053  0.8050  0.1581
 3771TIP3    H132804   4.224   5.945   3.913  1.0911  0.0514  0.3068
 3771TIP3    H232805   4.226   6.045   3.800  2.5547  1.5216  1.5984
 3772TIP3   OH232806   6.293   1.061   5.761  0.3013  0.3548 -0.1432
 3772TIP3    H132807   6.272   1.099   5.676 -0.6958  0.3848  0.1131
 3772TIP3    H232808   6.238   0.983   5.767  2.8317 -1.5769 -0.9696
 3773TIP3   OH232809   1.268   6.488  13.679 -0.2805  0.3013 -0.0669
 3773TIP3    H132810   1.327   6.413  13.668  0.8518  1.2559 -0.5768
 3773TIP3    H232811   1.190   6.451  13.721  0.5683 -1.0274  0.3775
 3774TIP3   OH232812   3.760   5.106   4.346 -0.3425  0.3160  0.2182
 3774TIP3    H132813   3.797   5.035   4.293 -2.9935 -1.7256  0.9638
 3774TIP3    H232814   3.834   5.164   4.364  1.8671 -2.1482 -0.5983
 3775TIP3   OH232815   2.932   6.271   2.140 -0.0522  0.6591 -0.6787
 3775TIP3    H132816   2.842   6.240   2.127  0.2901 -1.0502  0.7206
 3775TIP3    H232817   2.980   6.235   2.066  0.5733 -3.3469  1.5312
 3776TIP3   OH232818   4.382   5.055  11.373 -0.6869 -0.1052 -0.5081
 3776TIP3    H132819   4.346   5.045  11.285 -2.9001 -1.3660  0.5113
 3776TIP3    H232820   4.434   5.136  11.368  0.6960 -1.0774 -3.4128
 3777TIP3   OH232821   0.429   1.041  13.889 -0.0356  0.2238  0.0703
 3777TIP3    H132822   0.444   0.973  13.954 -0.5596  1.4836  1.5347
 3777TIP3    H232823   0.335   1.037  13.872 -0.2381  1.2398  0.9151
 3778TIP3   OH232824   0.519   0.478  10.247  0.3962 -0.2491 -0.2891
 3778TIP3    H132825   0.605   0.474  10.206 -0.8374  1.0901 -3.1312
 3778TIP3    H232826   0.531   0.534  10.323  2.5296 -1.9384  0.6561
 3779TIP3   OH232827   1.346   0.533  11.653 -0.4977 -0.4421  0.5291
 3779TIP3    H132828   1.329   0.626  11.669 -0.0070 -0.6552  2.5345
 3779TIP3    H232829   1.408   0.531  11.580  0.2206  0.8627  1.0839
 3780TIP3   OH232830   0.405   4.274   4.828 -0.8107  0.3548  0.5109
 3780TIP3    H132831   0.323   4.320   4.813 -1.8277 -1.3199  0.7422
 3780TIP3    H232832   0.423   4.229   4.745 -1.3102 -1.0778  1.1687
 3781TIP3   OH232833   3.920   5.344  13.845 -0.2492  0.8352 -0.3033
 3781TIP3    H132834   3.827   5.352  13.866 -0.3767  1.6364 -1.1155
 3781TIP3    H232835   3.964   5.404  13.906 -0.1373 -0.4059  0.8608
 3782TIP3   OH232836   4.649   6.300   4.846 -0.5627 -0.1367  0.7188
 3782TIP3    H132837   4.701   6.244   4.903  0.0196 -0.5331 -0.1934
 3782TIP3    H232838   4.702   6.379   4.835  1.1812 -1.6487 -2.4570
 3783TIP3   OH232839   0.108   6.082   5.740 -0.1036  0.1791 -0.5727
 3783TIP3    H132840   0.157   6.105   5.819  2.7550  1.7810 -2.7236
 3783TIP3    H232841   0.018   6.110   5.759  0.9327  2.4405  1.3282
 3784TIP3   OH232842   3.583   4.740   3.194 -0.0802 -0.5169  0.0577
 3784TIP3    H132843   3.653   4.682   3.222 -1.0605 -0.5536  2.6035
 3784TIP3    H232844   3.577   4.806   3.264 -1.3707  0.5277 -1.0052
 3785TIP3   OH232845   6.760   1.152   3.813  0.0085  0.0031  0.3124
 3785TIP3    H132846   6.813   1.192   3.744 -0.0302  0.0298  0.2977
 3785TIP3    H232847   6.723   1.227   3.861  0.3287 -0.0148  0.5896
 3786TIP3   OH232848   4.421   0.151  17.037  0.1795 -0.2030  0.0971
 3786TIP3    H132849   4.413   0.056  17.047 -0.3389 -0.3777 -1.7267
 3786TIP3    H232850   4.482   0.162  16.964 -1.1548  0.8376 -0.8737
 3787TIP3   OH232851   1.463   5.424  13.011 -0.4220  0.1238 -0.3862
 3787TIP3    H132852   1.494   5.404  12.922 -1.2910 -1.0275 -0.4381
 3787TIP3    H232853   1.405   5.499  12.999  1.1782  1.3830 -0.4816
 3788TIP3   OH232854   0.054   4.747   5.608  0.0259 -0.0574  0.1997
 3788TIP3    H132855  -0.025   4.744   5.555 -0.8852  0.9233  1.4667
 3788TIP3    H232856   0.024   4.776   5.694  1.5088 -1.3176  1.1718
 3789TIP3   OH232857   4.681   2.126  13.502  0.4709 -0.3945  0.0048
 3789TIP3    H132858   4.754   2.098  13.559  0.2287  0.2680  0.6519
 3789TIP3    H232859   4.616   2.161  13.563  1.1110  2.3581 -0.8170
 3790TIP3   OH232860   2.554   4.361   0.951  0.5242 -0.3188  0.2757
 3790TIP3    H132861   2.631   4.417   0.961 -0.7954  1.3440  1.4107
 3790TIP3    H232862   2.530   4.370   0.858  0.6384  0.5874  0.3295
 3791TIP3   OH232863   3.971   5.554  16.127 -0.7089  0.1584  0.6449
 3791TIP3    H132864   3.925   5.470  16.125  2.4037 -1.6225  0.7199
 3791TIP3    H232865   3.992   5.572  16.036  0.1417 -0.0206  0.8024
 3792TIP3   OH232866   1.292   4.558  12.730 -0.0272 -0.0056  1.0374
 3792TIP3    H132867   1.386   4.574  12.724 -0.1648  0.7807  0.9977
 3792TIP3    H232868   1.285   4.478  12.781  0.6637 -0.0818  1.0213
 3793TIP3   OH232869   1.107   2.463  13.166  0.8191 -0.5696  0.4174
 3793TIP3    H132870   1.033   2.513  13.199  1.0498 -0.9725  1.5775
 3793TIP3    H232871   1.167   2.457  13.241  2.3389  0.3380 -0.6927
 3794TIP3   OH232872   0.225   4.189  14.567 -0.2614 -0.5209  0.3723
 3794TIP3    H132873   0.182   4.262  14.524  2.1954  0.9814  0.3836
 3794TIP3    H232874   0.254   4.224  14.651  1.4316 -1.2921  0.1446
 3795TIP3   OH232875   4.947   3.994   4.762 -0.1535 -0.2627 -1.1018
 3795TIP3    H132876   4.949   3.912   4.713 -0.1028 -0.2884 -1.0571
 3795TIP3    H232877   4.906   3.971   4.846  0.7575 -0.4552 -0.7044
 3796TIP3   OH232878   1.665   5.188   2.947  0.0977  0.3169 -0.1661
 3796TIP3    H132879   1.616   5.152   2.874 -0.7022  0.7218  0.1606
 3796TIP3    H232880   1.699   5.271   2.915  1.5676 -0.4979 -0.7735
 3797TIP3   OH232881   3.926   2.271   4.042  0.4446 -0.5810 -0.4648
 3797TIP3    H132882   3.915   2.300   3.951 -1.7393  0.4742  0.1012
 3797TIP3    H232883   4.021   2.272   4.056  0.7421  0.3327 -2.3915
 3798TIP3   OH232884   6.319   1.350   4.843 -0.2950  0.1971  0.0281
 3798TIP3    H132885   6.319   1.422   4.906  1.3425 -0.5589  0.9173
 3798TIP3    H232886   6.381   1.377   4.775 -0.2168 -0.0602 -0.0031
 3799TIP3   OH232887   3.234   0.124   4.251 -0.1957  0.2239  0.1762
 3799TIP3    H132888   3.192   0.160   4.172 -0.7239 -1.5238 -0.3503
 3799TIP3    H232889   3.293   0.056   4.218 -2.4271 -2.4144  1.4723
 3800TIP3   OH232890   2.022   3.704  12.276  0.5192 -0.0078 -0.3307
 3800TIP3    H132891   2.021   3.727  12.183  1.3469  0.7101 -0.1665
 3800TIP3    H232892   2.082   3.768  12.316 -1.4875  1.0566  1.0559
 3801TIP3   OH232893   2.192   6.617  11.858 -0.0669  0.8002 -0.3038
 3801TIP3    H132894   2.121   6.567  11.899  0.3634  1.4008  1.2167
 3801TIP3    H232895   2.148   6.686  11.809 -0.5421  1.0361  0.4506
 3802TIP3   OH232896   3.413   5.867  15.815  0.3508  1.5662  0.1220
 3802TIP3    H132897   3.372   5.782  15.835  2.2298  0.5165 -0.3400
 3802TIP3    H232898   3.388   5.923  15.888 -0.6423  0.5261  0.6121
 3803TIP3   OH232899   0.664   3.127   1.534  0.0848  0.3984 -0.1412
 3803TIP3    H132900   0.700   3.094   1.451  1.2657 -1.0812  0.9364
 3803TIP3    H232901   0.577   3.088   1.539  0.6442 -0.8196  0.0953
 3804TIP3   OH232902   6.331   5.869   5.622 -0.1606  0.1297  0.1081
 3804TIP3    H132903   6.260   5.860   5.558  1.6346  1.9285 -2.2413
 3804TIP3    H232904   6.386   5.792   5.609  0.3269  0.6081 -0.7221
 3805TIP3   OH232905   1.635   1.161  14.459  0.2075 -0.2895  0.2754
 3805TIP3    H132906   1.547   1.125  14.454  1.0753 -2.1921 -2.4859
 3805TIP3    H232907   1.676   1.114  14.531 -0.9174  0.4031  1.3864
 3806TIP3   OH232908   3.355   0.516   4.188 -0.3741  0.1346 -0.8606
 3806TIP3    H132909   3.283   0.577   4.202 -0.9804 -0.7311 -0.1342
 3806TIP3    H232910   3.430   0.557   4.229 -1.1090 -0.2654  0.9608
 3807TIP3   OH232911   2.316   2.744   2.449  0.5556 -0.0565 -0.2141
 3807TIP3    H132912   2.371   2.726   2.525 -0.5224  1.8131  1.0514
 3807TIP3    H232913   2.250   2.804   2.481 -1.3598 -1.1073 -2.0750
 3808TIP3   OH232914   5.974   4.753   4.271 -0.1474  0.7484  0.1070
 3808TIP3    H132915   6.039   4.693   4.305 -0.3267  0.0988 -0.6825
 3808TIP3    H232916   5.996   4.763   4.178  0.0421  2.1079  0.2819
 3809TIP3   OH232917   6.746   6.133   6.485 -0.2817  0.1733  0.5856
 3809TIP3    H132918   6.829   6.097   6.454  0.1308  1.7790 -0.2129
 3809TIP3    H232919   6.702   6.166   6.406 -2.9093 -3.0563  0.6148
 3810TIP3   OH232920   1.368   2.241   4.720 -0.2222  0.2332  0.4858
 3810TIP3    H132921   1.318   2.163   4.695 -0.5101  0.7199 -0.4954
 3810TIP3    H232922   1.313   2.314   4.692  1.5028  0.7865 -1.5270
 3811TIP3   OH232923   1.358   2.193   3.932  0.1720  0.6092  0.8007
 3811TIP3    H132924   1.366   2.187   3.837  1.0755 -0.1853  0.9154
 3811TIP3    H232925   1.280   2.246   3.946  0.2667  1.0841 -0.3852
 3812TIP3   OH232926   0.469   6.459   0.830 -0.4310  0.0863 -0.0937
 3812TIP3    H132927   0.462   6.369   0.859 -0.1505 -0.5901 -2.0042
 3812TIP3    H232928   0.559   6.485   0.852 -0.9606  0.3931  1.7492
 3813TIP3   OH232929   1.240   3.380   2.304  0.4541 -0.6221  0.2084
 3813TIP3    H132930   1.238   3.388   2.208 -1.0931  2.2166  0.4391
 3813TIP3    H232931   1.263   3.288   2.319  1.0510 -1.0551 -2.8712
 3814TIP3   OH232932   1.616   5.254  12.408  0.4467  0.3723 -0.5257
 3814TIP3    H132933   1.655   5.269  12.321 -1.2968  3.2956 -0.8972
 3814TIP3    H232934   1.631   5.336  12.455 -1.2719 -0.0856  0.8763
 3815TIP3   OH232935   1.465   4.354  15.016  0.2345  0.3133  0.2102
 3815TIP3    H132936   1.457   4.388  14.926 -1.5907 -1.4802 -0.3259
 3815TIP3    H232937   1.555   4.320  15.020  0.9358  2.0046 -0.3381
 3816TIP3   OH232938   2.328   1.639  11.630  0.1024 -0.2386  0.0499
 3816TIP3    H132939   2.371   1.563  11.590  1.3422  0.5293 -0.0753
 3816TIP3    H232940   2.350   1.712  11.573 -0.1774  0.4192  0.7855
 3817TIP3   OH232941   6.229   4.956  13.945 -0.2179 -0.0234  0.0228
 3817TIP3    H132942   6.274   5.032  13.983  0.3655 -0.4282  0.1369
 3817TIP3    H232943   6.228   4.974  13.851  0.3421 -0.0956 -0.0017
 3818TIP3   OH232944   0.323   1.097  13.113 -0.2268 -0.1657 -0.5084
 3818TIP3    H132945   0.407   1.143  13.123 -0.1482 -0.0251 -1.6991
 3818TIP3    H232946   0.259   1.155  13.153  0.0993  0.2252 -0.5426
 3819TIP3   OH232947   1.349   2.752   1.134  0.1336  0.5486  0.0340
 3819TIP3    H132948   1.434   2.767   1.176  0.6503  1.0753 -1.1874
 3819TIP3    H232949   1.368   2.690   1.063 -0.5829  0.3584  0.0051
 3820TIP3   OH232950   3.958   2.399  11.112  0.1112 -0.3473  0.6741
 3820TIP3    H132951   3.872   2.406  11.071  0.7486 -1.0699 -0.7877
 3820TIP3    H232952   4.015   2.453  11.058  0.7190 -0.3965  1.2641
 3821TIP3   OH232953   6.388   6.327  11.315  0.5922 -0.3048  0.4813
 3821TIP3    H132954   6.329   6.346  11.242  1.7658  1.5057 -0.0254
 3821TIP3    H232955   6.392   6.231  11.317 -2.0338 -0.4493  0.2945
 3822TIP3   OH232956   3.788   4.285  11.379  0.4610  0.8866 -0.6372
 3822TIP3    H132957   3.859   4.322  11.432  0.2168 -0.3106  0.5450
 3822TIP3    H232958   3.718   4.267  11.442 -0.1084  0.1201 -1.4844
 3823TIP3   OH232959   4.043   0.868  12.230  0.2423  0.0159  0.0283
 3823TIP3    H132960   4.127   0.856  12.273  0.3281 -1.0992 -0.4400
 3823TIP3    H232961   3.981   0.881  12.302  0.7213  0.3384  0.3883
 3824TIP3   OH232962   5.256   1.991  13.158  0.0602  0.2108 -0.2026
 3824TIP3    H132963   5.173   1.977  13.203 -0.6633 -0.4779 -1.7050
 3824TIP3    H232964   5.236   1.977  13.065  2.1391 -1.2813 -0.4630
 3825TIP3   OH232965   5.266   0.198  14.831  0.2428  0.9095  0.1499
 3825TIP3    H132966   5.215   0.253  14.772 -1.7488  0.7077  1.6387
 3825TIP3    H232967   5.285   0.254  14.906  0.7831  0.4645  0.3548
 3826TIP3   OH232968   3.662   2.857   5.647 -0.4262 -0.2749 -1.0891
 3826TIP3    H132969   3.586   2.827   5.596  0.1674  0.0755 -2.1855
 3826TIP3    H232970   3.649   2.818   5.733 -0.5123 -2.3937 -2.0252
 3827TIP3   OH232971   5.281   3.178   0.683  0.3196  0.4492 -0.4281
 3827TIP3    H132972   5.240   3.092   0.687  0.3681  0.4471  0.1460
 3827TIP3    H232973   5.284   3.199   0.590  2.2808 -1.1409 -0.7881
 3828TIP3   OH232974   5.460   2.711   3.500 -0.7887 -0.1734  0.1498
 3828TIP3    H132975   5.445   2.665   3.418  0.2571 -1.9385  0.9294
 3828TIP3    H232976   5.425   2.653   3.567  1.6537 -0.4458  1.2486
 3829TIP3   OH232977   4.403   1.766   4.172  0.4102  0.1600  0.0427
 3829TIP3    H132978   4.316   1.794   4.142  0.5776  0.0711 -0.5455
 3829TIP3    H232979   4.391   1.747   4.265  0.0653  1.2197  0.2229
 3830TIP3   OH232980   0.321   4.047  11.257  0.0316 -0.0772 -0.4268
 3830TIP3    H132981   0.233   4.013  11.240  0.1962 -0.5456 -0.3483
 3830TIP3    H232982   0.338   4.106  11.184 -0.8545  1.0057  0.2227
 3831TIP3   OH232983   4.168   3.366   3.659 -0.4332 -0.2297  0.2181
 3831TIP3    H132984   4.130   3.324   3.737 -0.8516 -0.3603 -0.0550
 3831TIP3    H232985   4.124   3.324   3.585 -0.6162  0.4509 -0.0678
 3832TIP3   OH232986   6.368   1.886   4.344 -0.1084 -0.2534 -0.6373
 3832TIP3    H132987   6.452   1.929   4.361  0.0140 -0.5011 -0.6197
 3832TIP3    H232988   6.304   1.958   4.342 -0.2307 -0.2697  1.4942
 3833TIP3   OH232989   5.409   1.695   0.401 -0.1826  0.0337 -0.5372
 3833TIP3    H132990   5.437   1.638   0.473 -1.4895 -0.6189 -0.5150
 3833TIP3    H232991   5.332   1.650   0.364 -2.0980  2.4377  0.3559
 3834TIP3   OH232992   1.704   1.783  16.806 -0.1190 -0.2512  0.3653
 3834TIP3    H132993   1.623   1.794  16.757  0.9575  1.4636 -1.1114
 3834TIP3    H232994   1.693   1.835  16.885 -0.5122 -0.1419  0.2364
 3835TIP3   OH232995   5.245   2.819   1.978 -0.1920 -0.5100  0.1716
 3835TIP3    H132996   5.279   2.887   2.034  0.1974 -0.9220  0.4395
 3835TIP3    H232997   5.165   2.789   2.021 -0.2624 -0.3537  0.1489
 3836TIP3   OH232998   3.100   3.683  12.117 -0.3927  0.8677  0.2236
 3836TIP3    H132999   3.066   3.769  12.095 -0.3411  0.9719  0.5431
 3836TIP3    H233000   3.115   3.686  12.212  2.2081  1.4562 -0.1469
 3837TIP3   OH233001   3.946   6.001  16.194  0.4640  0.5987  0.0173
 3837TIP3    H133002   3.893   5.929  16.229  0.4149  1.5728  2.0929
 3837TIP3    H233003   3.891   6.041  16.127  0.7770 -1.7018 -1.6229
 3838TIP3   OH233004   6.492   4.369   0.626  0.0325  0.2697  0.0115
 3838TIP3    H133005   6.572   4.364   0.573  0.1860 -0.6646  0.3285
 3838TIP3    H233006   6.446   4.287   0.608  0.7389 -0.6920  2.3287
 3839TIP3   OH233007   5.152   1.473   0.557  0.3629  0.9669 -0.5651
 3839TIP3    H133008   5.081   1.519   0.512 -1.9503 -0.7311  1.2604
 3839TIP3    H233009   5.168   1.395   0.504  0.4906  1.0592 -0.6638
 3840TIP3   OH233010   1.225   4.971   2.034  0.2471  0.5717 -0.1306
 3840TIP3    H133011   1.152   4.966   2.096 -1.2183 -0.1486 -1.8938
 3840TIP3    H233012   1.242   5.065   2.026 -0.3088  0.7333  0.5040
 3841TIP3   OH233013   3.530   3.896   4.512 -0.1644  0.3142  0.5535
 3841TIP3    H133014   3.574   3.904   4.427  0.1851  0.8840  0.7840
 3841TIP3    H233015   3.486   3.812   4.508  0.8466 -0.2170  0.2600
 3842TIP3   OH233016   6.469   5.356  13.231  0.3325  0.4661  0.1903
 3842TIP3    H133017   6.397   5.299  13.258  1.0309 -1.1073 -1.1421
 3842TIP3    H233018   6.426   5.427  13.184 -0.3544 -0.8220 -1.2048
 3843TIP3   OH233019   0.663   1.869  16.758  0.1549 -0.1270 -0.1608
 3843TIP3    H133020   0.630   1.954  16.730 -1.5314  0.3306  2.9988
 3843TIP3    H233021   0.751   1.887  16.792  0.4861  0.0363 -1.0889
 3844TIP3   OH233022   4.956   1.121  12.255 -0.4280  0.4441  0.7227
 3844TIP3    H133023   4.948   1.032  12.221 -0.7657  0.2476  1.3212
 3844TIP3    H233024   4.966   1.175  12.176 -0.0436 -0.1368  0.3666
 3845TIP3   OH233025   4.729   2.634  16.638 -0.5535 -0.0645 -0.0974
 3845TIP3    H133026   4.798   2.683  16.683 -0.7235  1.0801 -1.0519
 3845TIP3    H233027   4.719   2.554  16.689  2.0140 -0.5836 -0.3376
 3846TIP3   OH233028   2.212   0.536   3.267  0.3693  0.3017 -0.5063
 3846TIP3    H133029   2.136   0.590   3.292  0.9954  0.8004  0.3650
 3846TIP3    H233030   2.224   0.552   3.174  0.4073  1.5049 -0.3035
 3847TIP3   OH233031   1.689   6.509   4.550  0.3278  0.0271  0.0039
 3847TIP3    H133032   1.723   6.470   4.630  0.5725  2.4074  1.0863
 3847TIP3    H233033   1.626   6.575   4.580 -0.8905 -0.2733 -1.8168
 3848TIP3   OH233034   6.346   2.447  11.345 -0.0328 -0.7383  0.1797
 3848TIP3    H133035   6.388   2.450  11.432 -0.1852 -0.3459  0.2415
 3848TIP3    H233036   6.253   2.458  11.363  0.0702  0.7282 -0.1400
 3849TIP3   OH233037   1.904   5.084  15.448 -0.3193 -0.8268 -0.6508
 3849TIP3    H133038   1.933   5.175  15.441  1.4248 -1.3760 -0.6525
 3849TIP3    H233039   1.809   5.089  15.435 -0.0545  0.8072 -2.3373
 3850TIP3   OH233040   4.711   3.216  12.198  0.3331  0.4079  0.0516
 3850TIP3    H133041   4.700   3.126  12.228 -0.3166  0.8023  0.9896
 3850TIP3    H233042   4.747   3.263  12.273 -0.9508  1.3100  0.1123
 3851TIP3   OH233043   5.704   3.256  10.649 -0.0329 -0.2552  0.5341
 3851TIP3    H133044   5.611   3.252  10.629  0.1174 -0.3779 -0.1575
 3851TIP3    H233045   5.745   3.283  10.567  0.9614 -4.5100 -0.4824
 3852TIP3   OH233046   1.578   3.483  11.889  0.1896  0.1340 -0.0533
 3852TIP3    H133047   1.487   3.510  11.897 -0.6696 -2.8111  0.6268
 3852TIP3    H233048   1.623   3.560  11.853 -2.3852  1.8803  0.3487
 3853TIP3   OH233049   2.181   4.659   2.321 -0.7460 -0.1224  0.0279
 3853TIP3    H133050   2.237   4.583   2.312  2.6066  2.1944  0.3375
 3853TIP3    H233051   2.161   4.685   2.231  1.0636  0.6725 -0.1641
 3854TIP3   OH233052   5.323   2.623   5.198 -0.2778 -0.1214 -0.0155
 3854TIP3    H133053   5.362   2.536   5.190 -0.4627 -0.3527  1.3904
 3854TIP3    H233054   5.231   2.611   5.176 -0.1023 -0.0799 -0.7944
 3855TIP3   OH233055   4.298   2.410  14.993  0.4987  0.1560  0.4823
 3855TIP3    H133056   4.359   2.395  15.065 -0.9343  1.7470  2.1150
 3855TIP3    H233057   4.330   2.490  14.951 -0.0418  0.6201  0.9312
 3856TIP3   OH233058   6.756   6.209   0.787 -0.1409 -0.0020  0.7661
 3856TIP3    H133059   6.718   6.179   0.870 -0.4020  0.5313  0.8422
 3856TIP3    H233060   6.706   6.163   0.720  0.5532 -0.9934  0.9145
 3857TIP3   OH233061   5.611   0.191   2.496  0.6772  0.2714 -0.1776
 3857TIP3    H133062   5.542   0.257   2.482  0.8550  1.0889  2.4562
 3857TIP3    H233063   5.676   0.210   2.428 -0.1208  1.6907 -0.5781
 3858TIP3   OH233064   6.465   5.082  16.062  0.1956 -0.1214 -0.3658
 3858TIP3    H133065   6.478   5.027  15.984 -1.5122 -0.1638 -0.6544
 3858TIP3    H233066   6.436   5.166  16.028  0.1652  0.0973  0.1930
 3859TIP3   OH233067   6.811   5.343  17.178 -0.3648 -0.6027  0.3294
 3859TIP3    H133068   6.875   5.305  17.118 -0.9105 -0.0661 -0.6017
 3859TIP3    H233069   6.780   5.269  17.230 -0.0561 -1.1164 -0.2094
 3860TIP3   OH233070   3.948   0.210  12.730 -0.3438 -0.0000 -0.1328
 3860TIP3    H133071   3.972   0.119  12.717 -1.1428 -0.0531 -1.3469
 3860TIP3    H233072   3.852   0.210  12.732 -0.5381  1.2257 -3.8731
 3861TIP3   OH233073   4.081   5.604   0.139  0.4013 -0.1736 -0.0354
 3861TIP3    H133074   4.087   5.633   0.048  0.8420 -1.0161 -0.2858
 3861TIP3    H233075   4.140   5.662   0.187  0.6314 -0.1143 -0.3887
 3862TIP3   OH233076   4.277   2.829   4.417 -0.1999  0.2442 -0.2574
 3862TIP3    H133077   4.351   2.767   4.412 -0.3937  0.0841 -1.1200
 3862TIP3    H233078   4.316   2.909   4.454 -0.1206 -0.6455  1.6743
 3863TIP3   OH233079   6.803   4.196   0.262  0.0677 -0.3285 -0.5721
 3863TIP3    H133080   6.855   4.276   0.252 -3.4669  2.0058 -1.2656
 3863TIP3    H233081   6.789   4.188   0.356  0.3422 -0.1079 -0.5109
 3864TIP3   OH233082   5.241   3.972   5.585  0.3310 -0.4201  0.0077
 3864TIP3    H133083   5.252   3.883   5.552  1.6941  0.1647 -1.1633
 3864TIP3    H233084   5.179   4.013   5.525 -0.6499 -0.7056  0.8130
 3865TIP3   OH233085   2.783   2.043  16.318  0.1957 -0.4546 -0.2942
 3865TIP3    H133086   2.838   1.965  16.310 -0.9042 -1.2122 -0.6855
 3865TIP3    H233087   2.817   2.090  16.394  0.8426 -1.3498 -0.0301
 3866TIP3   OH233088   3.264   4.700  14.128 -0.6580  0.2171  0.6138
 3866TIP3    H133089   3.199   4.676  14.194 -0.1792 -0.3194  0.8859
 3866TIP3    H233090   3.335   4.741  14.177 -0.4328  0.0825  0.3987
 3867TIP3   OH233091   2.236   0.271   4.352  0.0455 -0.0576  0.6064
 3867TIP3    H133092   2.237   0.182   4.388  0.4802 -0.4074 -0.2697
 3867TIP3    H233093   2.304   0.317   4.401  2.6505 -1.3093 -1.6991
 3868TIP3   OH233094   2.067   5.789  15.242  0.0545  0.4584 -0.4213
 3868TIP3    H133095   2.060   5.703  15.285 -2.9874  0.2272 -1.2680
 3868TIP3    H233096   2.103   5.770  15.156  1.0443  0.2658  0.0277
 3869TIP3   OH233097   2.614   3.539  13.076  0.0987 -0.1870  0.2162
 3869TIP3    H133098   2.550   3.597  13.118 -3.2489 -2.6171 -1.2455
 3869TIP3    H233099   2.638   3.476  13.143  0.9434  0.7014  0.7571
 3870TIP3   OH233100   0.555   1.506   5.005  0.2168  0.4233  0.2042
 3870TIP3    H133101   0.543   1.601   5.001  1.2177  0.5935  1.0242
 3870TIP3    H233102   0.642   1.491   4.968 -0.0720 -0.2066 -0.2273
 3871TIP3   OH233103   5.858   2.091   2.636  0.6559  0.0766  0.3533
 3871TIP3    H133104   5.908   2.173   2.634 -1.7104  1.5239 -0.6787
 3871TIP3    H233105   5.789   2.107   2.700 -1.2807 -0.2210 -1.6134
 3872TIP3   OH233106   4.920   6.615  12.902  0.0755 -0.3202  0.0300
 3872TIP3    H133107   4.939   6.709  12.911 -1.4632  0.0573 -0.3951
 3872TIP3    H233108   4.838   6.603  12.949  0.0096 -1.3514 -0.3455
 3873TIP3   OH233109   0.513   0.905  14.895 -0.0517  0.3891 -0.2215
 3873TIP3    H133110   0.481   0.897  14.985 -0.6062  0.5752 -0.3999
 3873TIP3    H233111   0.570   0.828  14.883  0.7497  0.8476  0.5785
 3874TIP3   OH233112   3.840   5.677   4.225 -0.3365 -0.0802 -0.5768
 3874TIP3    H133113   3.932   5.660   4.202 -0.5386 -2.1316  0.1195
 3874TIP3    H233114   3.794   5.672   4.141 -0.0865 -0.8810 -0.6678
 3875TIP3   OH233115   2.373   1.301   3.645 -0.2444 -0.1569 -0.1550
 3875TIP3    H133116   2.415   1.267   3.724  0.3539 -1.6505 -1.0993
 3875TIP3    H233117   2.307   1.363   3.678  0.1612 -0.5748  1.4928
 3876TIP3   OH233118   6.063   1.821   0.296 -0.2607  0.0926 -0.3097
 3876TIP3    H133119   6.115   1.745   0.323 -0.1968  0.5552  0.8878
 3876TIP3    H233120   5.986   1.819   0.353 -0.1083  1.0940 -0.0506
 3877TIP3   OH233121   6.748   0.982   3.560  0.5089  0.6405  0.4754
 3877TIP3    H133122   6.707   0.898   3.585  1.0671  0.4084  0.6102
 3877TIP3    H233123   6.786   1.014   3.641  2.6279 -0.2749 -0.1272
 3878TIP3   OH233124   0.688   4.941  17.200 -0.1436 -0.4419 -0.3023
 3878TIP3    H133125   0.726   4.853  17.199 -0.1048 -0.4161 -2.4221
 3878TIP3    H233126   0.763   4.999  17.210 -0.1755 -0.6147  1.1888
 3879TIP3   OH233127   4.124   4.597   4.651 -0.5035 -0.1840 -0.8377
 3879TIP3    H133128   4.043   4.649   4.650 -0.4048 -0.0377 -2.2733
 3879TIP3    H233129   4.098   4.512   4.614 -0.0384 -0.2122 -1.1017
 3880TIP3   OH233130   2.336   6.168   2.147  0.0592  0.2753 -0.6458
 3880TIP3    H133131   2.340   6.201   2.057  0.6834  1.2848 -0.2515
 3880TIP3    H233132   2.407   6.214   2.193 -2.0949  1.9697  1.0947
 3881TIP3   OH233133   1.679   6.458  11.259  0.2164 -0.3231  0.1140
 3881TIP3    H133134   1.768   6.424  11.259  0.4893  0.3121  2.2706
 3881TIP3    H233135   1.670   6.502  11.175  2.9957  2.2569  1.0919
 3882TIP3   OH233136   3.021   2.245  15.502  0.2622 -0.1289  0.1800
 3882TIP3    H133137   3.090   2.270  15.564 -0.5275  1.4924  0.4210
 3882TIP3    H233138   2.939   2.263  15.548 -0.3320 -0.1296 -0.8547
 3883TIP3   OH233139   3.455   0.401   1.618  0.1372  0.2616  0.2955
 3883TIP3    H133140   3.430   0.329   1.561  2.0758  0.2363 -0.5813
 3883TIP3    H233141   3.384   0.464   1.609 -1.9477 -1.8184  1.6491
 3884TIP3   OH233142   0.775   0.932   1.744 -0.3128  0.7136 -0.0512
 3884TIP3    H133143   0.824   0.884   1.676  2.8118  1.1673  1.7775
 3884TIP3    H233144   0.698   0.878   1.761  1.8446 -2.4431  0.1533
 3885TIP3   OH233145   4.532   3.020  11.083  0.2378  0.2400  0.3740
 3885TIP3    H133146   4.487   2.936  11.093  0.2638  0.3685  1.6266
 3885TIP3    H233147   4.567   3.018  10.994 -1.8574 -0.0437 -0.4737
 3886TIP3   OH233148   3.427   4.037   5.627  0.4286  0.2479  0.5260
 3886TIP3    H133149   3.366   3.964   5.636  1.3882 -0.2262  4.2205
 3886TIP3    H233150   3.371   4.112   5.607 -0.7485 -1.1080 -1.5515
 3887TIP3   OH233151   0.333   4.682   6.742  0.2856 -0.1033  0.2468
 3887TIP3    H133152   0.394   4.742   6.785  0.4323 -1.8965  2.6317
 3887TIP3    H233153   0.385   4.603   6.726 -1.3788 -1.7025  2.4403
 3888TIP3   OH233154   5.600   3.144   3.244 -0.2694 -0.3441 -0.6200
 3888TIP3    H133155   5.570   3.111   3.159  0.0061 -1.4034 -0.3031
 3888TIP3    H233156   5.684   3.185   3.225 -1.1486  1.2639 -1.2248
 3889TIP3   OH233157   2.547   3.231   0.184  0.3777  0.1706  0.7213
 3889TIP3    H133158   2.494   3.193   0.254  0.0140  0.0680  0.3901
 3889TIP3    H233159   2.493   3.300   0.147  0.5441  0.1817  0.4974
 3890TIP3   OH233160   5.012   1.340   4.092 -0.0559 -0.3949 -0.0510
 3890TIP3    H133161   5.001   1.245   4.084  0.4611 -0.4478 -0.2224
 3890TIP3    H233162   5.102   1.351   4.122  0.2962  0.0749 -1.2117
 3891TIP3   OH233163   4.546   5.882   4.923 -0.0696 -0.0935 -0.3362
 3891TIP3    H133164   4.525   5.937   4.848 -0.6401 -0.1710 -0.2384
 3891TIP3    H233165   4.460   5.857   4.959  0.1946 -0.3072  0.1518
 3892TIP3   OH233166   6.233   0.839   1.648  0.1032 -0.0041 -0.1495
 3892TIP3    H133167   6.303   0.776   1.667  0.6001  0.7958  0.7353
 3892TIP3    H233168   6.157   0.804   1.695  0.5085  0.3043  0.7535
 3893TIP3   OH233169   5.056   5.680  13.427  1.0158  0.1914 -0.3097
 3893TIP3    H133170   5.024   5.663  13.338  1.5975 -2.2613 -0.0962
 3893TIP3    H233171   5.140   5.725  13.414  1.5900 -1.0571 -1.0467
 3894TIP3   OH233172   4.621   0.258   3.239  0.3154 -0.3176 -0.3412
 3894TIP3    H133173   4.541   0.307   3.258  1.2281  1.5667 -1.2237
 3894TIP3    H233174   4.647   0.222   3.323 -0.6354  0.3432  0.2510
 3895TIP3   OH233175   0.445   3.270  12.848 -0.0299  0.7147  0.3905
 3895TIP3    H133176   0.369   3.217  12.873 -0.7802  2.2207  1.3756
 3895TIP3    H233177   0.428   3.294  12.756  0.7543 -1.4517 -0.3532
 3896TIP3   OH233178   6.319   5.380   1.556 -0.2350 -0.4559 -0.6381
 3896TIP3    H133179   6.308   5.301   1.610 -0.0296  0.4155  0.7132
 3896TIP3    H233180   6.393   5.425   1.595  0.7076 -0.4162 -2.4401
 3897TIP3   OH233181   5.880   5.557  13.169  0.2789 -0.0864  0.0053
 3897TIP3    H133182   5.927   5.566  13.252 -0.7033 -1.2323  0.7161
 3897TIP3    H233183   5.876   5.646  13.134  0.0689  0.5352  1.5546
 3898TIP3   OH233184   0.510   4.235   4.536  0.2907  0.2194  0.0041
 3898TIP3    H133185   0.496   4.159   4.479 -0.1869 -0.7840  1.4199
 3898TIP3    H233186   0.429   4.286   4.529  0.3497  0.2562 -0.4332
 3899TIP3   OH233187   0.712   2.397  17.158  0.0663 -0.1074 -0.5281
 3899TIP3    H133188   0.656   2.397  17.235 -0.2409 -1.5768 -0.7211
 3899TIP3    H233189   0.798   2.368  17.190  0.2554  0.4433 -0.5310
 3900TIP3   OH233190   5.733   0.412  10.832  0.0953  0.1970 -0.1283
 3900TIP3    H133191   5.737   0.363  10.750 -1.8734  0.6414 -0.5188
 3900TIP3    H233192   5.692   0.495  10.809  0.9083  0.9308  1.0300
 3901TIP3   OH233193   6.064   5.655  16.612 -0.3178 -0.1827  0.4755
 3901TIP3    H133194   5.992   5.677  16.672 -0.6558 -0.7727  0.2904
 3901TIP3    H233195   6.112   5.585  16.656  0.3775  0.4745  0.7722
 3902TIP3   OH233196   4.984   5.977  16.085  0.1400 -0.7479 -0.4721
 3902TIP3    H133197   4.985   5.881  16.080 -2.9520 -0.8464  0.2266
 3902TIP3    H233198   4.991   5.996  16.179  4.1603 -0.1291 -0.7769
 3903TIP3   OH233199   1.146   4.746   2.241  0.2527  0.1653 -0.1252
 3903TIP3    H133200   1.154   4.655   2.271 -1.3786 -0.5372 -1.6943
 3903TIP3    H233201   1.063   4.747   2.191  0.9026  2.1945 -1.2078
 3904TIP3   OH233202   0.108   0.944  11.596  0.3581  0.1572  0.4878
 3904TIP3    H133203   0.162   0.980  11.666 -1.7289  2.1439  1.1048
 3904TIP3    H233204   0.133   0.995  11.518  1.4329 -0.8914  0.1269
 3905TIP3   OH233205   0.542   4.452   5.004 -0.2934  0.2431  0.2806
 3905TIP3    H133206   0.599   4.397   5.058  2.3291  2.4541 -0.1672
 3905TIP3    H233207   0.549   4.415   4.916  0.5371  0.5589  0.2109
 3906TIP3   OH233208   4.585   2.333  11.875  0.8425  0.1812 -0.8379
 3906TIP3    H133209   4.559   2.423  11.857 -0.3339 -0.5871 -3.2262
 3906TIP3    H233210   4.668   2.340  11.921  0.1311  2.5138  0.1445
 3907TIP3   OH233211   6.377   0.579  15.831  0.0645  0.9542  0.2896
 3907TIP3    H133212   6.366   0.646  15.763  2.4297  0.7241 -0.3573
 3907TIP3    H233213   6.472   0.566  15.837 -0.2115 -0.2002  2.5063
 3908TIP3   OH233214   5.585   3.591  10.471 -0.0091 -0.6229 -0.0570
 3908TIP3    H133215   5.545   3.623  10.552  0.1868  0.7875 -0.4973
 3908TIP3    H233216   5.594   3.496  10.483 -0.7187 -0.5239  1.2402
 3909TIP3   OH233217   5.558   0.407   0.683  0.4210  0.1161  0.3013
 3909TIP3    H133218   5.584   0.485   0.633  0.6699  0.2094  0.5792
 3909TIP3    H233219   5.639   0.372   0.717  0.2831 -0.1413  0.3640
 3910TIP3   OH233220   5.980   2.343   0.371  0.2253 -0.4713  0.8131
 3910TIP3    H133221   6.000   2.251   0.354 -0.7546 -0.6792  0.7336
 3910TIP3    H233222   6.065   2.384   0.387  0.9138 -0.8729 -1.6292
 3911TIP3   OH233223   1.255   2.033  10.993 -0.2589 -0.0472  0.1847
 3911TIP3    H133224   1.206   1.954  10.973  0.7936 -1.0260  1.3693
 3911TIP3    H233225   1.329   2.032  10.932 -0.1329 -0.1047  0.3344
 3912TIP3   OH233226   3.765   0.699   3.739  0.1694 -0.5252  0.4931
 3912TIP3    H133227   3.679   0.733   3.763  0.3311  0.1812  0.0918
 3912TIP3    H233228   3.800   0.664   3.821  0.1234  0.5720  1.0023
 3913TIP3   OH233229   4.466   3.424  11.412 -0.4237  0.0784  0.2459
 3913TIP3    H133230   4.418   3.492  11.364 -1.0650 -0.4989  0.0676
 3913TIP3    H233231   4.558   3.441  11.392 -0.6917 -0.1636 -1.1809
 3914TIP3   OH233232   6.810   0.485   1.181  0.1937 -0.2839  0.3810
 3914TIP3    H133233   6.810   0.485   1.085  1.0976  0.6582  0.3680
 3914TIP3    H233234   6.832   0.396   1.206 -2.6220 -1.2028 -0.2617
 3915TIP3   OH233235   1.695   2.692  11.653 -0.1736  0.6066 -0.2689
 3915TIP3    H133236   1.758   2.621  11.661 -0.3736  0.5326  0.7325
 3915TIP3    H233237   1.729   2.746  11.581 -0.2952 -0.7645 -1.3713
 3916TIP3   OH233238   1.090   4.486   1.879 -0.3989 -0.1862  0.3134
 3916TIP3    H133239   1.126   4.572   1.901 -0.4154 -0.3758  1.0861
 3916TIP3    H233240   1.002   4.504   1.845 -1.0892 -0.0270  2.1366
 3917TIP3   OH233241   1.551   3.600  12.864  0.3874 -1.0671 -0.2433
 3917TIP3    H133242   1.459   3.616  12.885  0.2582  0.3946 -1.7463
 3917TIP3    H233243   1.584   3.547  12.936 -1.7258 -1.9184  0.1354
 3918TIP3   OH233244   1.813   3.017  13.661  0.0284  0.5411  0.2856
 3918TIP3    H133245   1.803   3.106  13.694  1.2039  1.1255 -0.8744
 3918TIP3    H233246   1.907   2.999  13.670 -0.2629 -0.7049  0.8310
 3919TIP3   OH233247   0.709   5.878  15.102 -0.0059  0.5855 -0.0498
 3919TIP3    H133248   0.656   5.861  15.180 -2.3924  1.4887 -1.4392
 3919TIP3    H233249   0.646   5.891  15.032  2.1062  0.1881 -2.0794
 3920TIP3   OH233250   4.475   4.170  14.253  0.0546 -0.0065 -0.1012
 3920TIP3    H133251   4.452   4.121  14.332  0.1688 -0.7026 -0.4989
 3920TIP3    H233252   4.392   4.206  14.223 -0.3643 -1.6665 -0.9599
 3921TIP3   OH233253   4.052   1.714   5.140 -0.0333  0.1103 -0.2129
 3921TIP3    H133254   4.099   1.644   5.184  1.1595 -0.8137 -2.8921
 3921TIP3    H233255   3.961   1.706   5.172  0.1804 -2.3430 -0.1713
 3922TIP3   OH233256   1.352   2.454  14.760 -0.2673  0.6228  0.2099
 3922TIP3    H133257   1.353   2.426  14.851 -0.9357  0.4283  0.1601
 3922TIP3    H233258   1.437   2.427  14.725  0.7713  2.4341  1.2877
 3923TIP3   OH233259   6.356   1.913  12.769  0.2444  0.4175 -0.1727
 3923TIP3    H133260   6.431   1.883  12.718 -0.7462 -1.8979 -0.3410
 3923TIP3    H233261   6.295   1.949  12.705  0.6130  1.0269 -0.1853
 3924TIP3   OH233262   1.056   1.616   5.394  0.6132  0.6971 -0.2721
 3924TIP3    H133263   1.139   1.585   5.430  1.2973  0.5256 -1.9451
 3924TIP3    H233264   1.079   1.695   5.345 -0.4185  1.3586  0.2820
 3925TIP3   OH233265   5.706   0.063   5.070 -0.6299 -0.0056  0.4677
 3925TIP3    H133266   5.690   0.058   4.976  0.4068  1.3969  0.2049
 3925TIP3    H233267   5.674  -0.021   5.104 -0.6638 -0.6783 -1.1798
 3926TIP3   OH233268   5.628   5.102  12.423 -0.2306 -0.7484  0.2394
 3926TIP3    H133269   5.679   5.175  12.457  0.3683 -0.3727 -1.3905
 3926TIP3    H233270   5.547   5.102  12.473  0.6668 -0.2950  1.7056
 3927TIP3   OH233271   4.794   3.258  15.602  0.0554 -0.2923  0.2176
 3927TIP3    H133272   4.757   3.179  15.641 -0.7109  0.3469  0.8036
 3927TIP3    H233273   4.744   3.271  15.521  0.5250 -0.6839 -0.1415
 3928TIP3   OH233274   5.169   0.205   1.417  0.5813 -0.5285 -0.0731
 3928TIP3    H133275   5.250   0.217   1.466  1.0573 -1.7758 -0.5252
 3928TIP3    H233276   5.119   0.142   1.469 -0.8727  1.5628  1.1043
 3929TIP3   OH233277   5.394   5.402   0.866  0.2189 -0.4916 -0.1574
 3929TIP3    H133278   5.433   5.422   0.781 -1.0494 -0.1134 -0.6665
 3929TIP3    H233279   5.300   5.417   0.854  0.1325  0.5612  1.5999
 3930TIP3   OH233280   3.336   6.218  11.634 -0.1563  0.6436  0.0642
 3930TIP3    H133281   3.389   6.171  11.699 -0.3453  1.9268  1.1387
 3930TIP3    H233282   3.397   6.281  11.595 -0.3729  0.7182 -0.1530
 3931TIP3   OH233283   0.607   6.288   5.661 -0.2109  0.3134 -0.0495
 3931TIP3    H133284   0.576   6.367   5.705 -0.8505  0.2488 -0.3708
 3931TIP3    H233285   0.620   6.314   5.570 -0.7346 -0.0188 -0.2277
 3932TIP3   OH233286   2.459   4.128  11.170 -0.1660  0.2133 -0.2665
 3932TIP3    H133287   2.493   4.210  11.135 -3.2693  1.2007 -1.0377
 3932TIP3    H233288   2.425   4.081  11.094  1.5365 -1.8206  0.1641
 3933TIP3   OH233289   3.686   6.726   2.744  0.0955  0.5576  0.0760
 3933TIP3    H133290   3.630   6.733   2.821  0.1269  0.9584  0.0645
 3933TIP3    H233291   3.733   6.644   2.755  0.9689  1.1930  1.0529
 3934TIP3   OH233292   6.420   6.255   4.506  0.2342 -0.0972  0.4693
 3934TIP3    H133293   6.326   6.258   4.521  0.3298 -0.6471  1.2132
 3934TIP3    H233294   6.433   6.301   4.424 -0.9118 -1.8076 -0.6894
 3935TIP3   OH233295   4.889   1.392  13.516  0.1640  0.3805 -0.4148
 3935TIP3    H133296   4.869   1.433  13.601  0.5544  0.7989 -0.5211
 3935TIP3    H233297   4.805   1.360  13.484  0.1880 -0.8393  0.6783
 3936TIP3   OH233298   1.394   0.672   0.315  0.1485 -0.8543 -0.1493
 3936TIP3    H133299   1.407   0.700   0.225 -1.3185  0.5314  0.0511
 3936TIP3    H233300   1.474   0.699   0.360  0.4746 -0.6669 -0.8290
 3937TIP3   OH233301   0.096   5.630   1.110  0.0642 -0.4084  0.3127
 3937TIP3    H133302   0.149   5.636   1.189  0.4586 -2.3129  0.2049
 3937TIP3    H233303   0.095   5.537   1.088 -3.0472 -0.3857  0.1399
 3938TIP3   OH233304   4.695   6.006   4.354 -0.0594  0.0468 -0.2714
 3938TIP3    H133305   4.773   6.000   4.409  0.5873  0.4091 -1.1276
 3938TIP3    H233306   4.640   5.934   4.383  0.0096  0.5856  1.2383
 3939TIP3   OH233307   6.437   1.686   1.053  0.4446 -0.3231 -0.0588
 3939TIP3    H133308   6.438   1.596   1.086 -2.3550 -0.3808  0.0247
 3939TIP3    H233309   6.476   1.681   0.966 -0.7872 -1.8419 -0.5352
 3940TIP3   OH233310   2.827   1.163  13.961  0.2410  0.6232 -0.2324
 3940TIP3    H133311   2.888   1.109  14.010  1.1173  0.8241 -1.0882
 3940TIP3    H233312   2.763   1.102  13.925  0.0575  0.3898  0.4839
 3941TIP3   OH233313   2.584   1.569   0.622  0.1241 -0.6766  0.1296
 3941TIP3    H133314   2.660   1.601   0.671  1.1004 -1.5814 -0.7485
 3941TIP3    H233315   2.533   1.520   0.686  2.3615 -3.4911 -0.0814
 3942TIP3   OH233316   6.763   0.389  14.775  0.8489  0.5716  0.1325
 3942TIP3    H133317   6.687   0.337  14.801  0.0427  2.3398  1.3936
 3942TIP3    H233318   6.838   0.332  14.793 -0.0539 -0.4549  0.7383
 3943TIP3   OH233319   3.960   5.971   2.884 -0.1686 -0.2456 -0.4011
 3943TIP3    H133320   3.897   6.024   2.934  1.8899  2.0212 -0.0713
 3943TIP3    H233321   3.939   5.988   2.793 -2.0011 -1.9748 -0.3166
 3944TIP3   OH233322   5.562   1.397  12.675  0.3175 -0.2630  0.1796
 3944TIP3    H133323   5.587   1.309  12.702  2.4172  0.6029  1.1533
 3944TIP3    H233324   5.509   1.430  12.748  1.6497  0.1897  0.9510
 3945TIP3   OH233325   0.103   1.480   3.598  0.6154 -0.0628  0.1355
 3945TIP3    H133326   0.043   1.477   3.523 -0.2875  2.3142  0.7292
 3945TIP3    H233327   0.049   1.510   3.671  1.5022 -2.2596  1.7568
 3946TIP3   OH233328   4.293   2.266   4.492  0.4979 -0.3255 -0.3817
 3946TIP3    H133329   4.298   2.266   4.587  1.2460  3.5368 -0.3232
 3946TIP3    H233330   4.199   2.270   4.473  0.3577 -0.9077  0.2098
 3947TIP3   OH233331   2.657   0.801  12.164  0.1150 -0.0555 -0.1979
 3947TIP3    H133332   2.661   0.712  12.129 -1.8381  0.1182 -0.9125
 3947TIP3    H233333   2.604   0.793  12.244  2.0800  0.0553  1.1599
 3948TIP3   OH233334   2.117   4.974  15.238 -0.0128  0.0177  0.1946
 3948TIP3    H133335   2.190   5.035  15.251 -0.0151 -0.0437  0.4987
 3948TIP3    H233336   2.139   4.898  15.292  2.0175 -2.0400 -3.3486
 3949TIP3   OH233337   4.932   0.197   1.791  0.2394  0.8851 -0.1494
 3949TIP3    H133338   4.843   0.170   1.769  0.5492 -1.0470  0.9100
 3949TIP3    H233339   4.987   0.157   1.725  0.5494  0.1285  0.5560
 3950TIP3   OH233340   6.029   4.097  13.308 -0.1065 -0.7117  0.0280
 3950TIP3    H133341   6.003   4.044  13.383  1.4452 -0.5411  0.6899
 3950TIP3    H233342   6.097   4.155  13.341  0.7820 -0.8019 -1.5711
 3951TIP3   OH233343   2.643   0.510  12.139  0.5458 -0.6685  0.4127
 3951TIP3    H133344   2.671   0.451  12.209  0.7674 -0.0873  0.8151
 3951TIP3    H233345   2.551   0.487  12.124 -0.6110  1.6174  3.3998
 3952TIP3   OH233346   6.391   4.770  14.716 -0.0132  0.2536  0.1664
 3952TIP3    H133347   6.371   4.863  14.729  0.0163  0.1014  1.3747
 3952TIP3    H233348   6.308   4.732  14.684 -0.6896  0.2885  1.8138
 3953TIP3   OH233349   1.058   6.584   4.442  0.1118 -0.2378  0.4286
 3953TIP3    H133350   1.089   6.634   4.366  1.3822  0.2304  1.2338
 3953TIP3    H233351   1.067   6.493   4.415  1.5819 -0.0949  0.3941
 3954TIP3   OH233352   1.952   3.239  13.801  0.0987  0.6030 -0.3031
 3954TIP3    H133353   2.018   3.235  13.870  0.7243 -1.4225 -1.0058
 3954TIP3    H233354   1.903   3.319  13.821  1.6324  1.2060  1.2359
 3955TIP3   OH233355   2.524   3.631  12.389  0.0607 -0.3197  0.7613
 3955TIP3    H133356   2.440   3.654  12.349  0.7340  0.6640 -0.1154
 3955TIP3    H233357   2.514   3.654  12.481 -0.7342 -0.5083  0.7287
 3956TIP3   OH233358   6.269   0.276   3.639 -0.2039 -0.2825 -0.0485
 3956TIP3    H133359   6.351   0.228   3.623  0.5973  0.8427  0.5834
 3956TIP3    H233360   6.223   0.223   3.703 -0.8733 -1.9266 -1.8401
 3957TIP3   OH233361   5.529   1.783   4.614 -0.2866  0.5228 -0.1179
 3957TIP3    H133362   5.471   1.851   4.649  0.7223  2.2552 -1.7807
 3957TIP3    H233363   5.617   1.814   4.635  0.2152  0.2594 -1.8304
 3958TIP3   OH233364   3.637   1.330  14.264  0.0031 -0.4179 -0.3384
 3958TIP3    H133365   3.618   1.313  14.356  1.3948  0.8363  0.2168
 3958TIP3    H233366   3.710   1.271  14.243  1.5472  1.2489  0.1879
 3959TIP3   OH233367   0.074   2.985   1.277  0.6264  0.4247  0.0439
 3959TIP3    H133368   0.075   3.017   1.187  1.4398 -0.4887 -0.2798
 3959TIP3    H233369   0.113   3.057   1.328  3.3599 -0.3778 -0.8149
 3960TIP3   OH233370   1.074   6.275   4.124  0.0276  0.2268  0.1057
 3960TIP3    H133371   1.104   6.184   4.124  0.2031  0.2842  0.2150
 3960TIP3    H233372   0.989   6.273   4.079 -0.2533 -0.0854  0.6407
 3961TIP3   OH233373   0.322   2.130   5.107  0.2883 -0.2043  0.5860
 3961TIP3    H133374   0.374   2.051   5.117 -0.1164 -0.8665 -1.9860
 3961TIP3    H233375   0.256   2.107   5.040  0.2177  2.2987 -0.2776
 3962TIP3   OH233376   0.579   5.552  14.307  0.3142  0.2134  0.0760
 3962TIP3    H133377   0.539   5.557  14.221 -0.7161  0.0895  0.5374
 3962TIP3    H233378   0.636   5.475  14.303 -0.2259 -0.1725 -0.2922
 3963TIP3   OH233379   5.057   5.672   0.172  0.2439  0.5047  0.1943
 3963TIP3    H133380   5.013   5.623   0.103  1.6679 -3.5965  2.0065
 3963TIP3    H233381   5.138   5.703   0.132  0.3030 -0.4711 -0.4606
 3964TIP3   OH233382   6.553   6.618   0.023 -0.3003  0.3667  0.0579
 3964TIP3    H133383   6.483   6.621   0.088  0.8651 -1.0737  1.3909
 3964TIP3    H233384   6.628   6.657   0.066  0.4089 -0.3432 -0.5249
 3965TIP3   OH233385   4.153   6.203   3.771  0.3690  0.0641 -0.1848
 3965TIP3    H133386   4.171   6.255   3.693 -1.7746  0.1375 -0.6634
 3965TIP3    H233387   4.194   6.251   3.843  0.4043  1.1723 -0.9436
 3966TIP3   OH233388   1.228   6.537  14.220  0.1042  0.2498  0.0337
 3966TIP3    H133389   1.148   6.497  14.255 -1.5712  0.2966 -3.4795
 3966TIP3    H233390   1.299   6.482  14.251 -1.5453 -1.2783  1.1756
 3967TIP3   OH233391   0.487   5.170   0.203  0.6974  0.4500 -0.0609
 3967TIP3    H133392   0.481   5.101   0.270  1.0977 -0.8120 -1.3179
 3967TIP3    H233393   0.577   5.201   0.209  1.2472 -0.9037 -1.2323
 3968TIP3   OH233394   2.792   6.489   3.635  0.1224 -0.3787 -0.1464
 3968TIP3    H133395   2.809   6.396   3.653 -1.8268 -0.9856 -1.2414
 3968TIP3    H233396   2.750   6.521   3.715  1.3004 -0.2919  0.4440
 3969TIP3   OH233397   4.000   1.696   3.169  0.4201 -0.3163  0.3860
 3969TIP3    H133398   4.026   1.783   3.199  1.0247  0.3935 -2.1286
 3969TIP3    H233399   3.904   1.700   3.167  0.4650  0.5320 -0.4042
 3970TIP3   OH233400   1.441   4.902   2.283 -0.0157  0.1702  0.2179
 3970TIP3    H133401   1.382   4.855   2.342 -0.4210 -0.2923 -0.5510
 3970TIP3    H233402   1.398   4.899   2.198  1.3828 -0.6859 -0.4948
 3971TIP3   OH233403   3.848   6.330   5.742 -0.5136 -0.0948  0.1222
 3971TIP3    H133404   3.920   6.334   5.805  1.6513 -2.6682 -2.0459
 3971TIP3    H233405   3.886   6.363   5.660 -2.5839  1.0245 -0.4026
 3972TIP3   OH233406   6.741   1.846  11.399 -1.0238  0.5623  0.6910
 3972TIP3    H133407   6.654   1.866  11.364 -1.6149 -2.3393  0.3896
 3972TIP3    H233408   6.802   1.874  11.331 -1.9337 -0.7932 -0.6993
 3973TIP3   OH233409   2.045   3.420   5.152  0.1464 -0.9025 -0.7990
 3973TIP3    H133410   1.967   3.407   5.099 -0.7073  1.9783 -0.3634
 3973TIP3    H233411   2.091   3.493   5.109  0.0596  0.6653  1.6611
 3974TIP3   OH233412   4.261   4.446  12.888  0.1745  0.0364 -0.4162
 3974TIP3    H133413   4.189   4.431  12.826  0.4862  0.1194 -0.8009
 3974TIP3    H233414   4.337   4.464  12.832  0.3876  0.4275 -0.0051
 3975TIP3   OH233415   3.494   4.202  14.425  0.1916 -0.1289 -0.0440
 3975TIP3    H133416   3.561   4.267  14.409  0.0019 -0.1882 -1.1323
 3975TIP3    H233417   3.439   4.204  14.347 -0.3444 -0.9532  0.2980
 3976TIP3   OH233418   0.722   0.249  12.789  0.0637 -0.7069 -0.6237
 3976TIP3    H133419   0.720   0.155  12.807 -0.8466 -0.7950 -1.1254
 3976TIP3    H233420   0.734   0.290  12.875 -0.3605 -1.2585 -0.2983
 3977TIP3   OH233421   1.817   6.424   0.438  0.3332  0.0841 -0.1193
 3977TIP3    H133422   1.726   6.399   0.455  0.8089 -0.2388  2.1484
 3977TIP3    H233423   1.846   6.465   0.519  1.9975  0.8538 -1.0750
 3978TIP3   OH233424   6.634   2.635   4.874 -0.2944  0.1238 -0.4875
 3978TIP3    H133425   6.681   2.604   4.796  0.4005  0.4441 -0.1957
 3978TIP3    H233426   6.686   2.602   4.947  0.4227  1.9534 -0.1720
 3979TIP3   OH233427   4.695   3.632  11.158 -0.3701 -0.5304  0.3647
 3979TIP3    H133428   4.742   3.706  11.197 -2.3415  1.2871 -0.6289
 3979TIP3    H233429   4.713   3.639  11.064 -1.5841 -0.5463  0.1172
 3980TIP3   OH233430   3.998   1.126   3.478  0.1518  0.3153  0.6954
 3980TIP3    H133431   4.082   1.082   3.490 -0.4112 -0.1925  2.9965
 3980TIP3    H233432   4.022   1.215   3.454  1.3427 -0.0257  0.5493
 3981TIP3   OH233433   5.625   4.371  14.905 -0.1985 -0.1671  0.0051
 3981TIP3    H133434   5.691   4.413  14.961  0.3579 -0.0787 -0.7139
 3981TIP3    H233435   5.564   4.442  14.883  0.9883  0.3829 -1.5746
 3982TIP3   OH233436   3.317   3.028  14.339 -0.2345 -0.9853  0.5278
 3982TIP3    H133437   3.385   2.987  14.286  0.4682  0.0528  0.6273
 3982TIP3    H233438   3.252   3.057  14.275  0.5774  0.1971  0.2280
 3983TIP3   OH233439   0.753   3.734   5.358  0.1676  0.2827  0.8482
 3983TIP3    H133440   0.834   3.772   5.390  2.1434 -2.5106 -0.6408
 3983TIP3    H233441   0.749   3.648   5.398 -0.0971 -1.0935 -1.9755
 3984TIP3   OH233442   4.070   2.450   5.527 -0.1494 -0.1473  0.0760
 3984TIP3    H133443   4.041   2.540   5.511 -1.1160 -0.7036 -1.4113
 3984TIP3    H233444   3.989   2.399   5.533  0.4161 -1.1695 -0.6945
 3985TIP3   OH233445   0.604   4.841  16.098  0.0565 -0.1729  0.6170
 3985TIP3    H133446   0.527   4.874  16.051  0.8620  1.7068  0.5781
 3985TIP3    H233447   0.568   4.788  16.169 -1.2455 -0.1341 -0.0054
 3986TIP3   OH233448   3.704   4.045   5.419  0.0443 -0.9395  0.2859
 3986TIP3    H133449   3.752   4.038   5.501  0.3844 -1.8734  0.0096
 3986TIP3    H233450   3.683   4.138   5.411 -0.9033 -0.9927  1.9442
 3987TIP3   OH233451   2.383   6.540  14.751  0.1391 -0.5227 -0.1949
 3987TIP3    H133452   2.426   6.458  14.727 -0.7581 -0.8335 -0.7421
 3987TIP3    H233453   2.368   6.585  14.667 -0.3852 -0.3042  0.0113
 3988TIP3   OH233454   3.588   6.323   5.764 -0.3863 -0.4590 -0.9014
 3988TIP3    H133455   3.589   6.229   5.744  0.7929 -0.4152 -1.1126
 3988TIP3    H233456   3.681   6.348   5.764 -0.7517  0.9925 -2.2463
 3989TIP3   OH233457   4.597   5.968   0.135 -0.4651 -0.0688 -0.3886
 3989TIP3    H133458   4.568   6.048   0.179  0.8141  1.4876 -2.2738
 3989TIP3    H233459   4.551   5.970   0.051  0.8989 -0.3899 -1.1598
 3990TIP3   OH233460   3.110   0.628  13.295  0.0490 -0.2445 -0.4096
 3990TIP3    H133461   3.105   0.723  13.296 -1.4434 -0.3164  0.3545
 3990TIP3    H233462   3.083   0.603  13.206 -1.6677 -0.0400  0.0380
 3991TIP3   OH233463   6.429   3.482  12.180 -0.1383  0.7374  0.5913
 3991TIP3    H133464   6.334   3.488  12.192 -0.5669 -1.5934 -1.2407
 3991TIP3    H233465   6.446   3.530  12.100  0.6260  3.3097  2.2362
 3992TIP3   OH233466   6.647   5.196   1.568 -0.3128  0.1600  0.0361
 3992TIP3    H133467   6.738   5.164   1.574 -1.1093 -2.3703 -0.5736
 3992TIP3    H233468   6.630   5.200   1.474 -1.2025 -0.5206  0.1618
 3993TIP3   OH233469   0.148   4.927   4.585  0.3808 -0.7491 -0.6534
 3993TIP3    H133470   0.239   4.900   4.575  0.4566 -0.3403 -1.1385
 3993TIP3    H233471   0.131   4.980   4.507 -0.6313 -1.8076 -1.1651
 3994TIP3   OH233472   1.346   6.564   4.507  0.1508  0.3436 -0.1279
 3994TIP3    H133473   1.253   6.587   4.509  0.4464  1.5862 -0.3137
 3994TIP3    H233474   1.362   6.520   4.591 -0.4689  0.6768  0.1687
 3995TIP3   OH233475   6.171   5.394   5.187 -0.4689  0.4231  0.0786
 3995TIP3    H133476   6.229   5.370   5.115  0.3979 -1.5225  1.3868
 3995TIP3    H233477   6.121   5.315   5.205 -0.5454  0.8168  1.7267
 3996TIP3   OH233478   3.619   5.229  13.533  0.0078  0.6395 -0.1423
 3996TIP3    H133479   3.678   5.176  13.586 -1.2342  0.9273  1.5717
 3996TIP3    H233480   3.601   5.176  13.455 -0.4387 -1.0471  1.0826
 3997TIP3   OH233481   4.425   1.608   4.507  0.0013  0.0839 -0.7780
 3997TIP3    H133482   4.355   1.560   4.550  1.1817 -0.0618  1.0420
 3997TIP3    H233483   4.403   1.700   4.522  0.0232  0.0427 -0.4835
 3998TIP3   OH233484   3.198   2.828  13.006  0.1427  0.0582 -0.1683
 3998TIP3    H133485   3.208   2.923  13.003 -1.3081  0.2094 -0.5581
 3998TIP3    H233486   3.108   2.814  13.037  1.0307 -1.1969  1.9729
 3999TIP3   OH233487   3.024   3.233  12.194 -0.1776  0.2669  0.5008
 3999TIP3    H133488   3.010   3.153  12.245 -0.6302 -0.6485 -1.0241
 3999TIP3    H233489   2.947   3.239  12.137  0.4750  1.0879 -0.3157
 4000TIP3   OH233490   3.796   3.678  16.910 -0.1949 -0.0500 -0.2296
 4000TIP3    H133491   3.848   3.697  16.832  1.5571 -1.6032  0.5054
 4000TIP3    H233492   3.709   3.655  16.877  0.3026  0.0918 -1.6609
 4001TIP3   OH233493   1.622   4.574  14.512 -0.0414 -0.1559  0.2802
 4001TIP3    H133494   1.614   4.478  14.518  0.8505 -0.2483 -0.0116
 4001TIP3    H233495   1.690   4.596  14.575  0.5740  0.1708 -0.5019
 4002TIP3   OH233496   0.957   6.569   1.364  0.5374 -0.1395 -0.2284
 4002TIP3    H133497   0.958   6.602   1.454  0.0372  0.8198 -0.5677
 4002TIP3    H233498   0.881   6.510   1.361  3.3014 -4.0408  1.2937
 4003TIP3   OH233499   3.987   2.336  13.909 -0.2595  0.1228  0.6057
 4003TIP3    H133500   3.895   2.348  13.885  0.2311  1.8319 -0.4773
 4003TIP3    H233501   4.002   2.242  13.899 -1.3089  0.1340 -1.2960
 4004TIP3   OH233502   2.011   3.799  16.156 -0.0910 -0.4447  0.9058
 4004TIP3    H133503   1.965   3.768  16.233 -1.0380  2.8807  1.7607
 4004TIP3    H233504   1.944   3.840  16.102  0.9608 -0.5880 -0.5554
 4005TIP3   OH233505   3.275   3.372  11.994  0.2246 -0.1008  0.0545
 4005TIP3    H133506   3.346   3.330  11.945  1.4932  0.3377  1.4855
 4005TIP3    H233507   3.295   3.355  12.086 -2.8804 -2.1361  0.4381
 4006TIP3   OH233508   4.314   5.036  12.886 -0.2376 -0.6944 -0.0584
 4006TIP3    H133509   4.259   5.091  12.831 -0.2706 -2.3317 -1.6907
 4006TIP3    H233510   4.324   4.955  12.837 -0.4524 -2.2921  2.4302
 4007TIP3   OH233511   6.177   5.158  15.755 -0.0304 -0.2098  0.3710
 4007TIP3    H133512   6.265   5.125  15.772  1.3034  1.7517 -2.3374
 4007TIP3    H233513   6.191   5.245  15.717 -3.1694  0.3588  0.3608
 4008TIP3   OH233514   1.282   5.513   4.866 -0.1498  0.4658 -0.4757
 4008TIP3    H133515   1.343   5.452   4.825 -0.6323 -0.2593 -0.1232
 4008TIP3    H233516   1.225   5.458   4.919 -0.3386  1.2667  0.1652
 4009TIP3   OH233517   3.269   0.696  12.117  0.1891 -0.6201  0.7364
 4009TIP3    H133518   3.335   0.755  12.080 -1.4658 -0.3412 -1.8406
 4009TIP3    H233519   3.320   0.627  12.159  2.1605  1.7691  2.4560
 4010TIP3   OH233520   3.233   1.624  15.509 -0.4893 -0.1494  0.2349
 4010TIP3    H133521   3.189   1.559  15.563 -3.4802  0.7694 -0.9938
 4010TIP3    H233522   3.204   1.605  15.420 -0.3809  2.0492 -0.3135
 4011TIP3   OH233523   3.719   0.596   1.372  0.4389  0.5920 -0.1552
 4011TIP3    H133524   3.773   0.668   1.338  0.6860  0.5621  0.1730
 4011TIP3    H233525   3.773   0.556   1.440 -0.0225  0.5954  0.2131
 4012TIP3   OH233526   0.952   0.279  11.214  0.0795 -0.3801  0.1185
 4012TIP3    H133527   0.890   0.273  11.142 -0.1291  1.8353  0.1100
 4012TIP3    H233528   1.035   0.250  11.176 -0.4935 -1.4023 -0.3855
 4013TIP3   OH233529   3.506   5.155   4.901 -0.2466  0.0795 -0.5278
 4013TIP3    H133530   3.591   5.115   4.918 -0.4741 -0.3275 -0.3281
 4013TIP3    H233531   3.504   5.168   4.807 -0.9448 -2.1746 -0.8427
 4014TIP3   OH233532   6.548   6.107   0.635 -0.6839 -0.2762 -0.2229
 4014TIP3    H133533   6.509   6.173   0.578 -1.0756 -2.5602 -2.7385
 4014TIP3    H233534   6.483   6.094   0.705 -1.1437  1.0982 -0.3906
 4015TIP3   OH233535   6.225   2.870   3.030  0.1456  0.2388  0.3942
 4015TIP3    H133536   6.307   2.836   2.996 -0.2415 -0.1815 -0.1085
 4015TIP3    H233537   6.159   2.808   3.001 -0.6287  1.6815 -0.9620
 4016TIP3   OH233538   5.758   3.521  15.756  0.0128  0.0666 -0.0103
 4016TIP3    H133539   5.754   3.583  15.684  2.4185 -0.9614 -1.0928
 4016TIP3    H233540   5.776   3.576  15.833  1.6360  0.8072 -0.8739
 4017TIP3   OH233541   1.882   0.181  15.864 -0.4988  0.0631  0.3863
 4017TIP3    H133542   1.859   0.205  15.774 -0.3700 -1.4614 -0.0806
 4017TIP3    H233543   1.810   0.213  15.917 -1.2635 -0.2558 -0.4455
 4018TIP3   OH233544   5.853   2.798   4.437 -0.1132  0.2106  0.0736
 4018TIP3    H133545   5.764   2.784   4.467 -0.3711 -0.2278 -0.8636
 4018TIP3    H233546   5.904   2.812   4.517 -0.8167 -0.7161  0.6986
 4019TIP3   OH233547   3.231   2.369   2.440 -0.3644 -0.1439 -0.1502
 4019TIP3    H133548   3.202   2.299   2.498 -1.0320 -0.7715 -1.2199
 4019TIP3    H233549   3.323   2.349   2.422 -0.5279 -0.7097 -0.3803
 4020TIP3   OH233550   3.953   2.104   3.041  0.1783  0.0911  0.2243
 4020TIP3    H133551   3.894   2.178   3.060  0.5740  0.2590  0.8080
 4020TIP3    H233552   3.951   2.051   3.121  1.3030  0.4302  0.4854
 4021TIP3   OH233553   0.950   4.134  12.667  0.3295  0.5340 -0.1282
 4021TIP3    H133554   0.916   4.191  12.736 -0.4019 -0.3440  0.2455
 4021TIP3    H233555   0.873   4.086  12.636  0.8461  0.1492 -0.8163
 4022TIP3   OH233556   3.814   1.385  13.843  0.0724  0.3879 -0.0000
 4022TIP3    H133557   3.799   1.460  13.900  1.2879  0.5089  0.1729
 4022TIP3    H233558   3.733   1.333  13.851 -1.2925  2.2776 -1.0902
 4023TIP3   OH233559   3.407   6.330  16.085 -0.3995  0.1159 -0.3529
 4023TIP3    H133560   3.494   6.327  16.125 -1.3721 -0.6619  1.8117
 4023TIP3    H233561   3.359   6.395  16.137 -1.6600 -0.7873 -0.3717
 4024TIP3   OH233562   6.545   5.834   4.431  0.2008  0.1363 -0.3924
 4024TIP3    H133563   6.588   5.866   4.351 -2.4202  0.8765 -1.5520
 4024TIP3    H233564   6.544   5.739   4.420 -1.4501  0.3068 -1.9745
 4025TIP3   OH233565   2.555   4.517  15.354  0.3593 -0.7358 -0.7947
 4025TIP3    H133566   2.575   4.609  15.366  0.2276 -0.8630  0.4800
 4025TIP3    H233567   2.632   4.470  15.387  0.4047 -1.0850 -1.3827
 4026TIP3   OH233568   1.503   1.477   0.674 -0.2005 -0.7166 -0.0090
 4026TIP3    H133569   1.461   1.500   0.757 -1.0205  1.1694 -0.9393
 4026TIP3    H233570   1.586   1.525   0.675 -1.1946  1.0437 -1.2427
 4027TIP3   OH233571   1.420   1.713  13.999 -0.6581 -0.5340 -0.0063
 4027TIP3    H133572   1.417   1.660  13.920  3.1587 -1.0111  0.0918
 4027TIP3    H233573   1.511   1.742  14.005 -1.1317  0.3918  3.6363
 4028TIP3   OH233574   6.121   2.342  16.175 -0.1192 -0.3525 -0.0741
 4028TIP3    H133575   6.099   2.343  16.268 -0.7224 -0.0762 -0.2163
 4028TIP3    H233576   6.041   2.310  16.132  0.1166 -0.3595 -0.5039
 4029TIP3   OH233577   0.157   6.281   6.293  0.2599 -0.0349  0.1148
 4029TIP3    H133578   0.147   6.310   6.383 -2.8250  0.5498 -0.3558
 4029TIP3    H233579   0.162   6.185   6.299  0.4931  0.0257  0.9388
 4030TIP3   OH233580   6.513   0.305   1.237  0.0148  0.1050  0.0399
 4030TIP3    H133581   6.548   0.224   1.200 -0.6381 -0.8818  1.5021
 4030TIP3    H233582   6.574   0.329   1.306 -0.9529 -0.3889  1.0976
 4031TIP3   OH233583   1.629   6.390  15.980 -0.1024  0.0372 -0.0083
 4031TIP3    H133584   1.686   6.387  15.903  0.8594 -1.6640  0.7240
 4031TIP3    H233585   1.543   6.362  15.948 -0.1248  0.9657 -0.7820
 4032TIP3   OH233586   6.100   0.003   1.840 -0.0254 -0.2982  0.0607
 4032TIP3    H133587   6.123  -0.060   1.772  0.4795  0.5227 -0.5436
 4032TIP3    H233588   6.095  -0.048   1.921  1.7431 -0.8663 -0.1787
 4033TIP3   OH233589   1.907   3.350   0.430  0.5118  0.1369  0.5876
 4033TIP3    H133590   1.816   3.320   0.422  0.7578 -0.5454  0.3203
 4033TIP3    H233591   1.918   3.414   0.360  0.3409 -0.0395  0.3990
 4034TIP3   OH233592   4.549   6.523   4.125  0.5591 -0.1977 -0.4274
 4034TIP3    H133593   4.515   6.601   4.080  1.3884  0.1567 -0.4537
 4034TIP3    H233594   4.473   6.466   4.135 -0.0025  0.4981 -0.6606
 4035TIP3   OH233595   3.954   5.305  13.459 -0.3616  0.1258  0.3884
 4035TIP3    H133596   3.947   5.252  13.538 -0.9861 -2.3741 -1.2759
 4035TIP3    H233597   4.010   5.253  13.401 -1.6917  0.8895 -1.6089
 4036TIP3   OH233598   6.490   3.633  11.954  0.1534 -0.0791 -0.3803
 4036TIP3    H133599   6.425   3.700  11.977 -0.3279 -0.9970  1.0129
 4036TIP3    H233600   6.569   3.660  12.001  0.2243  0.0126 -0.5532
 4037TIP3   OH233601   4.522   1.039  10.956 -0.0667  0.6699 -0.0261
 4037TIP3    H133602   4.616   1.044  10.975 -0.6878  2.6685  2.9192
 4037TIP3    H233603   4.514   1.068  10.866  2.0827  1.2351 -0.0690
 4038TIP3   OH233604   3.910   5.432   3.432 -0.7077  0.5556  0.2500
 4038TIP3    H133605   3.998   5.436   3.472 -0.6546  0.7625  0.1146
 4038TIP3    H233606   3.861   5.501   3.477 -0.7945  0.4579  0.3061
 4039TIP3   OH233607   0.065   3.870  15.321  0.2417 -0.1637 -0.0780
 4039TIP3    H133608  -0.022   3.888  15.354  1.0059  2.7119  0.4741
 4039TIP3    H233609   0.100   3.955  15.295  3.5179 -1.0048  1.2721
 4040TIP3   OH233610   0.981   4.200   0.327 -0.0336 -0.1933  0.5714
 4040TIP3    H133611   0.933   4.280   0.309  2.1966  1.0495 -0.0292
 4040TIP3    H233612   0.973   4.188   0.422 -0.0861  0.9137  0.7106
 4041TIP3   OH233613   3.008   0.402  10.659  0.5133  0.1915 -0.1878
 4041TIP3    H133614   3.027   0.473  10.719  3.5360 -0.0402 -0.8111
 4041TIP3    H233615   3.094   0.368  10.634 -0.8031 -1.9463 -1.9480
 4042TIP3   OH233616   0.230   3.712  11.865  0.1086  0.0819 -0.2098
 4042TIP3    H133617   0.233   3.640  11.928  0.5245  1.5713  1.5192
 4042TIP3    H233618   0.285   3.683  11.792 -1.4317 -2.2177 -0.5119
 4043TIP3   OH233619   0.052   5.595   2.231  0.4211  0.4827 -0.1754
 4043TIP3    H133620   0.033   5.502   2.219  1.5378 -0.0441  1.8876
 4043TIP3    H233621   0.060   5.629   2.142  0.4248 -1.4897 -0.9636
 4044TIP3   OH233622   6.175   4.109  13.606  0.3396  0.3646 -0.1810
 4044TIP3    H133623   6.120   4.176  13.646  0.6806  0.5576 -0.0317
 4044TIP3    H233624   6.242   4.159  13.559  2.1951  0.1276  2.1447
 4045TIP3   OH233625   6.654   5.737  16.757 -0.0963  0.1852  0.1831
 4045TIP3    H133626   6.719   5.765  16.822 -1.3276 -1.7835  2.3189
 4045TIP3    H233627   6.591   5.808  16.754  1.0798  1.2288 -0.4463
 4046TIP3   OH233628   1.305   5.883   3.655  0.3187  0.1045  0.1959
 4046TIP3    H133629   1.231   5.823   3.667  0.6792 -0.2650  0.5843
 4046TIP3    H233630   1.325   5.915   3.743  1.0280 -0.2887  0.1842
 4047TIP3   OH233631   1.695   0.225   4.591  0.1784  0.0382 -0.4212
 4047TIP3    H133632   1.752   0.148   4.582 -2.0686 -1.7943  0.5510
 4047TIP3    H233633   1.663   0.240   4.502  1.2583  0.3687 -0.7655
 4048TIP3   OH233634   2.286   4.238  16.947  0.1978  0.4525  0.4048
 4048TIP3    H133635   2.289   4.327  16.984 -0.1489 -0.2175  2.0652
 4048TIP3    H233636   2.205   4.237  16.895 -0.3371  0.7861  1.2227
 4049TIP3   OH233637   6.272   2.397  13.780  0.0943  0.7216 -0.1769
 4049TIP3    H133638   6.337   2.467  13.786 -0.0418  0.9699 -1.4376
 4049TIP3    H233639   6.202   2.423  13.839 -0.2584  1.9734 -1.1354
 4050TIP3   OH233640   3.899   6.817   2.529 -0.3859  0.1133 -0.6781
 4050TIP3    H133641   3.915   6.796   2.621  0.2275  1.0531 -0.5641
 4050TIP3    H233642   3.820   6.767   2.507 -2.2450  2.0655  1.1815
 4051TIP3   OH233643   3.152   2.156  11.312  0.3161  0.3623  0.5505
 4051TIP3    H133644   3.221   2.205  11.357  0.3779 -0.4886  1.3918
 4051TIP3    H233645   3.176   2.064  11.325 -1.2937  0.0434  1.3569
 4052TIP3   OH233646   2.394   1.823   6.036 -0.1479 -0.1747 -0.0026
 4052TIP3    H133647   2.315   1.812   5.983  0.0196  0.3933 -0.3754
 4052TIP3    H233648   2.370   1.789   6.122 -0.4732 -0.9578 -0.3942
 4053TIP3   OH233649   4.270   6.685  11.309 -0.4358  1.0877  0.9128
 4053TIP3    H133650   4.216   6.616  11.346 -0.2578  0.0903 -0.6284
 4053TIP3    H233651   4.360   6.657  11.324 -0.3534  0.3368 -0.7965
 4054TIP3   OH233652   3.282   0.571   5.007  0.7933 -0.3636 -0.0725
 4054TIP3    H133653   3.226   0.638   5.047  0.9253 -0.5261  0.3816
 4054TIP3    H233654   3.236   0.489   5.024 -1.2186 -0.0902 -3.6996
 4055TIP3   OH233655   5.579   4.699  17.050 -0.0558 -0.3889  0.1420
 4055TIP3    H133656   5.597   4.607  17.031  0.6992  0.2935 -2.5758
 4055TIP3    H233657   5.665   4.740  17.056 -0.4481  0.8247 -2.2410
 4056TIP3   OH233658   6.733   4.025  12.332 -0.1518 -0.2218 -0.0814
 4056TIP3    H133659   6.703   3.935  12.318 -3.6196  0.3838  2.5889
 4056TIP3    H233660   6.773   4.023  12.419 -1.4204  1.0376  0.5450
 4057TIP3   OH233661   2.963   6.546   0.718  0.1929  0.1408  0.7690
 4057TIP3    H133662   3.044   6.577   0.678 -0.1058 -2.5423 -2.0819
 4057TIP3    H233663   2.894   6.591   0.669 -0.1202  0.3511  1.3921
 4058TIP3   OH233664   6.175   0.436   0.755  0.7280 -0.1865 -0.0319
 4058TIP3    H133665   6.238   0.385   0.806  0.0076 -0.7906  0.2713
 4058TIP3    H233666   6.089   0.400   0.780  0.3041  0.1829 -0.9284
 4059TIP3   OH233667   6.168   3.737   1.503  0.0931  0.4649 -0.2445
 4059TIP3    H133668   6.173   3.708   1.412 -1.2639 -0.5333 -0.0196
 4059TIP3    H233669   6.083   3.706   1.533  0.1541  1.5546  1.1093
 4060TIP3   OH233670   3.360   6.682  14.895  0.5151  0.3116 -0.0217
 4060TIP3    H133671   3.322   6.635  14.970  0.4743  0.9078  0.3309
 4060TIP3    H233672   3.420   6.619  14.855  1.1124  0.2430  0.9626
 4061TIP3   OH233673   3.146   1.867   5.453  0.0733  0.2597  0.1945
 4061TIP3    H133674   3.051   1.881   5.453 -0.1130 -0.9303  0.6340
 4061TIP3    H233675   3.183   1.955   5.447 -1.0560  0.7574  0.3013
 4062TIP3   OH233676   2.987   5.626   0.701 -0.1403  0.6814 -0.4656
 4062TIP3    H133677   2.965   5.574   0.778 -0.4235  1.4704 -0.0079
 4062TIP3    H233678   2.944   5.710   0.716 -1.4663  0.3372 -2.1818
 4063TIP3   OH233679   0.097   0.617   5.089  0.0582 -0.0471 -0.1106
 4063TIP3    H133680   0.091   0.531   5.047 -0.3631 -1.1713  2.1404
 4063TIP3    H233681   0.085   0.680   5.018  0.3987 -1.8500 -1.8063
 4064TIP3   OH233682   4.962   4.029  16.225 -0.1128 -0.5976  0.0194
 4064TIP3    H133683   4.948   3.944  16.182  1.5670 -0.9201  0.0605
 4064TIP3    H233684   4.908   4.090  16.176 -1.7921 -1.7973  0.3455
 4065TIP3   OH233685   5.462   2.144  15.390  0.3631  0.1261 -0.5056
 4065TIP3    H133686   5.489   2.058  15.423  0.3989  0.1095 -0.5758
 4065TIP3    H233687   5.392   2.172  15.450  0.2422 -0.0235 -0.5743
 4066TIP3   OH233688   4.305   1.882   2.384  0.3173  0.2162  0.0053
 4066TIP3    H133689   4.309   1.804   2.329 -0.6507  0.1393  0.0285
 4066TIP3    H233690   4.372   1.867   2.451  0.1150 -0.6274  0.0379
 4067TIP3   OH233691   5.621   4.504  16.152  0.1909  0.0444  0.7684
 4067TIP3    H133692   5.568   4.467  16.223  1.0134 -0.7611  0.9636
 4067TIP3    H233693   5.712   4.491  16.180  0.5208 -0.2265 -0.3984
 4068TIP3   OH233694   0.028   4.474   4.146  0.2295  0.3499 -0.3132
 4068TIP3    H133695   0.099   4.440   4.201 -0.3359  0.3035  0.3992
 4068TIP3    H233696  -0.048   4.419   4.167 -0.0351  0.4328 -1.0282
 4069TIP3   OH233697   5.872   2.754  10.581 -0.0271  0.0535 -0.4537
 4069TIP3    H133698   5.788   2.716  10.554  0.3837  0.1109 -1.8318
 4069TIP3    H233699   5.851   2.844  10.605 -0.3611  0.0779 -0.8297
 4070TIP3   OH233700   4.226   4.849   1.428  0.3250 -0.4872  0.6325
 4070TIP3    H133701   4.195   4.913   1.493  0.1658  0.4484 -0.3504
 4070TIP3    H233702   4.319   4.866   1.421  0.1210  0.2775 -0.3179
 4071TIP3   OH233703   6.604   0.116  12.926  0.6180 -0.1307  0.7156
 4071TIP3    H133704   6.554   0.035  12.935  0.6751 -0.0590  1.8514
 4071TIP3    H233705   6.666   0.099  12.856  0.3819 -0.9499  0.7014
 4072TIP3   OH233706   5.571   6.611   4.000  0.7298  0.0393 -0.5422
 4072TIP3    H133707   5.581   6.534   3.944  0.3232 -0.4591  0.0652
 4072TIP3    H233708   5.659   6.629   4.033  0.6535 -0.7716  0.1128
 4073TIP3   OH233709   1.722   0.574  12.019 -0.4489  0.1423  0.4616
 4073TIP3    H133710   1.753   0.643  11.961  0.9634 -1.2643 -0.4905
 4073TIP3    H233711   1.680   0.510  11.962  1.1688 -1.3734  0.8980
 4074TIP3   OH233712   1.646   1.762  11.666  0.4831 -0.1384 -0.0068
 4074TIP3    H133713   1.667   1.766  11.572 -1.2248  1.3733 -0.3511
 4074TIP3    H233714   1.591   1.684  11.675  0.0350  0.1331 -0.3886
 4075TIP3   OH233715   4.623   5.519   4.973  0.2539  0.1851 -0.7722
 4075TIP3    H133716   4.621   5.586   5.042 -0.3652 -2.0516  1.4865
 4075TIP3    H233717   4.531   5.493   4.963  0.6725 -1.4347 -0.4826
 4076TIP3   OH233718   6.129   0.758   4.454  0.0687  0.5206 -0.2773
 4076TIP3    H133719   6.201   0.739   4.394  0.0144 -0.3022 -0.0989
 4076TIP3    H233720   6.157   0.721   4.538 -1.3190 -1.4508 -0.6417
 4077TIP3   OH233721   0.116   3.708   4.201  0.1196  0.5772 -0.2662
 4077TIP3    H133722   0.030   3.738   4.232 -0.0820  1.7596 -1.9232
 4077TIP3    H233723   0.173   3.785   4.211  0.7672  0.0645 -0.0168
 4078TIP3   OH233724   3.258   3.884  13.418 -0.1647 -0.5515  0.1881
 4078TIP3    H133725   3.218   3.941  13.483 -2.3532  0.9961 -2.3965
 4078TIP3    H233726   3.223   3.797  13.438 -0.2070 -0.2457  1.5076
 4079TIP3   OH233727   5.671   4.488  12.453  0.0383 -0.0291  0.3354
 4079TIP3    H133728   5.724   4.409  12.455  0.0288 -0.0471 -0.2212
 4079TIP3    H233729   5.619   4.481  12.373  0.6232  0.9175 -0.1324
 4080TIP3   OH233730   3.224   3.826   5.649  0.5044  0.2870 -0.2582
 4080TIP3    H133731   3.288   3.756   5.632  0.5327 -0.0921  1.3878
 4080TIP3    H233732   3.143   3.780   5.669  0.6133  0.7109  1.1859
 4081TIP3   OH233733   4.555   5.727  14.430 -0.5981  0.1567  0.0049
 4081TIP3    H133734   4.479   5.773  14.463  0.3685  0.7520  1.4293
 4081TIP3    H233735   4.530   5.634  14.432 -2.3855  0.5341 -2.4756
 4082TIP3   OH233736   5.523   5.577  13.020  0.0908  0.2633  0.1865
 4082TIP3    H133737   5.456   5.611  13.079 -0.9377 -0.7737 -0.3613
 4082TIP3    H233738   5.494   5.602  12.933 -0.5657 -1.7314 -0.2051
 4083TIP3   OH233739   4.544   1.869  13.426  0.1036 -0.1647  0.3434
 4083TIP3    H133740   4.599   1.932  13.473 -0.2370  0.1316  0.3439
 4083TIP3    H233741   4.536   1.904  13.337  3.3731 -2.3102 -0.8975
 4084TIP3   OH233742   5.045   0.605  16.085 -0.0038 -0.0513 -0.0227
 4084TIP3    H133743   5.067   0.548  16.011  0.1475 -1.5606  1.1736
 4084TIP3    H233744   5.111   0.585  16.152 -0.9392  0.3280  1.0224
 4085TIP3   OH233745   0.042   2.304   2.899  0.3295 -0.4691 -0.3009
 4085TIP3    H133746   0.090   2.386   2.891  1.4793 -1.1644 -0.6451
 4085TIP3    H233747   0.087   2.244   2.840 -2.3799 -0.5222 -2.4136
 4086TIP3   OH233748   0.858   0.350  13.322 -0.0563 -0.4888  0.2968
 4086TIP3    H133749   0.779   0.358  13.377 -0.1885 -1.2434  0.2224
 4086TIP3    H233750   0.868   0.256  13.309  0.1679 -0.3304 -0.6989
 4087TIP3   OH233751   0.138   0.699  13.087 -0.8067 -0.4448  0.0146
 4087TIP3    H133752   0.113   0.642  13.013  0.6337 -1.9279  0.6509
 4087TIP3    H233753   0.179   0.775  13.045 -0.3780 -1.0796 -0.7388
 4088TIP3   OH233754   4.821   6.155  10.688 -0.0232 -0.0112 -0.3082
 4088TIP3    H133755   4.746   6.194  10.733  0.0422 -1.0637  0.7337
 4088TIP3    H233756   4.896   6.207  10.716 -0.3303  0.9491 -1.2333
 4089TIP3   OH233757   6.649   1.745  11.797  0.2757 -0.0935  0.3197
 4089TIP3    H133758   6.703   1.804  11.745 -0.1301 -0.2744 -0.3127
 4089TIP3    H233759   6.630   1.672  11.738  0.4749 -0.6838  0.9812
 4090TIP3   OH233760   4.734   5.587  16.959  0.0008  0.1199  0.1272
 4090TIP3    H133761   4.672   5.524  16.996  2.0570 -1.0633  1.6108
 4090TIP3    H233762   4.735   5.568  16.865  0.8319 -2.2824  0.5972
 4091TIP3   OH233763   1.686   5.364   5.138  0.0998  0.3528  0.1397
 4091TIP3    H133764   1.758   5.306   5.161 -0.6495 -0.2039  1.1241
 4091TIP3    H233765   1.704   5.445   5.185 -1.3332 -0.7212  2.6081
 4092TIP3   OH233766   4.647   5.669   4.107 -0.3218 -0.9229 -0.1485
 4092TIP3    H133767   4.561   5.658   4.068  0.3731 -1.0452 -1.6763
 4092TIP3    H233768   4.683   5.748   4.066 -0.2038 -0.1329  1.4192
 4093TIP3   OH233769   3.003   4.851  11.743  0.7617 -0.6051  0.1793
 4093TIP3    H133770   2.917   4.872  11.778  1.3776  2.2773  0.1172
 4093TIP3    H233771   3.046   4.936  11.734  2.8974 -1.8320 -1.6235
 4094TIP3   OH233772   5.571   5.117  14.382  0.5541  0.0382  0.2994
 4094TIP3    H133773   5.522   5.159  14.452  0.0356 -1.1902  0.6907
 4094TIP3    H233774   5.615   5.043  14.423  0.2473 -0.6953 -0.6625
 4095TIP3   OH233775   5.295   3.699  12.191 -0.7833  0.9304  0.4463
 4095TIP3    H133776   5.278   3.639  12.262  0.6375  0.1202  0.1267
 4095TIP3    H233777   5.210   3.737  12.170 -1.9897 -2.1114 -0.3965
 4096TIP3   OH233778   6.355   2.175   3.000 -0.5685  0.3306 -0.4246
 4096TIP3    H133779   6.266   2.154   2.972 -0.6858 -1.0402  0.9275
 4096TIP3    H233780   6.409   2.156   2.923 -1.3068  0.0710 -0.8858
 4097TIP3   OH233781   0.069   3.958  11.206 -0.0326 -0.2729 -0.3004
 4097TIP3    H133782   0.098   3.887  11.149  1.6067  0.0774  0.0670
 4097TIP3    H233783   0.022   3.914  11.277 -0.7428 -0.8319 -1.1216
 4098TIP3   OH233784   0.680   6.706  11.785  0.3876  0.1075 -0.3292
 4098TIP3    H133785   0.693   6.796  11.753 -1.8236  0.9804  1.1004
 4098TIP3    H233786   0.767   6.678  11.814  1.2505  1.5051 -1.4953
 4099TIP3   OH233787   4.163   2.305   3.609  0.4695  0.1511  0.5514
 4099TIP3    H133788   4.208   2.376   3.655 -0.7892  1.1626  0.2419
 4099TIP3    H233789   4.072   2.311   3.640  0.4784 -1.7134  0.9842
 4100TIP3   OH233790   6.421   0.741   4.359 -0.2334 -0.3751  0.0340
 4100TIP3    H133791   6.458   0.807   4.418 -0.0445 -0.1299 -0.3550
 4100TIP3    H233792   6.390   0.792   4.284 -2.0119 -0.4760  0.6623
 4101TIP3   OH233793   0.153   0.057   3.257 -0.1927 -0.6090  0.5106
 4101TIP3    H133794   0.127  -0.007   3.323 -2.4343  0.0428  0.3134
 4101TIP3    H233795   0.070   0.082   3.214  0.6492  2.2105  0.4248
 4102TIP3   OH233796   0.657   2.346   1.498 -0.2967 -0.0862  0.0846
 4102TIP3    H133797   0.684   2.433   1.468  1.2531  0.1383  1.9688
 4102TIP3    H233798   0.611   2.363   1.581 -1.3265 -0.9437 -0.3008
 4103TIP3   OH233799   3.856   0.981   5.150 -0.3195 -0.0095  0.1562
 4103TIP3    H133800   3.925   1.041   5.121  1.1844 -1.4394  0.6820
 4103TIP3    H233801   3.893   0.894   5.137 -1.6348 -0.7838  1.4619
 4104TIP3   OH233802   6.698   1.101   5.065 -0.4849  0.0304 -0.1721
 4104TIP3    H133803   6.634   1.167   5.038  0.4898  1.2750  0.5085
 4104TIP3    H233804   6.703   1.111   5.160  0.4379 -0.3118 -0.1864
 4105TIP3   OH233805   4.206   6.691   3.959  0.1845  0.4830 -0.1011
 4105TIP3    H133806   4.119   6.728   3.941  0.1042 -0.2327 -1.1931
 4105TIP3    H233807   4.213   6.615   3.901  0.7051 -0.7143  1.4856
 4106TIP3   OH233808   0.376   2.779  16.404  0.1926  0.1322  0.0645
 4106TIP3    H133809   0.458   2.790  16.451  0.4130  2.2007 -0.7631
 4106TIP3    H233810   0.312   2.756  16.471  1.2873 -0.7954  0.8070
 4107TIP3   OH233811   0.406   1.246  17.097  0.5103 -0.1633 -0.1408
 4107TIP3    H133812   0.491   1.252  17.140  0.7499  1.9590 -0.8602
 4107TIP3    H233813   0.346   1.217  17.166  1.9210 -2.4246  0.1883
 4108TIP3   OH233814   5.064   2.454   2.411 -0.2597 -0.1249 -0.0980
 4108TIP3    H133815   5.112   2.536   2.402 -0.2385 -0.1928 -0.6629
 4108TIP3    H233816   5.046   2.446   2.504 -1.1078  0.9917 -0.1657
 4109TIP3   OH233817   2.445   5.192  16.823 -0.0686 -0.2529  0.3953
 4109TIP3    H133818   2.357   5.160  16.808  0.0895 -0.3801 -0.2553
 4109TIP3    H233819   2.492   5.173  16.742  1.2937 -2.6666  1.7028
 4110TIP3   OH233820   6.252   4.044  12.329 -0.1279  0.0019 -0.4080
 4110TIP3    H133821   6.279   4.016  12.417  0.9526  0.7188 -0.5017
 4110TIP3    H233822   6.167   4.003  12.316  0.5607 -1.6535  0.2216
 4111TIP3   OH233823   1.219   3.859   2.722 -0.1849 -0.2827 -0.0819
 4111TIP3    H133824   1.135   3.872   2.768  0.0399 -1.1593  0.5834
 4111TIP3    H233825   1.203   3.784   2.664  0.4944 -1.2335  0.9413
 4112TIP3   OH233826   3.477   0.758   5.402  0.3344  0.0574 -0.2580
 4112TIP3    H133827   3.527   0.742   5.322 -0.1730  0.9356 -0.7621
 4112TIP3    H233828   3.413   0.825   5.377  1.3626  1.6657  1.3688
 4113TIP3   OH233829   0.209   2.988  11.751  0.1078  0.6173 -0.4552
 4113TIP3    H133830   0.298   2.959  11.774 -0.4608 -1.1966 -0.5073
 4113TIP3    H233831   0.198   3.071  11.799  1.1605 -0.0539  0.9877
 4114TIP3   OH233832   0.302   5.673   3.161  0.0275  0.3903 -0.5734
 4114TIP3    H133833   0.337   5.614   3.095 -1.3380 -0.3994 -0.6038
 4114TIP3    H233834   0.374   5.732   3.181  0.9099 -0.2959 -1.6915
 4115TIP3   OH233835   6.460   6.775  16.844  0.1585 -0.4448  0.6642
 4115TIP3    H133836   6.532   6.822  16.885 -1.5217  1.1911  1.8141
 4115TIP3    H233837   6.470   6.792  16.750  1.9720 -1.2592  0.7090
 4116TIP3   OH233838   6.006   0.227  12.262 -0.2765  0.0305  0.6327
 4116TIP3    H133839   5.953   0.273  12.197  0.4157  0.7101  0.5392
 4116TIP3    H233840   5.958   0.147  12.280 -0.3812 -0.2593 -0.8608
 4117TIP3   OH233841   3.557   1.267   6.092  0.1498 -0.0343 -0.2051
 4117TIP3    H133842   3.477   1.215   6.076  0.1810 -0.3177  0.5311
 4117TIP3    H233843   3.524   1.355   6.111  0.0529  0.0190 -0.6016
 4118TIP3   OH233844   2.530   1.433   1.266  0.2065 -0.3698  0.2043
 4118TIP3    H133845   2.563   1.420   1.355  1.6584 -0.0985 -0.2779
 4118TIP3    H233846   2.455   1.492   1.277 -0.4591 -1.4117  1.3745
 4119TIP3   OH233847   1.692   4.614   3.029 -0.4737 -0.3329  0.0860
 4119TIP3    H133848   1.785   4.616   3.005 -0.2820  2.0827  0.8969
 4119TIP3    H233849   1.647   4.642   2.949 -0.3693  0.2591  0.2316
 4120TIP3   OH233850   5.680   0.591  13.815 -0.0314  0.0469  0.3919
 4120TIP3    H133851   5.741   0.618  13.747 -0.4349 -1.8107 -0.7689
 4120TIP3    H233852   5.633   0.517  13.776 -1.2663 -0.1394  2.1765
 4121TIP3   OH233853   2.659   6.491  14.888 -0.2821  0.0397  0.1379
 4121TIP3    H133854   2.615   6.433  14.826 -0.6982 -0.8585  1.2572
 4121TIP3    H233855   2.648   6.579  14.851  0.5643 -0.6156 -1.6812
 4122TIP3   OH233856   5.413   2.636   1.868  0.1722  0.1774  0.0275
 4122TIP3    H133857   5.355   2.703   1.904 -1.9416 -1.2638 -0.5996
 4122TIP3    H233858   5.449   2.592   1.946  1.0642  1.6095  0.4284
 4123TIP3   OH233859   0.149   2.178   0.208  0.5374 -0.2659  0.1774
 4123TIP3    H133860   0.164   2.271   0.194  1.3207 -0.7709 -2.6840
 4123TIP3    H233861   0.197   2.135   0.137 -4.7452 -2.5376 -2.3269
 4124TIP3   OH233862   6.788   4.724   3.738  0.3984 -0.0720 -0.6022
 4124TIP3    H133863   6.824   4.733   3.650  2.4443  2.6820  0.4322
 4124TIP3    H233864   6.858   4.682   3.788 -0.1005 -0.0997  0.0775
 4125TIP3   OH233865   6.193   6.578   2.012 -0.1730  0.2464 -0.0522
 4125TIP3    H133866   6.225   6.516   1.947 -0.6021 -0.0212 -0.0091
 4125TIP3    H233867   6.119   6.534   2.054  0.1876  0.3571  0.7205
 4126TIP3   OH233868   5.083   3.623  16.443 -0.1923 -0.0327  0.1904
 4126TIP3    H133869   5.062   3.555  16.506 -1.1702 -1.1305 -1.2913
 4126TIP3    H233870   5.016   3.691  16.456 -0.3336 -0.2158  0.3960
 4127TIP3   OH233871   0.046   2.111  12.019  0.0660 -0.0710  0.3810
 4127TIP3    H133872   0.106   2.155  11.959  0.9191 -0.0134  1.2490
 4127TIP3    H233873   0.042   2.021  11.987 -1.3902  0.5241 -1.1726
 4128TIP3   OH233874   3.531   2.305  11.597  0.0668 -0.0534  0.2030
 4128TIP3    H133875   3.446   2.263  11.612  1.0221 -1.7008  1.1984
 4128TIP3    H233876   3.538   2.312  11.502 -1.5335  0.8768  0.1300
 4129TIP3   OH233877   0.750   0.295  11.755 -0.5259 -0.5400 -0.1967
 4129TIP3    H133878   0.692   0.343  11.814  0.6954  0.2378  0.4135
 4129TIP3    H233879   0.819   0.261  11.813  1.7932  1.9143 -1.3865
 4130TIP3   OH233880   3.087   4.093  16.212  0.3909  0.1942 -0.1715
 4130TIP3    H133881   3.158   4.029  16.205  0.8182  0.6364  0.1086
 4130TIP3    H233882   3.019   4.060  16.153  0.2138 -1.0314  0.6830
 4131TIP3   OH233883   5.874   5.216  12.249 -0.0256  0.7705 -0.9824
 4131TIP3    H133884   5.838   5.153  12.187 -0.8789 -0.3756  0.6427
 4131TIP3    H233885   5.811   5.288  12.250 -1.2213 -0.2847  0.3105
 4132TIP3   OH233886   4.580   1.326   4.601 -0.1337 -0.9352  0.2537
 4132TIP3    H133887   4.606   1.249   4.550 -2.4004 -2.0249  0.6709
 4132TIP3    H233888   4.552   1.291   4.685 -0.2879  0.4462  0.7851
 4133TIP3   OH233889   3.887   4.291   3.813 -0.3260  0.0005  0.0081
 4133TIP3    H133890   3.958   4.287   3.749  0.0846  1.0793  0.3918
 4133TIP3    H233891   3.840   4.208   3.801  1.0522 -0.7726 -0.1753
 4134TIP3   OH233892   4.545   3.935  10.894 -0.6553 -0.7461  0.0545
 4134TIP3    H133893   4.512   4.025  10.884  0.8717 -0.3139 -1.2837
 4134TIP3    H233894   4.477   3.880  10.856 -0.9794 -0.0569 -0.3661
 4135TIP3   OH233895   2.142   1.794  15.429 -0.4837  0.9090  0.0969
 4135TIP3    H133896   2.152   1.884  15.458  1.4441  1.0175 -0.8277
 4135TIP3    H233897   2.161   1.741  15.507  1.1264  1.2648 -0.0397
 4136TIP3   OH233898   6.675   0.247  16.941  0.2926  0.7066  0.2507
 4136TIP3    H133899   6.681   0.318  17.006  0.5844  0.2463  0.7251
 4136TIP3    H233900   6.738   0.182  16.971  1.5426  1.1666 -1.3554
 4137TIP3   OH233901   2.974   0.647  11.707 -0.1880 -0.1865  0.4450
 4137TIP3    H133902   2.925   0.618  11.784  0.7137 -1.2823  0.6160
 4137TIP3    H233903   3.000   0.566  11.663 -1.3284  0.4505 -1.4178
 4138TIP3   OH233904   4.681   2.636   2.460  0.2688 -0.2678 -0.5268
 4138TIP3    H133905   4.708   2.598   2.376  0.4160  2.4593 -1.7851
 4138TIP3    H233906   4.620   2.573   2.497  2.0586 -2.6654 -1.5221
 4139TIP3   OH233907   4.782   2.988  10.913  0.5897  0.4218 -0.3463
 4139TIP3    H133908   4.823   3.074  10.909  0.5044  0.4786 -0.0112
 4139TIP3    H233909   4.723   2.986  10.837  1.1009  0.3929 -0.7493
 4140TIP3   OH233910   4.983   3.615  15.116  0.3108 -0.2851 -0.3490
 4140TIP3    H133911   5.026   3.583  15.036  1.2770 -0.7841  0.3566
 4140TIP3    H233912   4.995   3.710  15.113  0.0601 -0.2675 -0.9575
 4141TIP3   OH233913   5.667   6.683  15.883 -0.0903 -0.3703  0.0276
 4141TIP3    H133914   5.667   6.767  15.929 -2.0551  0.7152 -1.8885
 4141TIP3    H233915   5.577   6.672  15.853  0.8685 -1.6399 -2.4889
 4142TIP3   OH233916   0.044   5.489   3.463  0.3351 -0.2493  0.5076
 4142TIP3    H133917   0.110   5.423   3.442 -0.3044 -0.8464  0.3460
 4142TIP3    H233918   0.020   5.470   3.554  1.8324  1.2315  1.2367
 4143TIP3   OH233919   6.221   0.415   5.784  0.2561  0.0066 -0.2267
 4143TIP3    H133920   6.178   0.345   5.736  0.4454 -0.5919  0.4740
 4143TIP3    H233921   6.306   0.424   5.741  1.0370 -1.5699  0.9463
 4144TIP3   OH233922   1.481   3.196   5.777  0.2482 -0.2402  0.3858
 4144TIP3    H133923   1.435   3.237   5.703 -2.1966 -1.1571  1.3554
 4144TIP3    H233924   1.557   3.154   5.736  0.9071  2.2150 -1.1021
 4145TIP3   OH233925   1.070   0.362   5.403  0.2586  0.3317 -0.3488
 4145TIP3    H133926   1.101   0.452   5.405  0.2281  0.3256  1.0049
 4145TIP3    H233927   1.148   0.310   5.423 -0.1665  0.2042  1.0805
 4146TIP3   OH233928   6.084   3.105  14.171  0.0765  0.2724  0.5655
 4146TIP3    H133929   6.024   3.180  14.160 -2.4577 -1.8201 -0.3260
 4146TIP3    H233930   6.097   3.100  14.266 -1.3335  0.6431  0.7923
 4147TIP3   OH233931   0.076   5.045  12.012  0.0028  0.1602 -0.4494
 4147TIP3    H133932   0.002   5.028  12.070  1.6166  0.9878  1.9038
 4147TIP3    H233933   0.053   5.126  11.967 -1.4890 -0.7645 -1.4334
 4148TIP3   OH233934   6.716   6.101  14.022  0.4981  0.5373  0.7344
 4148TIP3    H133935   6.809   6.081  14.025  0.5141  0.8080  2.3963
 4148TIP3    H233936   6.677   6.029  13.973  1.4979  0.1454  0.5079
 4149TIP3   OH233937   4.084   2.471   1.500  0.1956  0.2342  0.1852
 4149TIP3    H133938   4.116   2.522   1.426  1.8879 -0.2815  0.5448
 4149TIP3    H233939   3.989   2.471   1.489  0.2574  2.1501 -0.6702
 4150TIP3   OH233940   5.123   1.599   2.240  0.5735 -0.0675  0.1156
 4150TIP3    H133941   5.079   1.517   2.215 -1.8331  1.4141 -0.6325
 4150TIP3    H233942   5.066   1.638   2.306  2.0784  0.6709  0.9842
 4151TIP3   OH233943   4.747   5.075  14.541  0.4170 -0.2210 -0.0761
 4151TIP3    H133944   4.666   5.048  14.585  0.6073  0.1213  0.4940
 4151TIP3    H233945   4.723   5.084  14.449  0.1106 -1.3315 -0.1020
 4152TIP3   OH233946   5.147   6.799  11.950  0.4732  0.0853 -0.4882
 4152TIP3    H133947   5.117   6.713  11.921  1.5473 -0.9912  1.5505
 4152TIP3    H233948   5.193   6.834  11.874  1.0346 -1.6221 -0.9580
 4153TIP3   OH233949   2.667   1.088   4.962 -0.2453 -0.1718  0.6406
 4153TIP3    H133950   2.732   1.110   4.896  0.8376 -0.1175  1.7192
 4153TIP3    H233951   2.696   1.004   4.997 -0.8966 -0.2733  0.9458
 4154TIP3   OH233952   4.421   0.848  13.730 -0.6054 -0.2640 -0.2061
 4154TIP3    H133953   4.358   0.921  13.730 -0.8573 -0.4730  0.4161
 4154TIP3    H233954   4.496   0.882  13.779 -1.2666 -0.8619  1.2729
 4155TIP3   OH233955   2.531   3.235   4.885  0.7912  0.0075  0.0200
 4155TIP3    H133956   2.484   3.304   4.932  0.2312 -1.1719  1.2084
 4155TIP3    H233957   2.603   3.281   4.842  1.3833  1.1068  2.1179
 4156TIP3   OH233958   3.151   6.145  14.567 -0.9326 -0.0574 -0.2402
 4156TIP3    H133959   3.199   6.223  14.595  1.7941 -1.7856  0.1109
 4156TIP3    H233960   3.183   6.129  14.478 -1.0262 -1.0949 -0.0909
 4157TIP3   OH233961   6.000   2.659   1.955  0.7613 -0.3443 -0.8371
 4157TIP3    H133962   6.058   2.684   1.884  1.8567 -0.2219  0.1000
 4157TIP3    H233963   6.027   2.712   2.030  0.8204 -1.7665  0.1866
 4158TIP3   OH233964   2.003   6.772   5.767  0.3952  0.7516 -0.5303
 4158TIP3    H133965   1.964   6.859   5.758  0.9704  1.0531 -0.1292
 4158TIP3    H233966   2.061   6.779   5.842 -0.6081 -0.3717  0.3727
 4159TIP3   OH233967   6.624   3.427   2.311 -0.2583  0.0789  0.1992
 4159TIP3    H133968   6.575   3.509   2.303  1.6561  1.1226 -1.3583
 4159TIP3    H233969   6.697   3.449   2.369 -0.5388 -0.9333  0.9449
 4160TIP3   OH233970   2.385   6.332  16.611  0.1829  0.0377  0.6969
 4160TIP3    H133971   2.432   6.250  16.626 -0.7459 -0.4488  0.9449
 4160TIP3    H233972   2.426   6.369  16.533  0.8910 -0.4484  0.8366
 4161TIP3   OH233973   4.714   4.929  16.200 -0.0945 -0.1847  0.1748
 4161TIP3    H133974   4.770   4.852  16.210 -1.7148 -1.5227 -0.8766
 4161TIP3    H233975   4.741   4.967  16.116  0.1463 -0.0535  0.3087
 4162TIP3   OH233976   2.313   5.978   4.285  0.1853 -0.0890  0.1196
 4162TIP3    H133977   2.310   6.041   4.357  0.1621 -1.4357  1.3333
 4162TIP3    H233978   2.261   6.018   4.216 -2.7889 -0.2847  2.1139
 4163TIP3   OH233979   2.614   4.453  17.030  0.4049 -0.5773  0.4014
 4163TIP3    H133980   2.571   4.531  16.995 -0.9372 -1.6850 -0.4266
 4163TIP3    H233981   2.705   4.482  17.046 -0.1584  1.2458  0.4571
 4164TIP3   OH233982   5.576   4.984  13.408 -0.1449 -0.1294  0.4611
 4164TIP3    H133983   5.638   5.052  13.382 -1.7609  0.2789 -2.5550
 4164TIP3    H233984   5.516   5.027  13.469  0.5795  0.3353  0.8493
 4165TIP3   OH233985   3.694   0.739   3.187 -0.4201  0.1920  0.5277
 4165TIP3    H133986   3.653   0.724   3.102 -1.1050  1.0151  0.7053
 4165TIP3    H233987   3.784   0.762   3.166 -0.9458  1.7580 -0.0543
 4166TIP3   OH233988   4.307   1.225  15.342 -0.1167  0.0230  0.2182
 4166TIP3    H133989   4.383   1.238  15.399 -0.0822  1.4503 -0.1322
 4166TIP3    H233990   4.338   1.167  15.273  0.7901  0.9212 -0.1458
 4167TIP3   OH233991   3.001   5.575  16.450 -0.1673 -0.1368 -0.2709
 4167TIP3    H133992   3.044   5.624  16.380 -1.3660  2.2996  0.6476
 4167TIP3    H233993   3.067   5.567  16.519 -0.1261  0.6415 -0.2225
 4168TIP3   OH233994   5.801   1.256   3.976 -0.1001  0.8408 -0.3616
 4168TIP3    H133995   5.867   1.288   3.915 -1.2036  1.5174 -1.2089
 4168TIP3    H233996   5.762   1.334   4.013  0.0723  0.4349  0.6889
 4169TIP3   OH233997   0.504   3.902   1.307  0.1635  0.5925  0.2748
 4169TIP3    H133998   0.528   3.930   1.219 -1.2177 -1.7240 -0.8826
 4169TIP3    H233999   0.588   3.889   1.352  1.0245 -1.7827 -1.8846
 4170TIP3   OH234000   6.255   4.447  14.019 -0.6234 -0.6359  0.0198
 4170TIP3    H134001   6.219   4.536  14.021  2.4083  0.6484 -0.1288
 4170TIP3    H234002   6.292   4.437  13.931 -1.2744 -2.1958 -0.0913
 4171TIP3   OH234003   3.738   3.467   4.408 -0.2529 -0.2260  0.3423
 4171TIP3    H134004   3.786   3.448   4.327 -0.2074 -1.5620  0.6620
 4171TIP3    H234005   3.675   3.534   4.383  0.4548  0.1208 -0.5564
 4172TIP3   OH234006   6.348   5.000  12.542 -0.6184 -0.0193 -0.0155
 4172TIP3    H134007   6.350   5.017  12.636 -0.9597 -0.0902  0.0083
 4172TIP3    H234008   6.254   5.000  12.520 -0.4942  1.5734 -0.6375
 4173TIP3   OH234009   0.216   5.809   2.742  0.0245 -0.0077  0.0168
 4173TIP3    H134010   0.210   5.749   2.667 -0.3164  0.3942 -0.2767
 4173TIP3    H234011   0.203   5.896   2.704 -1.9932  0.0492  0.8167
 4174TIP3   OH234012   4.626   0.306   5.991  0.1950  0.3099 -0.0045
 4174TIP3    H134013   4.583   0.244   6.050 -0.4506  0.6860 -0.0746
 4174TIP3    H234014   4.713   0.268   5.975 -0.0069 -0.3114  0.3622
 4175TIP3   OH234015   2.639   0.867  16.933 -0.4007  0.2153 -0.4117
 4175TIP3    H134016   2.669   0.802  16.869 -1.3889 -0.6943  0.0436
 4175TIP3    H234017   2.544   0.858  16.934 -0.4735  1.0337  0.3423
 4176TIP3   OH234018   3.681   2.696  15.322 -0.0067  0.3470  0.2711
 4176TIP3    H134019   3.619   2.763  15.295  0.3546  0.0668 -1.2988
 4176TIP3    H234020   3.758   2.712  15.269  0.3202 -0.9047  0.3598
 4177TIP3   OH234021   4.007   1.614  15.898 -0.0270 -0.3192 -0.0321
 4177TIP3    H134022   4.051   1.699  15.896  0.7557 -0.7370 -1.9341
 4177TIP3    H234023   4.076   1.551  15.918 -0.1892 -0.7350 -0.7680
 4178TIP3   OH234024   0.232   5.245   3.494 -0.0625 -0.4953  0.0211
 4178TIP3    H134025   0.299   5.188   3.456 -0.9016 -1.2772 -0.2950
 4178TIP3    H234026   0.160   5.243   3.431 -0.3025  0.5004  0.2592
 4179TIP3   OH234027   3.301   5.122  15.817  0.5256  0.0723 -0.3082
 4179TIP3    H134028   3.243   5.126  15.742  0.2984  0.2868 -0.1212
 4179TIP3    H234029   3.243   5.115  15.893  0.6154  3.1100  0.1126
 4180TIP3   OH234030   5.249   4.240   3.285 -0.4226  0.0047 -0.3801
 4180TIP3    H134031   5.333   4.206   3.314  0.6218  3.6161  0.9969
 4180TIP3    H234032   5.265   4.274   3.197 -0.4845  0.4926 -0.2048
 4181TIP3   OH234033   2.019   1.836  16.020 -0.2137 -0.0681 -0.5311
 4181TIP3    H134034   2.009   1.902  16.089 -1.0703  0.6978 -1.3682
 4181TIP3    H234035   2.083   1.774  16.054  0.1292  0.8668  0.5295
 4182TIP3   OH234036   5.317   5.311  15.370  0.3997 -0.4389 -0.0147
 4182TIP3    H134037   5.287   5.297  15.281  0.6827 -1.3624  0.0385
 4182TIP3    H234038   5.322   5.224  15.409  3.9398 -0.4178 -0.2587
 4183TIP3   OH234039   3.135   4.339  12.863  0.3098  0.1541  0.3740
 4183TIP3    H134040   3.141   4.413  12.802  0.4271  0.4998  0.7971
 4183TIP3    H234041   3.042   4.332  12.884  0.2152 -0.2481 -0.1906
 4184TIP3   OH234042   5.336   4.344  12.386  0.3591  0.1078 -0.4485
 4184TIP3    H134043   5.396   4.410  12.351  1.4366 -0.3866  0.4436
 4184TIP3    H234044   5.273   4.330  12.315  2.1356 -0.4096 -1.9858
 4185TIP3   OH234045   3.773   2.975   2.350  0.3907 -0.2238  0.3486
 4185TIP3    H134046   3.803   3.036   2.283  0.9605 -0.7565  0.1118
 4185TIP3    H234047   3.680   2.994   2.360  0.1348 -0.6079 -1.1019
 4186TIP3   OH234048   1.442   1.840   4.022 -0.2145  0.2770  0.0661
 4186TIP3    H134049   1.350   1.819   4.003 -0.4008 -0.0891  1.3396
 4186TIP3    H234050   1.437   1.905   4.092  0.5289 -0.5668  0.9008
 4187TIP3   OH234051   3.378   4.942   0.297 -0.2181 -0.0717  0.3070
 4187TIP3    H134052   3.458   4.891   0.308 -0.3263 -0.7505 -1.9568
 4187TIP3    H234053   3.398   5.026   0.340  2.0011  0.0571 -0.9011
 4188TIP3   OH234054   3.871   3.675   0.098  0.1979  0.1921  0.5404
 4188TIP3    H134055   3.919   3.599   0.131  0.4247  0.2145  0.2676
 4188TIP3    H234056   3.872   3.664   0.003 -1.1585 -0.3097  0.5715
 4189TIP3   OH234057   6.701   2.819   2.779  0.0999 -0.8895  0.5006
 4189TIP3    H134058   6.778   2.836   2.726 -1.1525  2.4173 -0.4138
 4189TIP3    H234059   6.627   2.842   2.722 -1.3398  0.8465  2.9586
 4190TIP3   OH234060   6.816   3.880  11.492  0.2784  0.8378  0.1653
 4190TIP3    H134061   6.724   3.904  11.485 -0.2980 -1.3671 -0.1161
 4190TIP3    H234062   6.825   3.845  11.581  0.6389  0.2013 -0.1175
 4191TIP3   OH234063   0.876   5.266   6.253 -0.6124 -0.4072 -0.5678
 4191TIP3    H134064   0.920   5.298   6.332 -1.0357  0.8306 -0.8260
 4191TIP3    H234065   0.921   5.184   6.232  1.9701  1.0959 -1.1395
 4192TIP3   OH234066   5.695   6.039  13.881  0.1213 -0.3743  0.5531
 4192TIP3    H134067   5.782   6.039  13.842 -0.0482 -0.5517  0.1689
 4192TIP3    H234068   5.680   6.130  13.908  0.2212 -0.2377  0.1544
 4193TIP3   OH234069   5.673   3.293  15.182  0.3011  0.0809  0.2470
 4193TIP3    H134070   5.615   3.225  15.216  0.1121  0.4301  0.6375
 4193TIP3    H234071   5.653   3.370  15.236 -0.1799  0.7208 -0.8230
 4194TIP3   OH234072   1.643   6.011   3.535 -0.3825  0.2531 -0.2675
 4194TIP3    H134073   1.679   6.043   3.453 -0.8949  0.1600 -0.5340
 4194TIP3    H234074   1.588   5.936   3.510 -1.3127  0.8179  0.0341
 4195TIP3   OH234075   5.659   4.511   4.709  0.7884  0.1800  0.1049
 4195TIP3    H134076   5.736   4.478   4.663  0.5805  0.6058 -0.5650
 4195TIP3    H234077   5.612   4.432   4.736  0.8575 -0.0867 -0.5276
 4196TIP3   OH234078   5.346   5.179   4.979  0.2796 -0.3995 -0.2139
 4196TIP3    H134079   5.286   5.240   5.020  0.9661  0.6298 -0.7156
 4196TIP3    H234080   5.430   5.224   4.979  0.8588 -1.4483 -0.3579
 4197TIP3   OH234081   4.770   2.332  14.413  0.0944  0.0867  0.0303
 4197TIP3    H134082   4.716   2.275  14.359 -0.4085 -0.6722  1.3304
 4197TIP3    H234083   4.714   2.408  14.432 -0.9411 -1.2027  2.2989
 4198TIP3   OH234084   4.831   3.400  14.059  0.3185  0.4323 -1.0808
 4198TIP3    H134085   4.904   3.422  14.118 -0.6391  0.1082  0.2346
 4198TIP3    H234086   4.864   3.327  14.007  1.5640  1.4241 -1.7171
 4199TIP3   OH234087   0.426   3.463   2.363  0.3878  0.2542  0.3840
 4199TIP3    H134088   0.518   3.489   2.359  0.3321  1.0194  2.8208
 4199TIP3    H234089   0.400   3.483   2.453 -1.8937 -0.8674  0.0128
 4200TIP3   OH234090   2.263   3.167   2.757  0.6091 -0.3110  0.0328
 4200TIP3    H134091   2.327   3.214   2.810  0.2681 -2.6744  2.6753
 4200TIP3    H234092   2.180   3.209   2.776  0.8309  0.4068 -0.5525
 4201TIP3   OH234093   4.713   5.920  11.450  0.3618  0.4930 -0.1459
 4201TIP3    H134094   4.680   5.864  11.380 -2.7246  1.6642  0.2753
 4201TIP3    H234095   4.730   6.004  11.407 -0.3643  0.8522  0.2553
 4202TIP3   OH234096   1.855   3.093  11.615  0.2011  0.4212 -0.5131
 4202TIP3    H134097   1.937   3.109  11.569 -0.3402 -0.6522 -1.8832
 4202TIP3    H234098   1.878   3.032  11.685  0.7938  1.0843 -0.1235
 4203TIP3   OH234099   2.249   2.102   5.100 -0.1154  0.0077  0.2026
 4203TIP3    H134100   2.199   2.072   5.024 -1.4421  1.9247  0.2836
 4203TIP3    H234101   2.211   2.054   5.174 -0.0716 -0.4788 -0.0871
 4204TIP3   OH234102   5.931   0.779   3.564 -0.1684 -0.1646 -0.4100
 4204TIP3    H134103   5.849   0.800   3.520 -0.9801 -0.5146  0.9142
 4204TIP3    H234104   5.920   0.689   3.595  0.6020 -0.1169  0.0284
 4205TIP3   OH234105   1.242   6.494  11.112 -0.2683 -0.0651  0.1721
 4205TIP3    H134106   1.265   6.485  11.204  0.8071  3.2733  0.3129
 4205TIP3    H234107   1.148   6.477  11.108 -0.5067  0.6987  2.0575
 4206TIP3   OH234108   3.822   2.939   2.783 -0.3795 -0.1381 -0.4679
 4206TIP3    H134109   3.796   3.007   2.722 -0.0728 -0.3753 -0.8696
 4206TIP3    H234110   3.790   2.968   2.868  1.0933  1.2522 -0.3703
 4207TIP3   OH234111   1.192   5.324   0.278  0.3968  0.1070 -0.2389
 4207TIP3    H134112   1.238   5.369   0.207 -0.3198  0.4768 -0.4730
 4207TIP3    H234113   1.247   5.338   0.355  1.1864 -0.3001 -0.7105
 4208TIP3   OH234114   5.940   0.993  11.953 -0.2195  0.5011 -0.5303
 4208TIP3    H134115   5.853   0.983  11.990  0.0212  0.7344  0.1124
 4208TIP3    H234116   5.998   0.944  12.012 -0.2673 -2.0869 -2.5231
 4209TIP3   OH234117   0.930   1.465   5.201 -0.1415 -0.2636 -0.1658
 4209TIP3    H134118   0.845   1.494   5.233 -0.1379  0.1233 -0.4924
 4209TIP3    H234119   0.982   1.545   5.197 -0.4581 -0.1129 -2.1057
 4210TIP3   OH234120   6.433   0.209  16.131 -0.2405 -0.6367 -0.8874
 4210TIP3    H134121   6.488   0.287  16.131  2.1414 -2.2611 -1.4508
 4210TIP3    H234122   6.366   0.226  16.197  0.9079  1.3982 -0.2217
 4211TIP3   OH234123   0.176   2.932   3.926  0.5294 -0.1061  0.2668
 4211TIP3    H134124   0.185   2.837   3.914 -0.2559  0.0113 -1.3427
 4211TIP3    H234125   0.264   2.962   3.948  0.4435 -1.4453  2.6264
 4212TIP3   OH234126   6.788   2.789   1.606 -0.3795  0.0101  0.2581
 4212TIP3    H134127   6.745   2.870   1.634 -2.9285 -0.1368 -3.0652
 4212TIP3    H234128   6.738   2.720   1.649  0.7600  0.0582  1.7333
 4213TIP3   OH234129   5.225   2.534   3.510 -0.2116 -0.0016  0.2267
 4213TIP3    H134130   5.297   2.544   3.448  0.5708 -1.6893  0.8416
 4213TIP3    H234131   5.204   2.441   3.508 -1.6739  0.2943  0.8518
 4214TIP3   OH234132   1.139   1.550   6.305 -0.5962  0.0218  0.1691
 4214TIP3    H134133   1.128   1.499   6.385  2.0899 -0.2038  0.4485
 4214TIP3    H234134   1.077   1.623   6.313 -1.7025 -1.0473  1.5399
 4215TIP3   OH234135   4.113   1.054  13.308  0.5728 -0.3381  0.0551
 4215TIP3    H134136   4.052   1.123  13.334  0.3356 -0.8564  0.9075
 4215TIP3    H234137   4.063   0.973  13.318  0.7798 -0.6185 -1.1458
 4216TIP3   OH234138   4.772   3.814  11.340 -0.1476 -0.4033  0.2503
 4216TIP3    H134139   4.849   3.784  11.387  1.3549  1.5377 -0.9178
 4216TIP3    H234140   4.751   3.898  11.380 -1.2262 -0.5622  0.0470
 4217TIP3   OH234141   0.757   6.607   3.873 -0.5942  0.5328 -0.2392
 4217TIP3    H134142   0.718   6.662   3.805  0.1261  0.5819 -0.6134
 4217TIP3    H234143   0.705   6.526   3.871 -0.2208  0.3109 -1.2400
 4218TIP3   OH234144   6.683   3.492  14.009  0.0953  0.3468  0.0060
 4218TIP3    H134145   6.661   3.415  13.957 -0.7222 -0.6050  1.7413
 4218TIP3    H234146   6.602   3.542  14.015 -0.1380 -0.1806  1.4118
 4219TIP3   OH234147   2.711   6.818   5.771 -0.5970  1.1782  0.2866
 4219TIP3    H134148   2.620   6.790   5.756 -0.4206 -0.2993  1.8115
 4219TIP3    H234149   2.763   6.759   5.717 -0.4840  1.6232 -0.1003
 4220TIP3   OH234150   5.456   2.725  10.930 -0.9485 -0.1612  0.0502
 4220TIP3    H134151   5.495   2.780  10.863 -1.2595  1.4421  1.1450
 4220TIP3    H234152   5.503   2.642  10.924  0.1513  0.5302 -1.0312
 4221TIP3   OH234153   3.251   6.061   3.759  0.4182  0.0317 -0.1023
 4221TIP3    H134154   3.205   6.089   3.838  1.2564 -1.7806  1.0866
 4221TIP3    H234155   3.184   6.019   3.705 -0.0347  0.6821 -0.0365
 4222TIP3   OH234156   2.769   4.434  15.106 -0.0517 -0.2554  0.2918
 4222TIP3    H134157   2.823   4.470  15.176 -0.5827 -0.0406  0.5962
 4222TIP3    H234158   2.679   4.455  15.132 -0.2075  0.6392 -0.9129
 4223TIP3   OH234159   0.978   3.455  16.361 -0.0510  0.4826  0.2046
 4223TIP3    H134160   0.982   3.461  16.457  1.7870  3.3377 -0.0039
 4223TIP3    H234161   1.033   3.527  16.330 -0.8412 -0.2336 -3.0242
 4224TIP3   OH234162   2.065   1.276  16.338 -0.1851  0.0477 -0.0680
 4224TIP3    H134163   2.059   1.357  16.288 -1.4750  0.4395  0.6829
 4224TIP3    H234164   2.030   1.209  16.280 -0.5432  0.2928 -0.1388
 4225TIP3   OH234165   0.701   4.219   5.109  0.1090 -0.1910 -0.9264
 4225TIP3    H134166   0.796   4.209   5.115  0.0891  0.5370  0.7698
 4225TIP3    H234167   0.671   4.228   5.199 -1.2797  2.1793 -1.5618
 4226TIP3   OH234168   1.943   4.568  15.809 -0.2360 -0.4240  0.6833
 4226TIP3    H134169   1.972   4.631  15.875  0.0360 -0.6860  0.8147
 4226TIP3    H234170   2.015   4.506  15.802 -0.8911 -1.2556  1.2252
 4227TIP3   OH234171   2.341   5.485  14.184  0.4484 -0.2530  0.3800
 4227TIP3    H134172   2.399   5.410  14.196  0.6744 -0.3113 -1.0092
 4227TIP3    H234173   2.348   5.506  14.091 -1.6657 -0.1813  0.2156
 4228TIP3   OH234174   1.307   2.851  10.682  0.2760  0.7531 -0.0814
 4228TIP3    H134175   1.303   2.908  10.606 -0.0288  1.4080  0.4283
 4228TIP3    H234176   1.378   2.886  10.735  0.4214  0.3572 -0.0090
 4229TIP3   OH234177   0.892   1.091  12.297 -0.2805  0.5937 -0.1068
 4229TIP3    H134178   0.949   1.160  12.332 -0.4396  1.3107 -1.2520
 4229TIP3    H234179   0.830   1.074  12.368 -0.3093  1.7101  0.1458
 4230TIP3   OH234180   2.835   4.561   3.593 -0.0439 -0.2885 -0.0854
 4230TIP3    H134181   2.791   4.640   3.627 -1.0380 -1.0441  0.3977
 4230TIP3    H234182   2.928   4.585   3.592 -0.5248  1.6285 -1.9060
 4231TIP3   OH234183   3.386   2.963   5.047  0.8141 -0.2504 -0.6617
 4231TIP3    H134184   3.327   3.037   5.061  0.6305 -0.1598 -1.8812
 4231TIP3    H234185   3.445   2.965   5.123  1.8791  2.1566 -1.5129
 4232TIP3   OH234186   1.827   1.862   6.018 -0.7079 -0.2525  0.0107
 4232TIP3    H134187   1.922   1.860   6.033 -0.4908 -0.8976 -1.4113
 4232TIP3    H234188   1.809   1.950   5.986 -0.5169 -0.2974 -0.2181
 4233TIP3   OH234189   5.037   4.389   4.678  1.5643 -0.4418 -0.1582
 4233TIP3    H134190   5.052   4.469   4.628  0.2640  0.0518  0.2226
 4233TIP3    H234191   5.102   4.327   4.644  2.7468  0.8391 -0.2766
 4234TIP3   OH234192   6.355   3.782   3.387 -0.3089 -0.1690  0.0036
 4234TIP3    H134193   6.375   3.720   3.317 -0.6227  0.3993 -0.5957
 4234TIP3    H234194   6.308   3.729   3.452 -0.1055 -0.6789 -0.2550
 4235TIP3   OH234195   2.370   5.001   1.925 -0.2464 -0.5135  0.1890
 4235TIP3    H134196   2.334   4.960   1.847 -0.0571  1.4697 -0.9749
 4235TIP3    H234197   2.300   4.994   1.990 -1.8913  1.2255 -1.3356
 4236TIP3   OH234198   6.433   6.751  13.330 -0.4421  0.2836  0.0693
 4236TIP3    H134199   6.451   6.829  13.382 -0.4512 -0.0333  0.5464
 4236TIP3    H234200   6.395   6.688  13.392 -0.4688 -0.0881 -0.3190
 4237TIP3   OH234201   2.750   0.465  13.254 -0.1289  0.5066 -0.0758
 4237TIP3    H134202   2.724   0.556  13.239 -0.2094  0.5670  0.4040
 4237TIP3    H234203   2.730   0.420  13.172 -2.7489  0.3479  0.5730
 4238TIP3   OH234204   2.772   6.488   4.456  0.0527  0.4248 -0.4577
 4238TIP3    H134205   2.778   6.581   4.477  2.9473 -0.4285  3.0481
 4238TIP3    H234206   2.841   6.474   4.391 -1.7681  1.0375 -2.5985
 4239TIP3   OH234207   3.477   6.738   5.800 -0.0066 -0.7060  0.8238
 4239TIP3    H134208   3.386   6.761   5.818  0.0795  0.3917 -0.1182
 4239TIP3    H234209   3.509   6.702   5.883 -0.8165  0.4144  1.6383
 4240TIP3   OH234210   5.562   4.167   0.996 -0.3464 -0.1630 -0.5285
 4240TIP3    H134211   5.554   4.156   0.901  2.1971  1.1042 -0.9160
 4240TIP3    H234212   5.494   4.230   1.019 -0.3919  0.1845 -1.6183
 4241TIP3   OH234213   4.296   0.089   1.523  0.2828 -0.2745 -0.2597
 4241TIP3    H134214   4.320   0.008   1.478 -0.5617 -1.0856  0.7146
 4241TIP3    H234215   4.322   0.159   1.463  1.9161 -1.2272 -0.6938
 4242TIP3   OH234216   3.963   6.076   0.064 -0.2384  0.3060 -0.1247
 4242TIP3    H134217   3.954   6.006   0.129  0.7881  0.8917  0.6503
 4242TIP3    H234218   3.895   6.056  -0.001 -0.9382 -0.5749  0.8508
 4243TIP3   OH234219   3.264   2.892   1.678  0.1878 -0.0441  0.0636
 4243TIP3    H134220   3.204   2.936   1.739 -0.1490  0.4450 -0.6114
 4243TIP3    H234221   3.343   2.876   1.730  0.3122  1.3596  0.3324
 4244TIP3   OH234222   1.903   0.748  11.857  0.7066 -0.2473  0.2192
 4244TIP3    H134223   1.878   0.817  11.918  0.8795  0.4604 -0.5013
 4244TIP3    H234224   1.864   0.775  11.773  0.8244 -0.9912 -0.0808
 4245TIP3   OH234225   4.014   3.492  15.891 -0.2721  0.2243 -0.1289
 4245TIP3    H134226   4.038   3.572  15.936 -0.7168  0.5540 -0.4692
 4245TIP3    H234227   4.093   3.466  15.843  0.4179 -0.5071  1.3720
 4246TIP3   OH234228   4.896   4.572  11.523  0.0954 -0.3652 -0.2709
 4246TIP3    H134229   4.981   4.533  11.542 -0.0908 -1.1642 -1.0471
 4246TIP3    H234230   4.852   4.575  11.608  1.5924  1.7770  0.4574
 4247TIP3   OH234231   1.326   0.663  10.712  0.0517  0.0734  0.3043
 4247TIP3    H134232   1.369   0.610  10.645  1.7007  0.4410  1.0402
 4247TIP3    H234233   1.321   0.751  10.675  0.4032  0.1404  0.4120
 4248TIP3   OH234234   4.250   0.841   6.662  0.1553  0.0459 -0.2461
 4248TIP3    H134235   4.228   0.934   6.658  0.6076  0.1589 -0.0299
 4248TIP3    H234236   4.167   0.798   6.686 -0.4233  0.2461 -1.8188
 4249TIP3   OH234237   3.869   3.490  12.305 -0.6072 -0.0959 -0.5018
 4249TIP3    H134238   3.910   3.465  12.388 -1.2801  0.8923  0.1423
 4249TIP3    H234239   3.943   3.511  12.247 -0.1647  0.7171  0.3372
 4250TIP3   OH234240   5.727   6.376   5.188  0.1288  0.3876 -0.2988
 4250TIP3    H134241   5.692   6.338   5.269  0.6857  0.3206 -0.0862
 4250TIP3    H234242   5.777   6.304   5.149  1.0088  0.8401 -0.0060
 4251TIP3   OH234243   0.779   1.240   5.634  0.2087 -0.3448  0.3191
 4251TIP3    H134244   0.847   1.282   5.686 -0.3158  1.1414 -0.1612
 4251TIP3    H234245   0.813   1.240   5.544 -0.2113 -0.0240  0.1551
 4252TIP3   OH234246   0.642   2.736  13.174  0.1722  0.0041 -0.1959
 4252TIP3    H134247   0.717   2.758  13.119  1.3393  0.8314  1.7006
 4252TIP3    H234248   0.585   2.813  13.167  0.7940  0.5411  0.5364
 4253TIP3   OH234249   6.492   3.393   5.926  0.0723  0.8213 -0.6312
 4253TIP3    H134250   6.474   3.478   5.965 -0.7008  0.4439 -0.1634
 4253TIP3    H234251   6.526   3.413   5.839 -0.9305  1.5675 -0.8483
 4254TIP3   OH234252   4.658   3.848  12.409  0.2981  0.4058  1.0190
 4254TIP3    H134253   4.649   3.831  12.503 -1.8849  0.3687  0.8267
 4254TIP3    H234254   4.623   3.769  12.367  0.6559  0.6919  0.1598
 4255TIP3   OH234255   4.183   0.225   4.438 -0.1580  0.1671 -0.3062
 4255TIP3    H134256   4.257   0.283   4.458  0.9852 -1.8856  1.7576
 4255TIP3    H234257   4.210   0.180   4.358 -0.3709  1.3411 -1.0533
 4256TIP3   OH234258   5.460   5.718  15.194 -0.5590  0.0849  0.0694
 4256TIP3    H134259   5.503   5.653  15.139  0.2521  0.3707  0.3590
 4256TIP3    H234260   5.523   5.736  15.264 -2.0862 -1.2281  1.8211
 4257TIP3   OH234261   3.813   5.382   5.287 -0.1451 -0.0616  0.0886
 4257TIP3    H134262   3.724   5.401   5.318  1.1259 -0.0472  3.9842
 4257TIP3    H234263   3.866   5.453   5.323  1.8126 -1.3137 -0.2692
 4258TIP3   OH234264   6.232   1.998  12.334 -0.4308 -0.1638 -0.0501
 4258TIP3    H134265   6.190   2.034  12.256 -0.2690 -0.0714 -0.0947
 4258TIP3    H234266   6.299   1.939  12.301 -0.3102 -0.0659  0.0170
 4259TIP3   OH234267   3.249   1.918   3.114  0.7188  0.1299  0.2019
 4259TIP3    H134268   3.212   1.853   3.055 -0.7677  2.9606 -2.1146
 4259TIP3    H234269   3.344   1.910   3.102  0.6194 -2.1530  0.6312
 4260TIP3   OH234270   5.182   1.558  12.602 -0.2981  0.3180 -0.4276
 4260TIP3    H134271   5.169   1.510  12.520  1.1690 -0.5279 -0.1947
 4260TIP3    H234272   5.095   1.565  12.640 -1.0645  1.1385 -2.2853
 4261TIP3   OH234273   4.403   5.326  15.453  0.2948  0.1239 -0.0263
 4261TIP3    H134274   4.399   5.357  15.543 -0.2476  1.5366 -0.5360
 4261TIP3    H234275   4.489   5.285  15.446  0.1070 -0.5276  1.2966
 4262TIP3   OH234276   3.115   1.948  14.842  0.0997  0.2547 -0.4884
 4262TIP3    H134277   3.035   1.982  14.803 -0.4965 -3.4959 -2.7611
 4262TIP3    H234278   3.088   1.915  14.928 -0.7452 -0.7843 -1.1528
 4263TIP3   OH234279   1.045   0.837   3.223  0.2440  0.1508  0.0803
 4263TIP3    H134280   1.036   0.786   3.143  1.2992  0.4150 -0.2211
 4263TIP3    H234281   1.124   0.802   3.265 -0.6591 -0.4213  1.3276
 4264TIP3   OH234282   6.254   4.917  16.585  0.0753 -0.4937  0.0981
 4264TIP3    H134283   6.315   4.988  16.564 -0.0691 -0.2130  0.6363
 4264TIP3    H234284   6.177   4.960  16.620  0.1719 -0.9429  0.8802
 4265TIP3   OH234285   3.383   2.323  15.563  0.3739  0.2717  0.2368
 4265TIP3    H134286   3.441   2.252  15.535  1.4021  1.2902 -0.2718
 4265TIP3    H234287   3.441   2.398  15.572 -0.4735  0.7344  2.0738
 4266TIP3   OH234288   5.018   3.495   0.746 -0.1552 -0.0317  0.2390
 4266TIP3    H134289   5.073   3.478   0.822 -1.1244  0.5293  1.0824
 4266TIP3    H234290   5.058   3.570   0.703 -0.3257  0.4493  0.9160
 4267TIP3   OH234291   6.011   0.325   1.224  0.0779  0.2198 -0.0308
 4267TIP3    H134292   6.088   0.268   1.213 -0.7350 -0.7317 -0.9085
 4267TIP3    H234293   6.046   0.405   1.264  1.4941 -0.2737 -0.2485
 4268TIP3   OH234294   1.384   4.256   1.283  0.3325 -0.0989 -0.6726
 4268TIP3    H134295   1.441   4.222   1.215  2.2119 -0.7976  1.1933
 4268TIP3    H234296   1.418   4.344   1.301  0.2542 -0.1530 -0.2368
 4269TIP3   OH234297   3.484   4.019   0.583  0.3652  0.1706 -0.0082
 4269TIP3    H134298   3.513   3.981   0.501 -1.0847 -0.1444 -0.3871
 4269TIP3    H234299   3.454   4.107   0.560  1.2294  0.5884  0.4232
 4270TIP3   OH234300   1.609   2.596   3.086  0.6670  0.0185  0.2146
 4270TIP3    H134301   1.691   2.623   3.128  1.1814 -0.9906 -0.1071
 4270TIP3    H234302   1.566   2.541   3.150 -1.0614  2.6831  1.4232
 4271TIP3   OH234303   6.691   1.500   3.831 -0.3425 -0.3272 -0.1765
 4271TIP3    H134304   6.606   1.543   3.829 -0.1703  0.0131 -0.0807
 4271TIP3    H234305   6.743   1.551   3.893 -0.3399 -1.0374  0.4200
 4272TIP3   OH234306   5.105   5.667  13.119 -0.7611  0.2776 -0.4139
 4272TIP3    H134307   5.130   5.585  13.077  0.8126 -0.2308  1.4837
 4272TIP3    H234308   5.037   5.703  13.062  0.2280 -1.1525 -2.5432
 4273TIP3   OH234309   1.103   1.578  10.712 -0.2602  0.1502  0.1021
 4273TIP3    H134310   1.123   1.656  10.764  1.7605 -1.0919  1.2424
 4273TIP3    H234311   1.162   1.584  10.637 -0.5842  0.0710 -0.1589
 4274TIP3   OH234312   5.686   3.940  16.444  0.0174 -0.6727 -0.3797
 4274TIP3    H134313   5.679   3.974  16.533 -0.4123 -0.8043 -0.3636
 4274TIP3    H234314   5.763   3.983  16.408 -2.5536  3.1029 -1.5958
 4275TIP3   OH234315   4.368   3.393  15.281  0.3579 -0.0400 -0.7931
 4275TIP3    H134316   4.381   3.397  15.187 -0.0823 -0.7442 -0.8927
 4275TIP3    H234317   4.292   3.336  15.292  1.8169 -1.8675  0.0907
 4276TIP3   OH234318   1.394   1.034   3.199 -0.1532 -0.2841  0.5838
 4276TIP3    H134319   1.387   1.108   3.138  0.0248  0.0327  0.9442
 4276TIP3    H234320   1.440   0.967   3.150 -1.4156 -0.6131 -0.1744
 4277TIP3   OH234321   5.988   4.001  11.981 -0.2083 -0.3390 -0.6026
 4277TIP3    H134322   5.905   4.010  12.027  0.2165 -0.2078  0.1473
 4277TIP3    H234323   6.000   3.907  11.970  0.6860 -0.4708  1.4029
 4278TIP3   OH234324   4.162   2.280  12.455  0.0125 -0.1832 -0.3657
 4278TIP3    H134325   4.235   2.342  12.447 -0.1579  0.2476  1.2288
 4278TIP3    H234326   4.152   2.268  12.549 -1.7693 -0.4865 -0.5869
 4279TIP3   OH234327   6.711   1.310  11.702 -0.1203  0.3752 -0.0149
 4279TIP3    H134328   6.717   1.395  11.658 -1.3602  0.8949  0.8003
 4279TIP3    H234329   6.715   1.246  11.631 -1.5537  1.1951 -0.8525
 4280TIP3   OH234330   5.277   4.973  15.900  0.0703 -0.3860  0.5189
 4280TIP3    H134331   5.213   4.949  15.967 -0.8384 -0.3496 -0.3192
 4280TIP3    H234332   5.241   5.051  15.859  2.1008  1.3756  1.9701
 4281TIP3   OH234333   6.605   0.327   3.490  0.2862 -0.0048 -0.3527
 4281TIP3    H134334   6.622   0.361   3.403  1.6992 -0.7174 -0.3708
 4281TIP3    H234335   6.555   0.247   3.476  0.5903 -0.1659 -0.5158
 4282TIP3   OH234336   1.759   2.882  13.233  0.1534 -0.2965 -0.4505
 4282TIP3    H134337   1.827   2.815  13.230 -0.3285 -0.7792 -0.6406
 4282TIP3    H234338   1.722   2.884  13.145 -0.7904 -0.7728 -0.0715
 4283TIP3   OH234339   2.731   2.032  15.345  0.1985 -0.3780  0.8581
 4283TIP3    H134340   2.642   2.004  15.368 -0.9020  0.4471 -2.0986
 4283TIP3    H234341   2.718   2.109  15.289  2.7437 -0.8857 -0.4966
 4284TIP3   OH234342   0.732   1.985  11.207  0.0006 -0.4216  0.2351
 4284TIP3    H134343   0.723   1.907  11.153  0.8264 -1.1733  1.1551
 4284TIP3    H234344   0.819   2.018  11.187  0.0591 -0.3390  0.6140
 4285TIP3   OH234345   5.256   5.465   5.371 -0.1185 -0.3066  0.3322
 4285TIP3    H134346   5.233   5.435   5.283 -1.6254 -1.9469  1.2622
 4285TIP3    H234347   5.203   5.544   5.384  1.3417  0.8999 -0.8315
 4286TIP3   OH234348   2.016   4.476  11.691  0.1098 -0.1963 -0.0957
 4286TIP3    H134349   2.072   4.402  11.668  1.0449  0.9132 -1.5396
 4286TIP3    H234350   2.008   4.525  11.609 -0.7874  1.0904  0.7535
 4287TIP3   OH234351   6.770   1.535   5.007 -0.3781 -0.0029 -0.1848
 4287TIP3    H134352   6.843   1.529   5.069  0.2903  2.7185 -0.6387
 4287TIP3    H234353   6.802   1.495   4.927  0.4081  0.5704 -0.1674
 4288TIP3   OH234354   2.034   0.598   4.229 -0.5471 -0.2713 -0.1154
 4288TIP3    H134355   2.041   0.644   4.145  1.0907 -1.5922 -0.7427
 4288TIP3    H234356   2.028   0.505   4.205 -0.4137 -0.6424  1.2271
 4289TIP3   OH234357   4.174   6.239  11.247 -0.4475  0.1003 -0.2542
 4289TIP3    H134358   4.140   6.226  11.158  0.5992 -0.1106 -0.6247
 4289TIP3    H234359   4.256   6.287  11.235 -1.2189  1.7092  0.7251
 4290TIP3   OH234360   5.797   3.261  15.712 -0.7257  0.0692  0.2644
 4290TIP3    H134361   5.777   3.353  15.729 -0.6405 -0.3102  2.4876
 4290TIP3    H234362   5.715   3.225  15.678 -1.2733  0.5595  1.0562
 4291TIP3   OH234363   0.993   6.255  13.173 -0.0162  0.4027  0.2402
 4291TIP3    H134364   1.051   6.233  13.101 -0.6649  1.2384 -0.5460
 4291TIP3    H234365   1.047   6.244  13.252  0.3065 -1.7949 -0.2722
 4292TIP3   OH234366   2.982   3.189  15.948  0.2831  0.0976  0.1735
 4292TIP3    H134367   2.995   3.095  15.938 -0.1213 -0.1586  1.8243
 4292TIP3    H234368   2.993   3.225  15.860  0.6636 -1.4608 -0.4283
 4293TIP3   OH234369   3.067   3.960  16.883 -0.1569  0.0713 -0.7336
 4293TIP3    H134370   2.973   3.978  16.872 -0.5340 -1.4918 -0.2881
 4293TIP3    H234371   3.074   3.926  16.973  0.8135  0.0836 -0.8015
 4294TIP3   OH234372   5.662   4.548  13.574 -0.0169 -0.1488 -0.4020
 4294TIP3    H134373   5.572   4.548  13.542 -0.3229 -0.1609  0.4486
 4294TIP3    H234374   5.703   4.623  13.530 -0.1225 -0.8229 -1.6596
 4295TIP3   OH234375   4.523   3.638  12.303 -0.2537  0.7602 -0.4363
 4295TIP3    H134376   4.515   3.569  12.238  0.4718  0.6192 -0.3918
 4295TIP3    H234377   4.435   3.649  12.338 -0.2296 -0.7581  0.1689
 4296TIP3   OH234378   6.245   4.308   1.055  1.0231  0.6665  0.1976
 4296TIP3    H134379   6.247   4.393   1.100  0.9905  0.5330  0.4536
 4296TIP3    H234380   6.333   4.299   1.017  0.9828  0.8756  0.0548
 4297TIP3   OH234381   3.347   4.111  12.406  0.0543  0.1643 -0.3623
 4297TIP3    H134382   3.413   4.117  12.337  0.4115  0.1672 -0.0253
 4297TIP3    H234383   3.341   4.200  12.442  1.9242 -0.4153  1.4884
 4298TIP3   OH234384   4.729   0.209  16.422  0.2821  0.2246 -0.0042
 4298TIP3    H134385   4.664   0.140  16.410  0.7419  0.0261 -1.4044
 4298TIP3    H234386   4.809   0.164  16.446  0.5725  0.2658 -0.8784
 4299TIP3   OH234387   4.353   1.306   2.368  0.0223 -0.0634  0.3999
 4299TIP3    H134388   4.413   1.342   2.302 -0.2284 -0.2060  0.0930
 4299TIP3    H234389   4.403   1.235   2.409  0.6820  0.9028  1.3121
 4300TIP3   OH234390   5.384   5.513   6.449 -0.1181 -0.0265  0.0498
 4300TIP3    H134391   5.464   5.553   6.414  0.8965 -0.4757  1.8202
 4300TIP3    H234392   5.364   5.564   6.528 -0.8860 -0.6923  0.2925
 4301TIP3   OH234393   0.783   6.728  13.106  0.4086 -0.1958  0.1090
 4301TIP3    H134394   0.728   6.764  13.037 -0.1911 -0.3081  0.5261
 4301TIP3    H234395   0.840   6.665  13.061  0.2949  0.0316 -0.3464
 4302TIP3   OH234396   4.271   4.357   4.029 -0.6758 -0.5393 -0.6407
 4302TIP3    H134397   4.226   4.383   3.949 -2.6858  2.2238  1.2639
 4302TIP3    H234398   4.267   4.435   4.085 -0.3581 -2.7151  2.5692
 4303TIP3   OH234399   5.273   3.838   1.121 -0.1075 -0.1834  0.3632
 4303TIP3    H134400   5.260   3.901   1.192 -0.4029  0.2390 -0.0666
 4303TIP3    H234401   5.247   3.885   1.042 -1.1988 -1.1483  0.1405
 4304TIP3   OH234402   5.040   0.809   5.150  0.0937 -0.4540 -0.4760
 4304TIP3    H134403   5.064   0.752   5.077  0.5629 -1.2265  0.2734
 4304TIP3    H234404   5.081   0.768   5.227  0.5985  0.9990  0.0331
 4305TIP3   OH234405   1.167   3.880   2.088  0.2880  0.0242 -0.2448
 4305TIP3    H134406   1.236   3.825   2.050  0.9974  1.2177 -0.7085
 4305TIP3    H234407   1.211   3.929   2.157 -0.2295  0.3962 -0.1808
 4306TIP3   OH234408   5.003   4.326   2.976  0.0589 -0.0077 -0.0241
 4306TIP3    H134409   4.952   4.265   3.028  1.8355 -2.3230 -0.8689
 4306TIP3    H234410   4.956   4.333   2.893  0.2234 -0.8622 -0.1983
 4307TIP3   OH234411   0.016   2.343  10.505 -0.0831  0.1562  0.5577
 4307TIP3    H134412   0.004   2.265  10.558 -1.6050 -0.0652 -0.0849
 4307TIP3    H234413   0.096   2.328  10.456  0.6564 -0.1694  1.8675
 4308TIP3   OH234414   1.095   3.789  16.742 -0.9218  0.8001 -0.0175
 4308TIP3    H134415   1.174   3.804  16.689  0.2068 -1.0302  1.1041
 4308TIP3    H234416   1.032   3.855  16.710  0.7961  1.8097 -1.4232
 4309TIP3   OH234417   2.569   5.050  11.782 -0.5321 -0.0098 -0.5101
 4309TIP3    H134418   2.576   5.133  11.829  0.7084  0.2871 -1.1948
 4309TIP3    H234419   2.495   5.005  11.823  0.5876  0.1894  1.7917
 4310TIP3   OH234420   3.423   0.441   0.152 -0.1723 -0.3986  0.3331
 4310TIP3    H134421   3.375   0.391   0.218  0.1199 -0.9425  0.1380
 4310TIP3    H234422   3.513   0.444   0.184 -0.0520 -0.5714  0.0197
 4311TIP3   OH234423   5.618   5.212  12.097 -0.1896  0.5022 -0.4857
 4311TIP3    H134424   5.626   5.282  12.162  1.6661 -0.2300  0.0893
 4311TIP3    H234425   5.673   5.241  12.024  0.0019  0.0029 -0.5447
 4312TIP3   OH234426   4.670   3.590  13.945  0.2224 -0.4307 -0.1085
 4312TIP3    H134427   4.674   3.658  14.012 -2.8886  0.8137 -1.0699
 4312TIP3    H234428   4.728   3.521  13.977  0.9429  1.2935  2.4787
 4313TIP3   OH234429   3.011   4.117  10.679 -0.7554  0.2427  0.0792
 4313TIP3    H134430   2.945   4.161  10.625 -0.2914 -0.7180 -1.3061
 4313TIP3    H234431   3.089   4.172  10.670 -1.3668  1.4429  1.8126
 4314TIP3   OH234432   6.265   0.736   4.673 -0.5165  0.0076  0.2219
 4314TIP3    H134433   6.304   0.816   4.708 -3.3863  1.4229  0.2671
 4314TIP3    H234434   6.302   0.666   4.728  2.1156  1.2339  0.0973
 4315TIP3   OH234435   4.124   6.781   5.888  0.2654  0.1097  0.4023
 4315TIP3    H134436   4.044   6.740   5.921 -0.6211  1.2606 -0.2639
 4315TIP3    H234437   4.134   6.860   5.941 -0.6354  1.4637 -1.3705
 4316TIP3   OH234438   0.835   4.362  11.764  0.1266  0.5094  0.2203
 4316TIP3    H134439   0.836   4.270  11.792 -1.2906  0.3774 -0.1135
 4316TIP3    H234440   0.793   4.360  11.678  1.1862  1.3299 -0.3215
 4317TIP3   OH234441   6.277   2.230  15.160 -0.5212 -0.4043  0.4616
 4317TIP3    H134442   6.314   2.156  15.209 -1.6889 -1.4717 -0.2408
 4317TIP3    H234443   6.324   2.307  15.193  1.7023 -1.6064  0.2494
 4318TIP3   OH234444   4.442   6.326  17.017  0.0198  0.3510  0.2443
 4318TIP3    H134445   4.356   6.356  16.985  0.3615  0.1553 -0.8989
 4318TIP3    H234446   4.505   6.382  16.970  0.5009  0.8705  1.4972
 4319TIP3   OH234447   1.198   2.462   4.355 -0.4369 -0.4031  0.0358
 4319TIP3    H134448   1.166   2.480   4.443  0.7238 -0.5817  0.5061
 4319TIP3    H234449   1.125   2.484   4.297 -0.6069  1.4311  0.9203
 4320TIP3   OH234450   6.300   3.277   2.149  0.4113 -0.0064  0.3159
 4320TIP3    H134451   6.221   3.268   2.096 -0.7947  1.8869  1.7301
 4320TIP3    H234452   6.368   3.303   2.087 -0.7748  1.3403 -0.4252
 4321TIP3   OH234453   0.651   5.193   2.892 -0.1989 -0.1683  0.2469
 4321TIP3    H134454   0.619   5.150   2.812  0.0936  0.9761 -0.4925
 4321TIP3    H234455   0.707   5.127   2.933  2.1193  0.2675 -2.0791
 4322TIP3   OH234456   1.324   1.515   5.860  0.3960  0.4928  0.0427
 4322TIP3    H134457   1.256   1.565   5.905  1.3560  0.9107  1.0385
 4322TIP3    H234458   1.277   1.441   5.822 -0.7426  1.1733  0.0851
 4323TIP3   OH234459   2.331   1.848  15.649 -0.6553 -0.2377  0.3488
 4323TIP3    H134460   2.382   1.770  15.671 -0.7120 -0.4446 -0.2353
 4323TIP3    H234461   2.243   1.829  15.681 -1.0529 -1.0782 -1.1634
 4324TIP3   OH234462   4.056   6.694   2.015  0.3449  0.2544 -0.3170
 4324TIP3    H134463   4.144   6.667   2.040  0.0308 -0.7963 -0.3374
 4324TIP3    H234464   4.056   6.789   2.027  1.0547  0.0968  1.0085
 4325TIP3   OH234465   4.953   3.991   3.553  0.5314 -0.6568  0.0166
 4325TIP3    H134466   5.011   4.046   3.606 -0.5541  0.3523  0.1711
 4325TIP3    H234467   5.009   3.919   3.524  1.9011  0.3684  0.0537
 4326TIP3   OH234468   2.626   2.344   5.261  0.3791 -0.0292  0.4520
 4326TIP3    H134469   2.596   2.339   5.352 -0.8307  0.9815  0.1252
 4326TIP3    H234470   2.547   2.366   5.211  1.5105  1.8726 -0.5432
 4327TIP3   OH234471   2.332   0.660  12.170 -0.1409 -0.1440  0.6613
 4327TIP3    H134472   2.274   0.711  12.113 -0.7433  0.3351  1.6860
 4327TIP3    H234473   2.357   0.721  12.239  0.1606 -0.8694  1.1925
 4328TIP3   OH234474   1.771   2.541  14.198  0.0022  0.2017  0.4917
 4328TIP3    H134475   1.857   2.569  14.166 -0.5994  3.1190  1.2671
 4328TIP3    H234476   1.738   2.617  14.246 -3.1738 -0.7522 -0.0912
 4329TIP3   OH234477   6.282   6.652   3.470 -0.5211 -0.7626  0.2087
 4329TIP3    H134478   6.200   6.631   3.514 -1.6834  0.8570 -1.0890
 4329TIP3    H234479   6.286   6.591   3.396  0.1227 -1.7236  1.0206
 4330TIP3   OH234480   3.985   4.533  14.192 -0.2500 -0.6298  0.1063
 4330TIP3    H134481   4.008   4.496  14.107 -2.6280 -0.9988 -0.3970
 4330TIP3    H234482   3.946   4.618  14.171  2.3384  0.8413  1.0667
 4331TIP3   OH234483   6.436   4.816  13.708  0.6298  0.0075  0.0811
 4331TIP3    H134484   6.396   4.900  13.732  1.4388  0.4747 -0.1898
 4331TIP3    H234485   6.529   4.837  13.695  0.8232 -0.9240 -0.0207
 4332TIP3   OH234486   5.505   4.711   2.903  0.1862  0.3345  0.0964
 4332TIP3    H134487   5.481   4.700   2.995  0.5623  2.3579  0.4614
 4332TIP3    H234488   5.424   4.737   2.860 -0.2231 -1.6355 -0.3581
 4333TIP3   OH234489   3.495   5.600  16.899 -0.5305 -0.1554  0.1667
 4333TIP3    H134490   3.549   5.678  16.908 -0.7927 -0.0515  0.9038
 4333TIP3    H234491   3.409   5.626  16.933 -0.7109 -0.6650  0.1110
 4334TIP3   OH234492   0.408   4.869   4.620 -0.1834 -0.1388 -0.4914
 4334TIP3    H134493   0.473   4.924   4.576 -0.5833  0.0462 -0.8519
 4334TIP3    H234494   0.407   4.901   4.710 -0.9877  0.9756 -0.8881
 4335TIP3   OH234495   6.597   5.375  15.484 -0.2961  0.3855 -0.0436
 4335TIP3    H134496   6.616   5.319  15.408  1.6184  1.6736 -0.5495
 4335TIP3    H234497   6.580   5.461  15.446 -1.5571  0.5363  0.8484
 4336TIP3   OH234498   0.993   4.917   5.054  0.2338  0.0366  0.5963
 4336TIP3    H134499   1.033   4.830   5.052 -1.2125 -0.6257 -0.2311
 4336TIP3    H234500   0.939   4.921   4.975  1.5662  2.3288 -0.2793
 4337TIP3   OH234501   6.724   0.472  17.175  0.2955  0.0548  0.5306
 4337TIP3    H134502   6.797   0.424  17.212  0.3422  0.4696  0.9812
 4337TIP3    H234503   6.721   0.554  17.224 -1.3745 -0.5666  1.5102
 4338TIP3   OH234504   1.719   2.816  14.975 -0.7012 -0.4374 -0.2747
 4338TIP3    H134505   1.653   2.753  15.003 -0.7593  0.0907  0.7985
 4338TIP3    H234506   1.751   2.856  15.057 -0.7864  1.0443 -0.9401
 4339TIP3   OH234507   6.286   3.080   0.285 -0.2609 -0.6445  0.3223
 4339TIP3    H134508   6.351   3.028   0.236 -0.7775 -1.8745  0.9083
 4339TIP3    H234509   6.242   3.133   0.219 -1.1484 -2.4947 -0.6173
 4340TIP3   OH234510   1.955   4.308   1.942 -0.6644  0.7130  0.0455
 4340TIP3    H134511   1.882   4.258   1.906  1.0113 -0.7864 -1.3619
 4340TIP3    H234512   1.923   4.340   2.026 -2.5988 -0.7191 -0.1139
 4341TIP3   OH234513   0.301   5.307  11.492  0.0870 -0.2742 -0.2462
 4341TIP3    H134514   0.280   5.397  11.468 -0.2105  0.7622  3.4808
 4341TIP3    H234515   0.396   5.302  11.487 -0.0055 -0.3250 -2.2238
 4342TIP3   OH234516   0.381   5.803   0.464  0.0490  0.1789  0.1139
 4342TIP3    H134517   0.304   5.747   0.470  0.0449  0.2287  0.5512
 4342TIP3    H234518   0.448   5.746   0.426 -0.7740  0.7416 -2.2727
 4343TIP3   OH234519   4.802   5.631   1.672  0.1240 -0.2345  0.5222
 4343TIP3    H134520   4.865   5.579   1.624 -0.4080 -0.4717  0.0719
 4343TIP3    H234521   4.716   5.597   1.644 -0.1891 -0.5412  1.8096
 4344TIP3   OH234522   6.742   2.256  17.183  0.0163  0.3884 -0.0716
 4344TIP3    H134523   6.702   2.169  17.179  0.7012  0.1012 -1.1591
 4344TIP3    H234524   6.826   2.245  17.138  0.5125  1.3996  0.5868
 4345TIP3   OH234525   4.436   6.186   3.584  0.1900  0.2725 -0.4494
 4345TIP3    H134526   4.437   6.091   3.574  1.9248  0.5545 -3.4635
 4345TIP3    H234527   4.366   6.215   3.525 -0.1179  0.9209  0.2209
 4346TIP3   OH234528   6.736   3.219   4.316 -0.4091 -0.1090 -0.3478
 4346TIP3    H134529   6.787   3.213   4.397 -0.4715  1.9073 -0.1286
 4346TIP3    H234530   6.755   3.307   4.283 -1.4822 -0.4098 -1.7848
 4347TIP3   OH234531   0.519   1.178   2.381  0.0572  0.3969 -0.7737
 4347TIP3    H134532   0.546   1.254   2.330  0.8976  2.1717  2.1505
 4347TIP3    H234533   0.565   1.188   2.465 -1.8358 -1.9536  0.6222
 4348TIP3   OH234534   2.018   2.858   1.069 -0.6119  0.4661 -0.0788
 4348TIP3    H134535   2.033   2.945   1.105  1.1433 -0.1235  0.6678
 4348TIP3    H234536   2.077   2.853   0.994 -2.2950  0.6969 -1.4585
 4349TIP3   OH234537   1.342   0.400  14.406  0.0312 -0.2046 -0.0089
 4349TIP3    H134538   1.300   0.482  14.381  0.0095 -0.4021 -0.6222
 4349TIP3    H234539   1.405   0.425  14.473  0.0296  0.3169 -0.1986
 4350TIP3   OH234540   4.152   0.842   3.188  0.3482  0.0843  0.2449
 4350TIP3    H134541   4.087   0.912   3.190  1.1936  0.8605  1.0365
 4350TIP3    H234542   4.140   0.800   3.103 -0.7453  0.6416  0.1253
 4351TIP3   OH234543   6.645   3.172   0.077 -0.4224  0.6906 -0.5378
 4351TIP3    H134544   6.610   3.084   0.087 -2.0787  1.2981 -0.8597
 4351TIP3    H234545   6.612   3.220   0.152  1.1811  0.8329  0.0970
 4352TIP3   OH234546   6.341   5.242   5.957  0.5012  0.1438 -0.2798
 4352TIP3    H134547   6.300   5.235   6.044 -0.1111  1.1138 -0.4880
 4352TIP3    H234548   6.404   5.171   5.955 -0.2870 -0.5928  0.5351
 4353TIP3   OH234549   1.930   1.685   4.178 -0.0478 -0.0984 -0.0976
 4353TIP3    H134550   2.012   1.724   4.209  0.2035  1.5236 -2.6801
 4353TIP3    H234551   1.955   1.597   4.150  1.0214  0.6443 -1.5944
 4354TIP3   OH234552   2.519   0.607  12.574 -0.4282  0.6072  0.4237
 4354TIP3    H134553   2.474   0.605  12.659 -1.6496 -1.2744 -0.2348
 4354TIP3    H234554   2.467   0.548  12.518  1.4740  0.3043 -1.0676
 4355TIP3   OH234555   1.459   3.323   6.430 -0.2177  0.5239  0.6241
 4355TIP3    H134556   1.402   3.285   6.363 -0.0145 -0.4318  0.9931
 4355TIP3    H234557   1.547   3.306   6.398 -0.1021  2.9490 -0.4889
 4356TIP3   OH234558   4.941   3.809  15.378  0.4103 -0.2376 -0.0332
 4356TIP3    H134559   4.957   3.718  15.400 -1.4827 -0.5030  0.2613
 4356TIP3    H234560   4.867   3.807  15.317  1.6833  0.9443 -1.6605
 4357TIP3   OH234561   3.730   2.744   1.981  0.2709 -0.0740 -0.8620
 4357TIP3    H134562   3.705   2.711   1.896  2.2612  0.6250 -1.7483
 4357TIP3    H234563   3.775   2.827   1.963 -0.0605  0.5289  0.9151
 4358TIP3   OH234564   0.097   3.716   1.763  0.1026 -0.0237 -0.0597
 4358TIP3    H134565   0.162   3.677   1.704 -1.9075 -1.9094 -1.1098
 4358TIP3    H234566   0.019   3.726   1.709 -0.2365  3.1118  0.9331
 4359TIP3   OH234567   4.619   1.036   1.288  0.4363  0.3622  0.2258
 4359TIP3    H134568   4.689   1.102   1.287 -1.1175  2.0651 -1.4491
 4359TIP3    H234569   4.563   1.060   1.214 -2.2766 -0.5373  1.9086
 4360TIP3   OH234570   5.683   0.800   3.804 -0.3653  0.3441 -0.3095
 4360TIP3    H134571   5.708   0.711   3.779 -1.0070  0.2163 -0.5128
 4360TIP3    H234572   5.759   0.853   3.782 -0.3350 -0.0085 -1.0947
 4361TIP3   OH234573   1.707   5.723  11.786  0.0751 -0.5476 -0.0328
 4361TIP3    H134574   1.636   5.771  11.743  0.6360  0.0054 -0.3512
 4361TIP3    H234575   1.714   5.641  11.737 -0.0085 -0.3828 -0.3187
 4362TIP3   OH234576   2.144   3.678  13.426 -0.0479 -0.4429  0.0454
 4362TIP3    H134577   2.228   3.636  13.410 -0.2363 -0.9064  0.2854
 4362TIP3    H234578   2.084   3.636  13.365 -0.5406 -1.4853  1.2297
 4363TIP3   OH234579   1.575   6.637   5.213  0.2975  0.3231 -0.0285
 4363TIP3    H134580   1.569   6.700   5.141  1.5198  0.1922 -0.2580
 4363TIP3    H234581   1.557   6.689   5.291  3.1776  1.4233 -0.0158
 4364TIP3   OH234582   6.595   1.406  15.728 -0.0929 -0.0191  1.2327
 4364TIP3    H134583   6.510   1.389  15.688  1.1354 -0.2108 -1.3963
 4364TIP3    H234584   6.628   1.320  15.752 -0.0270 -0.0670  0.9688
 4365TIP3   OH234585   2.039   3.927  15.712 -0.1768 -0.6584 -0.6598
 4365TIP3    H134586   2.080   3.917  15.798 -0.4327 -2.6165 -0.7502
 4365TIP3    H234587   2.098   3.882  15.652  1.4205  2.9781 -2.0028
 4366TIP3   OH234588   4.077   3.696   1.922  0.0001 -0.9120 -0.4515
 4366TIP3    H134589   4.042   3.649   1.847 -0.3693 -0.8128 -0.3424
 4366TIP3    H234590   4.171   3.704   1.904  0.1466 -2.0477 -0.2814
 4367TIP3   OH234591   0.201   2.513   0.229 -0.2233  0.2659  1.0495
 4367TIP3    H134592   0.171   2.531   0.140 -0.0889  2.0603  1.3499
 4367TIP3    H234593   0.296   2.527   0.227  0.0808 -1.5993  1.0328
 4368TIP3   OH234594   0.505   6.801  12.694  0.7538  0.2067 -0.0464
 4368TIP3    H134595   0.440   6.732  12.678 -0.1911  1.3576 -1.2364
 4368TIP3    H234596   0.563   6.798  12.618  0.2379  1.2343 -0.4922
 4369TIP3   OH234597   1.075   3.234   1.599 -0.5215  0.5352 -0.3171
 4369TIP3    H134598   1.042   3.261   1.514 -0.1500  2.4273  0.1069
 4369TIP3    H234599   1.018   3.163   1.626 -0.5856 -0.1497 -2.1785
 4370TIP3   OH234600   3.422   6.790  14.380  0.2512 -0.2586 -0.6182
 4370TIP3    H134601   3.486   6.837  14.434 -1.2810 -0.1428  1.1891
 4370TIP3    H234602   3.416   6.704  14.421 -1.5231  0.1010 -0.0727
 4371TIP3   OH234603   3.238   1.961  15.932 -0.1621 -0.2774 -0.4483
 4371TIP3    H134604   3.286   2.033  15.973 -0.6646 -0.3139  0.1947
 4371TIP3    H234605   3.184   2.003  15.865 -0.9976  0.0291  0.4091
 4372TIP3   OH234606   6.150   3.572   2.889  0.3405 -0.0755 -0.1015
 4372TIP3    H134607   6.126   3.518   2.965  0.6959  0.0459  0.1026
 4372TIP3    H234608   6.245   3.561   2.882  0.5849  1.3849  0.6248
 4373TIP3   OH234609   1.493   1.425  15.676 -0.9074  0.3730 -0.4987
 4373TIP3    H134610   1.444   1.343  15.677 -0.5826  0.1826  0.0276
 4373TIP3    H234611   1.494   1.452  15.585  0.2827 -0.9683 -0.8969
 4374TIP3   OH234612   5.704   4.005  16.741 -0.4123 -0.0523  0.4012
 4374TIP3    H134613   5.770   4.065  16.709 -0.0805  0.0037  1.1625
 4374TIP3    H234614   5.746   3.919  16.739 -0.6814 -0.1702 -0.1288
 4375TIP3   OH234615   6.693   6.593  12.467 -0.1932 -0.0318  0.1722
 4375TIP3    H134616   6.782   6.558  12.462 -0.0926  0.1982  0.3278
 4375TIP3    H234617   6.690   6.660  12.399 -0.3819 -0.3336 -0.1207
 4376TIP3   OH234618   3.924   3.267  13.704 -0.4992 -0.1722  0.0128
 4376TIP3    H134619   3.893   3.228  13.786  0.2990 -0.3527  0.2358
 4376TIP3    H234620   3.968   3.195  13.659  0.5379  0.3361  0.1960
 4377TIP3   OH234621   6.005   4.094   3.136 -0.3096 -0.3948  0.1088
 4377TIP3    H134622   6.049   4.095   3.051  0.9880  0.9791  0.7610
 4377TIP3    H234623   6.057   4.032   3.188 -0.2249 -0.1360  0.3332
 4378TIP3   OH234624   0.608   6.230  13.306 -0.4337  0.5365  0.3767
 4378TIP3    H134625   0.548   6.295  13.270 -1.9139 -0.1960  1.4840
 4378TIP3    H234626   0.587   6.226  13.399  0.5159 -0.6068  0.5567
 4379TIP3   OH234627   4.304   1.086   4.554  0.2866 -0.1895 -0.2571
 4379TIP3    H134628   4.358   1.142   4.610  0.4736 -1.8562  1.2719
 4379TIP3    H234629   4.360   1.066   4.479  1.4584 -1.0800  0.8342
 4380TIP3   OH234630   3.844   6.016   2.633  0.1631  0.3842 -0.2261
 4380TIP3    H134631   3.862   6.050   2.546  0.1861 -2.0902 -1.1994
 4380TIP3    H234632   3.753   5.985   2.629  0.0087  0.6812  0.7679
 4381TIP3   OH234633   3.929   1.554  10.616  0.0465  0.2347 -0.1596
 4381TIP3    H134634   3.977   1.621  10.567  0.4831  0.1141  0.1052
 4381TIP3    H234635   3.974   1.472  10.596 -0.5197  0.0134 -0.5232
 4382TIP3   OH234636   5.054   6.575  11.825 -0.2059 -0.2846 -0.0641
 4382TIP3    H134637   4.973   6.582  11.774  0.8164 -2.5048 -2.1019
 4382TIP3    H234638   5.123   6.580  11.759  1.1884 -2.4353  1.1982
 4383TIP3   OH234639   5.988   4.128   6.249 -0.0466  0.5278  0.2748
 4383TIP3    H134640   5.975   4.051   6.305 -0.5054  0.7199  0.4364
 4383TIP3    H234641   6.073   4.162   6.276 -0.4918  0.9149  1.2201
 4384TIP3   OH234642   3.535   1.326   0.742  0.4885  0.7329  0.3156
 4384TIP3    H134643   3.619   1.286   0.722  0.4717 -0.7090  2.7856
 4384TIP3    H234644   3.555   1.415   0.768  0.9604  1.1712 -1.5092
 4385TIP3   OH234645   2.593   5.737  12.619 -0.2650  0.4548  0.3869
 4385TIP3    H134646   2.568   5.828  12.604 -0.3828  0.4079  0.2958
 4385TIP3    H234647   2.590   5.725  12.714  2.9801  1.4828  0.6890
 4386TIP3   OH234648   6.422   4.834   2.788  0.3418 -0.1363  0.4265
 4386TIP3    H134649   6.330   4.826   2.811  0.3401 -0.1425  0.4149
 4386TIP3    H234650   6.437   4.765   2.723  0.7778 -1.2793  1.7210
 4387TIP3   OH234651   6.439   3.537  15.225 -0.1755 -0.2731  0.4517
 4387TIP3    H134652   6.417   3.583  15.144  2.7855  0.2580 -0.1318
 4387TIP3    H234653   6.400   3.589  15.295 -1.5913  0.0139 -0.5431
 4388TIP3   OH234654   6.514   2.822  12.979 -0.0256 -0.5552  0.3226
 4388TIP3    H134655   6.578   2.756  13.004  1.0005  0.5815  0.7711
 4388TIP3    H234656   6.549   2.859  12.897  0.1634  0.3981  0.8214
 4389TIP3   OH234657   2.793   6.639  14.260 -0.1257  0.6938 -0.0181
 4389TIP3    H134658   2.745   6.667  14.338 -0.2162 -0.4207  0.3394
 4389TIP3    H234659   2.848   6.567  14.290 -2.3821 -1.8074 -1.5606
 4390TIP3   OH234660   2.105   1.784  13.541  0.1817  0.8537  0.5497
 4390TIP3    H134661   2.104   1.850  13.610  0.7190  2.2145 -0.7118
 4390TIP3    H234662   2.033   1.809  13.483  0.2109  0.1755  0.2153
 4391TIP3   OH234663   6.324   5.081  13.702 -0.3497 -0.3192 -0.1738
 4391TIP3    H134664   6.324   5.158  13.759 -0.0547  0.3607 -1.0749
 4391TIP3    H234665   6.295   5.115  13.617 -2.9214 -1.7149  0.1097
 4392TIP3   OH234666   6.359   6.183  13.329  0.2193  0.0948  0.3974
 4392TIP3    H134667   6.432   6.244  13.318 -0.6303  1.0318 -0.0362
 4392TIP3    H234668   6.349   6.176  13.424  0.3357  0.5989  0.4475
 4393TIP3   OH234669   4.007   3.842  15.531  0.1573 -0.1433  0.4605
 4393TIP3    H134670   3.984   3.843  15.438  1.5409 -2.7855  0.0521
 4393TIP3    H234671   3.933   3.800  15.574 -0.6869  1.4928  0.6326
 4394TIP3   OH234672   3.848   2.370   4.688 -0.5994  0.4298 -0.2887
 4394TIP3    H134673   3.886   2.332   4.768 -0.5876  0.7098 -0.1582
 4394TIP3    H234674   3.803   2.449   4.719 -0.7400  0.4455 -0.5371
 4395TIP3   OH234675   4.221   0.081  16.504  0.5195 -0.0012 -0.2677
 4395TIP3    H134676   4.295   0.046  16.555  0.8392 -0.1861 -0.8512
 4395TIP3    H234677   4.236   0.048  16.416  0.2255  0.7226 -0.5876
 4396TIP3   OH234678   6.410   5.638  11.196  0.6105  0.2200 -0.0195
 4396TIP3    H134679   6.485   5.650  11.138  0.5440  0.0159 -0.1486
 4396TIP3    H234680   6.336   5.672  11.145  0.5809  0.2174  0.0218
 4397TIP3   OH234681   2.771   4.506  11.073 -0.2489  0.4207 -0.4636
 4397TIP3    H134682   2.766   4.596  11.105 -0.8700 -0.0207  0.7108
 4397TIP3    H234683   2.680   4.481  11.060 -0.0601  0.0648 -1.0916
 4398TIP3   OH234684   1.058   2.379  14.483  0.0940 -0.3390  0.0727
 4398TIP3    H134685   1.067   2.471  14.508 -1.5293  0.1529 -1.1240
 4398TIP3    H234686   1.105   2.372  14.400  1.4672 -0.9296  0.8872
 4399TIP3   OH234687   2.665   1.602   5.824 -0.1748 -0.0300 -0.0807
 4399TIP3    H134688   2.735   1.630   5.882 -0.4554  0.6250 -0.0491
 4399TIP3    H234689   2.697   1.621   5.736 -0.5066  0.7262 -0.0417
 4400TIP3   OH234690   3.552   0.428  15.256 -0.0292  0.2011 -0.1177
 4400TIP3    H134691   3.519   0.518  15.261  0.7621  0.4549  1.0933
 4400TIP3    H234692   3.632   0.435  15.204 -1.1612 -0.1935 -1.9423
 4401TIP3   OH234693   3.671   6.698  15.584  0.2976  0.4608  0.4749
 4401TIP3    H134694   3.582   6.732  15.593  0.2477  0.5988 -0.5047
 4401TIP3    H234695   3.695   6.671  15.673 -1.5798 -1.6897  0.3853
 4402TIP3   OH234696   0.271   2.471   0.797 -0.8574 -0.6113 -0.3415
 4402TIP3    H134697   0.280   2.397   0.736  0.0786  0.7668 -1.8858
 4402TIP3    H234698   0.348   2.465   0.853  1.1718  1.3061 -2.8161
 4403TIP3   OH234699   2.063   6.490  13.987 -0.1616 -0.3224  0.2068
 4403TIP3    H134700   2.062   6.395  13.973 -0.1839 -0.3540  0.4281
 4403TIP3    H234701   2.124   6.504  14.059 -0.3227 -0.1885  0.3198
 4404TIP3   OH234702   3.471   5.518   1.618 -0.1000  0.0332  0.2259
 4404TIP3    H134703   3.416   5.583   1.661 -0.1798 -0.5325  1.0041
 4404TIP3    H234704   3.542   5.502   1.681 -1.3758 -2.3803  1.0975
 4405TIP3   OH234705   1.564   6.611  13.829 -0.3248 -0.1540  0.2867
 4405TIP3    H134706   1.476   6.583  13.853 -0.5262  0.2955  0.0792
 4405TIP3    H234707   1.598   6.657  13.906 -0.7389  0.7523 -0.0696
 4406TIP3   OH234708   0.478   5.767  13.832  0.1216 -0.7133 -0.7254
 4406TIP3    H134709   0.508   5.690  13.880 -0.5153 -1.2321 -1.1512
 4406TIP3    H234710   0.442   5.825  13.899  1.9249 -0.1447 -0.2272
 4407TIP3   OH234711   2.831   0.148   2.860  0.5879 -0.4849  0.1693
 4407TIP3    H134712   2.833   0.165   2.955  1.0763 -1.7386  0.4029
 4407TIP3    H234713   2.872   0.062   2.851  1.0125 -0.1443 -1.2451
 4408TIP3   OH234714   1.034   2.206  15.673 -0.3053  0.3858 -0.1468
 4408TIP3    H134715   0.983   2.287  15.674 -0.4459  0.3088 -0.8692
 4408TIP3    H234716   1.123   2.234  15.655 -0.4768  0.3215 -1.1382
 4409TIP3   OH234717   3.502   1.957  13.869  0.4169  0.5131 -0.4673
 4409TIP3    H134718   3.433   2.023  13.861  0.1116  0.1342 -1.0240
 4409TIP3    H234719   3.554   1.967  13.790  0.4349  0.1583 -0.5001
 4410TIP3   OH234720   6.457   6.026  11.521 -0.3037 -0.9298 -0.4889
 4410TIP3    H134721   6.445   6.006  11.614  0.2549  1.0705  0.0309
 4410TIP3    H234722   6.472   5.941  11.480 -1.2229 -1.9009  1.1417
 4411TIP3   OH234723   3.054   3.846  17.140  0.0701  0.9588  0.4805
 4411TIP3    H134724   3.126   3.807  17.190  0.4256  0.1394 -0.6412
 4411TIP3    H234725   3.005   3.897  17.204  0.2217 -0.4737  1.7678
 4412TIP3   OH234726   4.527   4.197  16.207 -0.5468 -0.4315 -0.5963
 4412TIP3    H134727   4.457   4.244  16.254  0.5843  2.0093 -1.2527
 4412TIP3    H234728   4.489   4.180  16.120 -1.0964 -1.0455 -0.2384
 4413TIP3   OH234729   3.553   0.437   3.184  0.1443  0.2693  0.0561
 4413TIP3    H134730   3.462   0.425   3.210  0.2676  1.1508  0.9098
 4413TIP3    H234731   3.565   0.532   3.182  0.9346  0.1610 -0.4471
 4414TIP3   OH234732   1.472   4.999   0.290  0.1572 -0.0464 -0.4282
 4414TIP3    H134733   1.461   5.053   0.368  0.3431  0.6257 -0.8716
 4414TIP3    H234734   1.489   5.061   0.219 -0.0152 -0.6555 -1.0070
 4415TIP3   OH234735   4.628   2.567   3.180 -0.6405 -0.1816  0.2575
 4415TIP3    H134736   4.685   2.573   3.104 -2.3376 -1.4930 -1.1851
 4415TIP3    H234737   4.638   2.477   3.210 -1.7271 -0.3562  0.1328
 4416TIP3   OH234738   1.198   0.220   1.974 -0.0109 -0.0942 -0.2121
 4416TIP3    H134739   1.239   0.288   2.029  1.0113  0.0044 -1.0789
 4416TIP3    H234740   1.260   0.147   1.978 -1.1481 -1.0245  0.7861
 4417TIP3   OH234741   5.717   3.332   5.371  0.3986 -0.2861 -0.1430
 4417TIP3    H134742   5.731   3.391   5.445  0.7235  0.1997 -0.5900
 4417TIP3    H234743   5.799   3.284   5.363  1.1115  1.1436 -1.5015
 4418TIP3   OH234744   5.948   0.207  11.195  0.0555  0.3278  0.0361
 4418TIP3    H134745   5.943   0.115  11.169  0.0346  0.3537 -0.0512
 4418TIP3    H234746   5.991   0.251  11.122  3.4717 -0.2228  1.6494
 4419TIP3   OH234747   1.952   4.639   4.935 -0.2019 -0.0388  0.6180
 4419TIP3    H134748   2.027   4.697   4.949  0.9636 -1.2004 -0.6595
 4419TIP3    H234749   1.990   4.558   4.902 -2.0558 -0.5437 -0.3396
 4420TIP3   OH234750   2.482   4.120  15.924 -0.0967  0.4015 -0.1386
 4420TIP3    H134751   2.571   4.109  15.956  0.3306  2.0097 -0.7405
 4420TIP3    H234752   2.445   4.190  15.977 -0.7736  0.2378 -0.3755
 4421TIP3   OH234753   0.679   2.766   1.190  0.1775  0.1015  0.1984
 4421TIP3    H134754   0.725   2.692   1.231  0.4172  0.9145  1.4143
 4421TIP3    H234755   0.616   2.795   1.256 -0.0415  0.8769 -0.3439
 4422TIP3   OH234756   3.428   0.788  12.636 -0.4563 -0.5647 -0.1799
 4422TIP3    H134757   3.386   0.757  12.556  1.5001 -1.0364 -1.0554
 4422TIP3    H234758   3.502   0.728  12.649 -0.1069  0.1770  1.3822
 4423TIP3   OH234759   5.578   2.106  14.933  0.2988  0.3878 -0.3603
 4423TIP3    H134760   5.531   2.024  14.921  1.4167 -0.2119 -0.6662
 4423TIP3    H234761   5.529   2.152  15.002 -1.2746  0.1940 -1.3271
 4424TIP3   OH234762   0.590   2.763  11.195 -0.3714 -0.9732  0.3552
 4424TIP3    H134763   0.658   2.737  11.134  1.0347  0.1921  1.3954
 4424TIP3    H234764   0.550   2.680  11.223  1.0930 -1.7166  0.2844
 4425TIP3   OH234765   2.444   6.338  12.824 -0.1822 -0.2269  0.1054
 4425TIP3    H134766   2.428   6.399  12.897 -0.0917 -0.8028  0.6145
 4425TIP3    H234767   2.520   6.287  12.852  2.0878  1.9086 -1.9220
 4426TIP3   OH234768   3.603   4.433   0.171  0.1048  0.4603 -0.0438
 4426TIP3    H134769   3.693   4.406   0.189  0.2860  0.4064 -0.9968
 4426TIP3    H234770   3.554   4.351   0.164  0.1013  0.4667 -0.1031
 4427TIP3   OH234771   2.990   2.835   3.901 -0.0263  0.3899 -0.3452
 4427TIP3    H134772   3.009   2.852   3.809  3.0361  2.7612  0.6472
 4427TIP3    H234773   2.907   2.880   3.917 -0.6733 -0.1923 -1.9655
 4428TIP3   OH234774   4.695   5.768   5.127  0.3614  0.0219  0.2005
 4428TIP3    H134775   4.684   5.812   5.043 -2.2728 -0.8764  0.0432
 4428TIP3    H234776   4.743   5.831   5.181  2.0401  0.6299 -1.9078
 4429TIP3   OH234777   6.371   4.083   4.262 -0.0019 -0.5186 -0.0766
 4429TIP3    H134778   6.412   4.103   4.177  0.4243 -1.0433 -0.0027
 4429TIP3    H234779   6.317   4.005   4.245 -1.2159  0.3479 -0.2398
 4430TIP3   OH234780   6.392   3.586   0.330 -0.6882 -0.0717  0.1778
 4430TIP3    H134781   6.326   3.634   0.281 -0.4448 -0.2571 -0.3325
 4430TIP3    H234782   6.413   3.643   0.405 -1.1431  0.1546  0.1334
 4431TIP3   OH234783   5.557   6.521  13.387  0.2761  0.2154  0.3151
 4431TIP3    H134784   5.477   6.568  13.363  0.8937  1.4141  0.5469
 4431TIP3    H234785   5.537   6.485  13.474 -0.3620 -0.3149 -0.0525
 4432TIP3   OH234786   1.824   4.701  13.448  0.1200  0.5274 -0.1710
 4432TIP3    H134787   1.857   4.738  13.530  0.7942  0.6021 -0.4728
 4432TIP3    H234788   1.780   4.620  13.474 -0.2577  0.8927  0.3433
 4433TIP3   OH234789   2.785   2.336  15.582  0.1820  0.0858  1.0911
 4433TIP3    H134790   2.733   2.415  15.593  1.0527  0.8964 -0.4969
 4433TIP3    H234791   2.737   2.283  15.519  0.3669  0.0263  0.9984
 4434TIP3   OH234792   0.785   5.968   1.787  0.4108  0.1552  1.0133
 4434TIP3    H134793   0.812   5.882   1.755  0.1299 -0.1610  1.6194
 4434TIP3    H234794   0.743   6.009   1.711 -2.2427 -1.4587  1.5230
 4435TIP3   OH234795   6.461   4.709   4.962 -0.1596 -0.1335 -0.1699
 4435TIP3    H134796   6.555   4.722   4.947  0.0235 -1.9271 -0.6718
 4435TIP3    H234797   6.457   4.635   5.023 -1.2674 -0.8014 -1.0295
 4436TIP3   OH234798   1.170   3.099  15.786  0.2853  0.0911 -0.8387
 4436TIP3    H134799   1.206   3.028  15.839  1.8039  0.5295 -1.2689
 4436TIP3    H234800   1.220   3.097  15.705 -0.3161  1.0357 -1.2437
 4437TIP3   OH234801   0.842   0.480  16.832  0.1665 -0.0156 -0.2266
 4437TIP3    H134802   0.775   0.533  16.788 -1.2872 -1.8082 -0.2491
 4437TIP3    H234803   0.809   0.390  16.826  0.6130 -0.4901  3.2141
 4438TIP3   OH234804   4.907   3.542  15.697  0.0646 -0.2081  0.0937
 4438TIP3    H134805   4.955   3.619  15.726 -1.0842  0.7078 -0.3975
 4438TIP3    H234806   4.934   3.473  15.757  2.0236  0.2688 -0.1977
 4439TIP3   OH234807   3.461   6.480  16.721  0.0816  0.0348 -0.1584
 4439TIP3    H134808   3.488   6.470  16.812 -0.7740 -0.8941 -0.0066
 4439TIP3    H234809   3.542   6.498  16.674  0.6875 -0.6634  0.6108
 4440TIP3   OH234810   2.739   2.805  14.812  0.3096  0.4948 -0.1780
 4440TIP3    H134811   2.725   2.784  14.720 -0.0588  1.8631 -0.4494
 4440TIP3    H234812   2.795   2.735  14.845 -2.1720 -1.7707 -0.6190
 4441TIP3   OH234813   5.550   0.403   0.333  0.1805 -0.1926 -0.0597
 4441TIP3    H134814   5.604   0.392   0.411 -2.9997  0.8950  2.4462
 4441TIP3    H234815   5.483   0.335   0.341 -1.3737  1.2190 -0.7459
 4442TIP3   OH234816   2.580   5.350   4.389 -0.2173 -0.0555 -0.0571
 4442TIP3    H134817   2.486   5.351   4.407 -0.1441  0.3657  0.3255
 4442TIP3    H234818   2.586   5.338   4.294 -0.7068  1.6825 -0.3279
 4443TIP3   OH234819   0.310   6.263   4.504  0.9087  0.2682 -0.0718
 4443TIP3    H134820   0.397   6.231   4.526 -0.0102 -1.3456  1.3071
 4443TIP3    H234821   0.280   6.309   4.582 -0.6291 -1.7333  0.5603
 4444TIP3   OH234822   0.851   6.543  16.400  0.1383 -0.2390  0.1640
 4444TIP3    H134823   0.792   6.507  16.466  0.2557 -0.5829  0.0822
 4444TIP3    H234824   0.909   6.470  16.376  0.3390 -0.0149 -0.0440
 4445TIP3   OH234825   1.680   0.205   4.912  0.5207 -0.1930  0.6026
 4445TIP3    H134826   1.770   0.233   4.896  0.3551  0.2926  0.5310
 4445TIP3    H234827   1.638   0.206   4.826  0.5107 -0.6552  0.5986
 4446TIP3   OH234828   6.596   6.605   4.879  0.2417 -0.0817 -0.0153
 4446TIP3    H134829   6.586   6.624   4.786  0.8051 -0.1972 -0.0992
 4446TIP3    H234830   6.689   6.619   4.897 -0.1372  1.4190  0.8692
 4447TIP3   OH234831   6.586   3.137  10.742 -0.2836 -0.4145  0.3798
 4447TIP3    H134832   6.519   3.195  10.707  0.0056  0.5419  1.3875
 4447TIP3    H234833   6.539   3.056  10.763 -0.9101 -0.1373  0.0519
 4448TIP3   OH234834   6.547   0.103  13.507 -0.9971 -0.0575  0.1158
 4448TIP3    H134835   6.596   0.036  13.556 -1.0790 -0.2203 -0.0224
 4448TIP3    H234836   6.599   0.183  13.516 -0.9019 -0.1390  0.2898
 4449TIP3   OH234837   4.875   1.510  15.035  0.6694  0.1892  0.1753
 4449TIP3    H134838   4.967   1.532  15.045  0.8495 -0.0902 -0.8210
 4449TIP3    H234839   4.871   1.415  15.048  0.3450  0.3413  1.3360
 4450TIP3   OH234840   1.594   6.550  14.849 -0.1420 -0.2318  0.3879
 4450TIP3    H134841   1.569   6.622  14.907  2.2092  1.3926 -0.5526
 4450TIP3    H234842   1.649   6.493  14.903 -1.0219 -0.6977  0.7966
 4451TIP3   OH234843   4.179   0.702  12.060 -0.7707  0.1377  0.0189
 4451TIP3    H134844   4.137   0.749  12.132 -0.6995  1.0200 -0.5054
 4451TIP3    H234845   4.163   0.757  11.983 -1.8802 -1.3723 -0.8638
 4452TIP3   OH234846   3.312   2.121  11.661 -0.0867 -0.3039 -0.0489
 4452TIP3    H134847   3.278   2.149  11.576 -0.3752  0.9530  0.4636
 4452TIP3    H234848   3.234   2.104  11.714  0.0912 -1.1177 -0.0423
 4453TIP3   OH234849   1.295   5.949   0.997 -0.3343  0.3150  0.1775
 4453TIP3    H134850   1.250   5.947   0.913 -0.1036 -1.0349  0.0747
 4453TIP3    H234851   1.354   5.874   0.995  1.3057  1.5468  0.6599
 4454TIP3   OH234852   4.078   1.976   3.826  0.1301  0.1960  0.0683
 4454TIP3    H134853   4.010   1.963   3.760 -1.5807  0.5563  1.7390
 4454TIP3    H234854   4.031   2.005   3.904  2.1083 -0.4049  1.5221
 4455TIP3   OH234855   1.433   0.732   1.445  0.4832  0.0643  0.1559
 4455TIP3    H134856   1.455   0.640   1.429  0.2803  0.2006 -0.9464
 4455TIP3    H234857   1.417   0.737   1.539  1.2368 -0.8710  0.3466
 4456TIP3   OH234858   2.878   4.998   5.500  0.5578  0.0832  0.3032
 4456TIP3    H134859   2.826   5.009   5.421 -0.7086  0.8801  1.2162
 4456TIP3    H234860   2.936   4.925   5.481  0.7932  0.7592 -1.6232
 4457TIP3   OH234861   1.178   4.584   0.583 -0.2309 -0.3465 -0.0417
 4457TIP3    H134862   1.267   4.576   0.617 -0.0176  0.7603 -0.3014
 4457TIP3    H234863   1.189   4.605   0.490 -0.7854 -1.5390 -0.3837
 4458TIP3   OH234864   3.209   4.694   4.375 -0.2734 -0.0102 -0.4589
 4458TIP3    H134865   3.183   4.784   4.398 -0.5371 -0.3334  0.5416
 4458TIP3    H234866   3.133   4.659   4.327 -0.0427  0.4016 -1.1345
 4459TIP3   OH234867   2.243   0.527   1.332 -0.1344  0.4532 -0.1474
 4459TIP3    H134868   2.202   0.514   1.247  1.7859  1.0078 -1.1833
 4459TIP3    H234869   2.191   0.472   1.392  0.0337 -1.9713 -2.1142
 4460TIP3   OH234870   3.033   2.958   4.846  0.3179 -0.2600  0.1479
 4460TIP3    H134871   3.085   3.017   4.791  2.7137 -1.3267  1.1708
 4460TIP3    H234872   2.950   3.002   4.858  1.8778  2.6956  0.4941
 4461TIP3   OH234873   6.158   1.474  14.488  0.1301  0.5953 -0.3811
 4461TIP3    H134874   6.100   1.414  14.535 -0.3313  0.5139 -1.0542
 4461TIP3    H234875   6.246   1.446  14.511 -0.0672 -0.9167 -1.4100
 4462TIP3   OH234876   5.655   2.603  14.026  0.1814 -0.4380 -0.5106
 4462TIP3    H134877   5.734   2.650  14.000 -1.1768  2.3413  0.1069
 4462TIP3    H234878   5.634   2.547  13.952  1.5648  0.3547 -1.5294
 4463TIP3   OH234879   2.190   0.063   1.755  0.2986 -0.2721 -0.4713
 4463TIP3    H134880   2.234   0.110   1.685  1.2615 -0.1838  0.1913
 4463TIP3    H234881   2.116   0.119   1.779  0.7709  0.3444 -0.4664
 4464TIP3   OH234882   2.241   6.512  16.237  0.1290 -0.4074 -0.2387
 4464TIP3    H134883   2.174   6.451  16.207 -0.5377  0.4887 -0.6059
 4464TIP3    H234884   2.232   6.588  16.179  0.8611  0.0848  0.2821
 4465TIP3   OH234885   1.089   6.148  17.026 -0.2077  0.2708 -0.0404
 4465TIP3    H134886   1.007   6.111  17.059 -1.0606 -1.0967 -3.4301
 4465TIP3    H234887   1.156   6.082  17.048 -0.8799 -0.9603 -1.5863
 4466TIP3   OH234888   5.303   4.023   2.803 -0.8750  0.2122  0.2639
 4466TIP3    H134889   5.305   3.938   2.847 -0.0556 -0.3593 -0.8514
 4466TIP3    H234890   5.288   4.001   2.710  0.2844  1.2223 -0.1681
 4467TIP3   OH234891   1.901   5.071   6.600 -0.0855  0.1117 -0.0241
 4467TIP3    H134892   1.936   5.075   6.512 -1.1949  1.9683 -0.4070
 4467TIP3    H234893   1.919   5.157   6.638 -0.8683 -0.1862  1.0675
 4468TIP3   OH234894   5.256   0.296  11.806 -0.4140  0.5532 -0.2377
 4468TIP3    H134895   5.328   0.285  11.869  0.1535 -1.8601 -1.2376
 4468TIP3    H234896   5.230   0.387  11.814  2.9062  1.5335  0.0300
 4469TIP3   OH234897   4.982   0.906   4.395 -0.1325 -0.1589  0.2796
 4469TIP3    H134898   5.056   0.873   4.343  0.3327 -0.0565  0.8694
 4469TIP3    H234899   4.950   0.829   4.442 -1.5385 -0.5766 -1.3291
 4470TIP3   OH234900   6.450   0.585  16.752  0.3466  0.4194 -0.0468
 4470TIP3    H134901   6.441   0.621  16.664 -0.7691  0.9593  0.2861
 4470TIP3    H234902   6.487   0.656  16.804  1.5007 -0.0620 -0.1774
 4471TIP3   OH234903   2.055   6.576   6.165 -0.1955  0.2451  0.0052
 4471TIP3    H134904   2.043   6.670   6.178  1.2035  0.0877  2.7947
 4471TIP3    H234905   2.059   6.540   6.254  0.4687 -2.2890 -1.0173
 4472TIP3   OH234906   0.826   0.309  10.969 -0.2479  0.3036  0.0313
 4472TIP3    H134907   0.803   0.400  10.985  2.2951  0.9432  0.2895
 4472TIP3    H234908   0.922   0.308  10.970 -0.2308 -2.2474 -0.6626
 4473TIP3   OH234909   2.221   0.346  16.576  0.3375 -0.3193  0.1094
 4473TIP3    H134910   2.252   0.283  16.511 -1.6537 -1.0220 -0.1898
 4473TIP3    H234911   2.185   0.292  16.647  0.5195  0.4739  0.8196
 4474TIP3   OH234912   0.763   5.746  11.171 -0.2975  0.1969 -0.1809
 4474TIP3    H134913   0.804   5.703  11.096 -0.3631 -1.6181  0.7780
 4474TIP3    H234914   0.675   5.708  11.175 -0.6223  0.9737  0.2680
 4475TIP3   OH234915   5.126   1.976   3.014 -0.1264 -0.1447  0.4114
 4475TIP3    H134916   5.068   1.903   2.994 -1.1568  0.8639 -0.3860
 4475TIP3    H234917   5.140   1.971   3.109  1.5138 -2.5942  0.0748
 4476TIP3   OH234918   0.292   6.242   0.103  0.3147  0.2684  0.1703
 4476TIP3    H134919   0.281   6.331   0.069 -0.9686  0.0623  0.0351
 4476TIP3    H234920   0.204   6.214   0.127  0.7244 -0.9313  0.3162
 4477TIP3   OH234921   1.361   6.549  16.992  0.2920  0.3770 -0.4715
 4477TIP3    H134922   1.446   6.557  16.951  0.4320 -1.1960 -0.5133
 4477TIP3    H234923   1.322   6.470  16.953 -1.0421  0.8934 -0.2264
 4478TIP3   OH234924   2.453   6.019   6.303 -0.1991  0.0482  0.2199
 4478TIP3    H134925   2.491   6.106   6.310  0.5405 -0.1949 -0.6281
 4478TIP3    H234926   2.464   5.980   6.389  0.5993  0.3429  0.2528
 4479TIP3   OH234927   0.605   6.190   4.604 -0.1047 -0.1971  0.5861
 4479TIP3    H134928   0.581   6.098   4.594 -1.4778  0.1411  0.7154
 4479TIP3    H234929   0.580   6.211   4.694 -1.9612  0.9299 -0.1798
 4480TIP3   OH234930   5.022   3.864  11.514  0.1017  0.3271 -0.1113
 4480TIP3    H134931   5.029   3.779  11.556  1.1196  0.6274  0.3565
 4480TIP3    H234932   5.033   3.927  11.585 -0.9401  0.8519 -0.4084
 4481TIP3   OH234933   1.807   3.744  11.639  0.0209 -0.8439  0.4498
 4481TIP3    H134934   1.819   3.710  11.728 -1.3936 -2.3278  0.1082
 4481TIP3    H234935   1.872   3.698  11.587  0.6924 -0.1482  0.6613
 4482TIP3   OH234936   2.390   0.129   2.643  0.3240 -0.0832  0.3602
 4482TIP3    H134937   2.330   0.096   2.711  0.8421 -1.4191  0.1813
 4482TIP3    H234938   2.476   0.097   2.670  0.7617  0.7101 -0.0946
 4483TIP3   OH234939   6.533   5.874  15.178  0.6126 -0.0626 -0.4586
 4483TIP3    H134940   6.511   5.781  15.171 -1.6325  0.4259 -0.0330
 4483TIP3    H234941   6.556   5.900  15.089  0.9528 -0.9376 -0.6314
 4484TIP3   OH234942   5.625   3.794   4.752  0.0319  0.2272 -0.2815
 4484TIP3    H134943   5.720   3.789   4.747 -0.0239 -0.5566 -0.6154
 4484TIP3    H234944   5.594   3.708   4.722 -0.7761  0.4568 -0.1342
 4485TIP3   OH234945   5.163   1.986  16.388  0.1002 -0.4091  0.0761
 4485TIP3    H134946   5.225   2.041  16.435 -0.3520  1.3225 -1.3372
 4485TIP3    H234947   5.080   1.999  16.434  0.2594 -0.9287  0.5263
 4486TIP3   OH234948   2.292   1.135  11.023 -0.2387  0.4472 -0.1280
 4486TIP3    H134949   2.345   1.056  11.015  0.2185  0.7380 -0.0094
 4486TIP3    H234950   2.247   1.142  10.939  0.0136  0.2720 -0.2795
 4487TIP3   OH234951   5.989   6.724  16.291  0.6114 -0.0767 -0.3280
 4487TIP3    H134952   5.912   6.678  16.322 -0.1819  0.2092 -1.8431
 4487TIP3    H234953   5.955   6.798  16.242  1.8558  0.4497 -0.4172
 4488TIP3   OH234954   4.829   1.185  14.241 -0.1345 -0.8108 -0.5857
 4488TIP3    H134955   4.751   1.231  14.272  1.8524  0.9028  2.0073
 4488TIP3    H234956   4.869   1.245  14.178  0.1624 -0.8392 -0.4234
 4489TIP3   OH234957   4.769   2.812   4.481  0.4516  0.5550 -0.6708
 4489TIP3    H134958   4.749   2.903   4.459  1.2090  0.4137 -1.9963
 4489TIP3    H234959   4.755   2.806   4.575 -2.2653  1.3585 -0.9621
 4490TIP3   OH234960   1.658   3.921  14.954 -0.3520 -0.9244  0.2218
 4490TIP3    H134961   1.590   3.932  14.887 -0.6968 -1.0157  0.5593
 4490TIP3    H234962   1.617   3.867  15.021 -0.1490 -0.4447  0.7299
 4491TIP3   OH234963   2.676   0.891  15.233  0.4640  0.2851  0.7209
 4491TIP3    H134964   2.706   0.970  15.277 -1.9742  0.8226  1.5139
 4491TIP3    H234965   2.602   0.861  15.286 -2.4100  0.7887 -2.7485
 4492TIP3   OH234966   0.159   3.304  14.465  0.0473  0.4634 -0.4802
 4492TIP3    H134967   0.087   3.252  14.501  1.8222 -1.2523  0.7155
 4492TIP3    H234968   0.202   3.343  14.542  0.1241  1.8624 -1.2103
 4493TIP3   OH234969   5.494   4.665  12.586 -0.1475  0.1058 -0.2810
 4493TIP3    H134970   5.575   4.714  12.602 -0.1017 -0.5755  1.8528
 4493TIP3    H234971   5.523   4.583  12.547  0.0540  0.4830 -0.9283
 4494TIP3   OH234972   3.988   0.267  14.568 -0.3565 -0.1620 -0.0904
 4494TIP3    H134973   4.067   0.244  14.521 -2.2683 -2.0191 -2.5440
 4494TIP3    H234974   3.969   0.191  14.623 -1.4577 -0.5515 -0.9781
 4495TIP3   OH234975   2.587   2.527  14.998 -0.0710  0.0384  0.2755
 4495TIP3    H134976   2.606   2.494  15.085  0.4611 -1.5167 -0.4232
 4495TIP3    H234977   2.672   2.554  14.963  0.0065 -1.2500 -0.5391
 4496TIP3   OH234978   6.600   2.776  11.739 -0.3089  0.3615  0.1428
 4496TIP3    H134979   6.645   2.831  11.803  1.1099  0.2523 -0.7393
 4496TIP3    H234980   6.556   2.709  11.792 -1.4767  1.8808  1.1807
 4497TIP3   OH234981   2.185   0.567  12.665 -0.5611 -0.4026 -0.2049
 4497TIP3    H134982   2.252   0.514  12.707  0.0461 -2.6063 -3.7661
 4497TIP3    H234983   2.107   0.511  12.662 -1.1798  0.4414 -0.2599
 4498TIP3   OH234984   1.752   2.603  12.590 -0.1965 -0.1517 -0.4887
 4498TIP3    H134985   1.836   2.649  12.589 -0.4469  0.3016 -1.6887
 4498TIP3    H234986   1.774   2.513  12.566  0.1222 -0.3657  0.5785
 4499TIP3   OH234987   5.594   4.900  12.019 -0.7887  0.4159 -0.0729
 4499TIP3    H134988   5.679   4.889  11.977 -2.0201 -0.2946 -2.4472
 4499TIP3    H234989   5.548   4.817  12.003 -1.0844 -0.1518  3.2432
 4500TIP3   OH234990   5.704   2.206  14.202 -0.0497  0.1267  0.4961
 4500TIP3    H134991   5.780   2.254  14.235 -0.2906  0.0840  1.1271
 4500TIP3    H234992   5.695   2.131  14.261  0.4258 -0.7967 -0.5866
 4501TIP3   OH234993   1.294   0.141  14.521  0.3741 -0.4752 -0.3619
 4501TIP3    H134994   1.357   0.191  14.469 -0.4118  0.1062 -0.7768
 4501TIP3    H234995   1.249   0.086  14.457 -0.3813  0.0170 -0.2640
 4502TIP3   OH234996   3.931   2.016  16.702  0.3017 -0.1826 -0.0600
 4502TIP3    H134997   3.850   2.068  16.695  0.6236  0.4474  0.7235
 4502TIP3    H234998   3.920   1.945  16.639 -0.8395 -0.0682  0.0010
 4503TIP3   OH234999   0.302   0.980   2.742 -0.6463 -0.2072 -0.4210
 4503TIP3    H135000   0.325   0.986   2.649 -2.4104  1.0278 -0.7982
 4503TIP3    H235001   0.359   1.044   2.785 -0.9476  0.3473 -0.8576
 4504TIP3   OH235002   1.376   4.528   0.035  0.0004  0.6756  0.1703
 4504TIP3    H135003   1.420   4.609   0.010 -0.1270  0.5660 -0.4270
 4504TIP3    H235004   1.442   4.460   0.024 -0.3563  0.4915 -0.8722
 4505TIP3   OH235005   0.781   2.733  13.494  0.6416  0.3078  0.4749
 4505TIP3    H135006   0.799   2.718  13.402 -0.2244 -0.2524  0.3958
 4505TIP3    H235007   0.761   2.827  13.500  1.3048  0.4724  0.2072
 4506TIP3   OH235008   5.869   1.196  16.398 -0.0190 -0.4701 -0.6166
 4506TIP3    H135009   5.881   1.139  16.474 -0.7764  2.9991  2.2505
 4506TIP3    H235010   5.958   1.221  16.373  0.2110 -1.0988 -0.4370
 4507TIP3   OH235011   2.667   1.158   0.874  0.1884  0.5091 -0.1353
 4507TIP3    H135012   2.755   1.125   0.852 -0.0262 -0.6274  0.6953
 4507TIP3    H235013   2.683   1.245   0.908  1.2291 -0.5461  2.1719
 4508TIP3   OH235014   5.182   5.249  14.521  0.0452 -0.0580 -0.5035
 4508TIP3    H135015   5.170   5.154  14.512  0.2995 -0.1503  0.1099
 4508TIP3    H235016   5.137   5.286  14.445  0.3985 -0.6989 -1.0374
 4509TIP3   OH235017   5.065   0.325   0.584  0.5094 -0.1438 -0.2170
 4509TIP3    H135018   5.119   0.379   0.528 -0.3262  1.5008  0.5369
 4509TIP3    H235019   5.125   0.292   0.651  1.5430 -2.2348 -2.0705
 4510TIP3   OH235020   0.659   1.631   1.196 -0.0659 -0.1654 -0.1668
 4510TIP3    H135021   0.717   1.687   1.144  1.9130 -1.8859  0.0879
 4510TIP3    H235022   0.681   1.652   1.287  1.8383 -2.4075 -0.0558
 4511TIP3   OH235023   1.114   3.869  14.286  0.4323 -0.2389 -0.0743
 4511TIP3    H135024   1.078   3.861  14.198  1.2068  1.5063 -0.5718
 4511TIP3    H235025   1.209   3.877  14.273  0.5068  0.5500  0.8619
 4512TIP3   OH235026   1.044   2.610   5.818 -0.0408 -0.0102  0.1068
 4512TIP3    H135027   0.974   2.612   5.752 -0.1691 -0.0650  0.2399
 4512TIP3    H235028   1.125   2.611   5.767 -0.1315 -1.2972 -0.0872
 4513TIP3   OH235029   1.994   5.699  10.403  0.0251  0.0063  0.2041
 4513TIP3    H135030   1.952   5.719  10.487 -2.8736  0.2373 -1.2353
 4513TIP3    H235031   1.983   5.779  10.351 -0.3135 -0.9556 -1.2186
 4514TIP3   OH235032   1.272   1.910  13.231  0.2071 -0.0763 -0.3377
 4514TIP3    H135033   1.316   1.984  13.188  0.3161 -0.1304 -0.3184
 4514TIP3    H235034   1.247   1.853  13.158 -0.2431  0.1776 -0.3851
 4515TIP3   OH235035   3.135   5.975  16.203 -0.3490  0.3252 -0.2720
 4515TIP3    H135036   3.066   5.955  16.140  0.3687 -0.5043 -0.8155
 4515TIP3    H235037   3.181   5.891  16.216 -0.0360  0.6527  0.7972
 4516TIP3   OH235038   5.299   6.375  11.044  0.5953  0.2525  0.0431
 4516TIP3    H135039   5.233   6.435  11.010  1.7809  1.7037  0.2792
 4516TIP3    H235040   5.363   6.367  10.973  1.0198  0.1686  0.4296
 4517TIP3   OH235041   0.277   6.264  13.853 -0.0136  0.0136  0.7668
 4517TIP3    H135042   0.183   6.281  13.862 -0.0958 -1.5951  3.3294
 4517TIP3    H235043   0.283   6.180  13.809  0.2255  0.0020  0.8186
 4518TIP3   OH235044   1.104   3.818   2.410 -0.2501 -0.0274 -0.3855
 4518TIP3    H135045   1.036   3.862   2.359 -0.7614 -1.6609 -1.1273
 4518TIP3    H235046   1.078   3.726   2.410  2.1526 -0.7276 -0.9609
 4519TIP3   OH235047   5.437   1.443  12.919  0.0219 -0.0520  0.0187
 4519TIP3    H135048   5.494   1.463  12.993 -1.0238 -0.6239  0.9818
 4519TIP3    H235049   5.359   1.406  12.958 -1.3475  1.4359 -1.2389
 4520TIP3   OH235050   3.824   0.619   4.279 -0.2170 -0.2466  0.0566
 4520TIP3    H135051   3.880   0.627   4.202  1.1273 -0.1103  1.0297
 4520TIP3    H235052   3.885   0.620   4.353 -1.4980 -0.2471  1.1265
 4521TIP3   OH235053   4.325   4.006   0.415 -0.3855 -0.2460 -0.2824
 4521TIP3    H135054   4.326   3.970   0.504  2.2935 -2.0724 -0.9655
 4521TIP3    H235055   4.414   3.991   0.382 -1.7589 -1.1691 -3.8630
 4522TIP3   OH235056   2.331   6.479  17.095  0.1150 -0.1839 -0.2694
 4522TIP3    H135057   2.361   6.535  17.023 -0.8863  1.6941  0.7252
 4522TIP3    H235058   2.244   6.451  17.068  0.4041 -0.8399 -0.5284
 4523TIP3   OH235059   3.057   5.809   0.173  0.2525  0.2758 -0.3179
 4523TIP3    H135060   3.038   5.722   0.136 -0.4358  0.1702  0.2759
 4523TIP3    H235061   3.152   5.818   0.165  0.3590 -0.6304 -0.1774
 4524TIP3   OH235062   4.381   5.857  17.151 -0.1485 -0.1609  0.2560
 4524TIP3    H135063   4.451   5.792  17.140  0.1000  0.3098 -1.1300
 4524TIP3    H235064   4.426   5.935  17.182 -0.3732 -0.4762  1.4051
 4525TIP3   OH235065   4.489   0.347  11.211  0.3078  0.3982  0.3267
 4525TIP3    H135066   4.523   0.264  11.178  0.2323  0.7294 -0.5787
 4525TIP3    H235067   4.548   0.414  11.176  0.3801  0.7290  1.0660
 4526TIP3   OH235068   1.752   0.426  11.095  0.5332 -0.2694  0.1575
 4526TIP3    H135069   1.818   0.434  11.163  1.9260 -2.6838 -0.8767
 4526TIP3    H235070   1.799   0.397  11.017 -1.2197  1.2512 -1.5521
 4527TIP3   OH235071   1.286   1.843  12.961 -0.1812  0.3582  0.1812
 4527TIP3    H135072   1.281   1.911  12.893 -0.1223  0.2527  0.0719
 4527TIP3    H235073   1.219   1.779  12.935  0.5810 -0.2251 -0.3703
 4528TIP3   OH235074   0.289   1.628   0.868  0.3701 -0.1936  0.2038
 4528TIP3    H135075   0.378   1.598   0.848  0.3959 -2.3170  3.0884
 4528TIP3    H235076   0.287   1.635   0.963 -2.2906  0.7219  0.1186
 4529TIP3   OH235077   4.419   2.242  16.243 -0.0829  0.0808  0.0199
 4529TIP3    H135078   4.450   2.331  16.227  0.5904  0.3117  2.4627
 4529TIP3    H235079   4.326   2.245  16.221  0.1055  1.1681 -0.6796
 4530TIP3   OH235080   4.332   3.903  16.468  0.7200 -0.4637  0.1744
 4530TIP3    H135081   4.271   3.875  16.536  0.7241 -1.8276 -0.3667
 4530TIP3    H235082   4.311   3.847  16.393 -0.9851  2.6515 -1.8132
 4531TIP3   OH235083   5.199   5.060   5.728  0.0784  0.2227  0.2330
 4531TIP3    H135084   5.168   5.128   5.668 -0.1560 -1.1790 -1.3062
 4531TIP3    H235085   5.121   5.008   5.747  0.5845 -0.6131  0.0335
 4532TIP3   OH235086   0.270   0.691  10.713 -0.3870 -0.1106 -0.1036
 4532TIP3    H135087   0.338   0.757  10.701 -0.5565  0.3186  1.2551
 4532TIP3    H235088   0.252   0.692  10.806 -0.7874 -1.6940 -0.1490
 4533TIP3   OH235089   1.140   0.098  16.894  0.0208  0.0379 -0.1239
 4533TIP3    H135090   1.111   0.045  16.968 -4.7116  0.1134 -1.7533
 4533TIP3    H235091   1.124   0.189  16.922 -0.4843  0.1319 -0.7103
 4534TIP3   OH235092   2.050   3.167  13.407 -0.4525  0.5932 -0.6844
 4534TIP3    H135093   2.125   3.186  13.465 -2.3563  0.9500  1.7509
 4534TIP3    H235094   2.052   3.071  13.398 -1.4513  0.2958  1.8757
 4535TIP3   OH235095   3.327   5.801  12.227 -0.5808 -0.5040 -0.8299
 4535TIP3    H135096   3.311   5.834  12.138  0.7457 -1.1645 -1.3268
 4535TIP3    H235097   3.372   5.873  12.272 -1.2711 -0.1615 -0.6896
 4536TIP3   OH235098   5.342   2.957   5.599  0.4837  0.0152  0.1481
 4536TIP3    H135099   5.359   2.879   5.548  1.7013  0.2549  0.1786
 4536TIP3    H235100   5.246   2.961   5.605  0.4184 -1.8124  0.6937
 4537TIP3   OH235101   0.073   4.015  14.445  0.0420  0.0258 -0.2780
 4537TIP3    H135102   0.123   4.066  14.508  1.3039 -1.1552 -0.2988
 4537TIP3    H235103   0.083   4.062  14.362 -1.3720  1.4143  0.3030
 4538TIP3   OH235104   4.388   1.386  14.366 -0.0029 -0.3099 -0.6113
 4538TIP3    H135105   4.322   1.395  14.434  0.4512  0.9922 -0.3189
 4538TIP3    H235106   4.339   1.383  14.284 -0.4903 -0.7196 -0.3051
 4539TIP3   OH235107   4.944   4.591   2.512  0.6004 -0.7010 -0.3114
 4539TIP3    H135108   4.898   4.620   2.434 -0.3628  0.2171  0.5827
 4539TIP3    H235109   5.013   4.533   2.479 -1.2189 -2.1378 -1.6401
 4540TIP3   OH235110   1.792   4.156  11.629  0.4493 -0.1752  0.1909
 4540TIP3    H135111   1.812   4.208  11.707  1.2011  0.6499 -0.5474
 4540TIP3    H235112   1.853   4.083  11.634  0.4159 -0.1899  0.4329
 4541TIP3   OH235113   5.376   5.282  16.070 -0.2097  0.0128 -0.5223
 4541TIP3    H135114   5.445   5.223  16.101 -0.8434 -0.2826  0.3424
 4541TIP3    H235115   5.296   5.230  16.076 -0.6910  0.7820 -0.2711
 4542TIP3   OH235116   2.838   5.073  11.755  0.0375  0.0532 -0.0337
 4542TIP3    H135117   2.748   5.099  11.736  0.5165  0.8317 -1.2934
 4542TIP3    H235118   2.836   5.041  11.846 -1.1592  1.6327  0.5021
 4543TIP3   OH235119   2.906   2.994  13.621  0.4654  0.9615 -0.2119
 4543TIP3    H135120   2.899   2.909  13.665  1.5871  0.7686 -0.3906
 4543TIP3    H235121   2.837   2.992  13.554  1.1752 -0.2541 -0.9348
 4544TIP3   OH235122   5.291   2.958  14.466  0.6973 -0.2634  0.3838
 4544TIP3    H135123   5.350   3.031  14.488  1.8771 -0.5587 -1.6355
 4544TIP3    H235124   5.299   2.898  14.540  0.6486  1.0916  1.5078
 4545TIP3   OH235125   1.580   2.220   5.949  0.1719  0.0303 -0.4508
 4545TIP3    H135126   1.551   2.298   5.998  0.7346 -0.4874  0.7423
 4545TIP3    H235127   1.506   2.198   5.893 -1.2945 -0.5666  1.6534
 4546TIP3   OH235128   4.363   4.203   6.111  0.2381  0.4435 -0.2354
 4546TIP3    H135129   4.395   4.157   6.189  1.4986  2.3313  0.3931
 4546TIP3    H235130   4.284   4.248   6.141 -0.9629 -1.1943 -0.8362
 4547TIP3   OH235131   0.135   0.200  12.456  0.3539 -0.4440 -0.1777
 4547TIP3    H135132   0.091   0.116  12.467  2.3224 -1.2766  1.8305
 4547TIP3    H235133   0.176   0.194  12.370 -0.2035 -1.2189 -0.3912
 4548TIP3   OH235134   6.782   2.220   0.921 -0.0867  0.3799 -0.0531
 4548TIP3    H135135   6.728   2.244   0.997 -0.0329  2.4220 -0.6301
 4548TIP3    H235136   6.855   2.171   0.958 -0.7787  0.1728  1.0656
 4549TIP3   OH235137   5.459   6.208   0.191  0.5439  0.0416 -0.1733
 4549TIP3    H135138   5.513   6.235   0.116  1.8816 -0.3854  0.6320
 4549TIP3    H235139   5.506   6.134   0.230 -1.3129 -1.2614 -0.2728
 4550TIP3   OH235140   3.395   5.391  13.880 -0.6679 -0.2891 -0.1172
 4550TIP3    H135141   3.396   5.481  13.912  1.4614  0.3638 -1.9011
 4550TIP3    H235142   3.332   5.391  13.808 -1.1246 -0.3746  0.2819
 4551TIP3   OH235143   3.806   2.065   4.931  0.5271 -0.4422 -0.3782
 4551TIP3    H135144   3.793   1.971   4.921  2.1017 -0.7667  0.4347
 4551TIP3    H235145   3.897   2.079   4.904  0.1736  0.9151 -0.9022
 4552TIP3   OH235146   5.555   2.556   2.122  0.0968  0.5006 -0.3729
 4552TIP3    H135147   5.647   2.550   2.099  0.0687  1.3103 -0.7322
 4552TIP3    H235148   5.554   2.572   2.217  0.2857 -0.6317 -0.1782
 4553TIP3   OH235149   2.821   5.006  14.553 -0.2651 -0.1773  0.5671
 4553TIP3    H135150   2.908   4.969  14.566 -0.6908 -1.0730  0.9219
 4553TIP3    H235151   2.790   4.965  14.472 -0.3850  0.0973  0.4722
 4554TIP3   OH235152   4.218   2.803  14.472 -0.6935 -0.7954  0.1944
 4554TIP3    H135153   4.124   2.788  14.479 -0.6206 -0.4671  2.2287
 4554TIP3    H235154   4.256   2.716  14.486 -0.6932 -0.9888 -0.9620
 4555TIP3   OH235155   3.064   5.691  11.591  0.4244  0.1064 -0.3050
 4555TIP3    H135156   3.095   5.673  11.680 -0.1510 -0.4763 -0.2110
 4555TIP3    H235157   3.130   5.652  11.534 -0.1462 -1.2084 -0.1057
 4556TIP3   OH235158   1.909   2.243   3.226  0.0783  0.0826 -0.0154
 4556TIP3    H135159   1.815   2.258   3.236 -0.0294  0.8639 -1.9050
 4556TIP3    H235160   1.923   2.238   3.131  2.0794  0.9386  0.1917
 4557TIP3   OH235161   3.999   0.408  16.834 -0.1604  0.0603 -0.0922
 4557TIP3    H135162   4.046   0.325  16.825  1.4584  1.0487 -1.0249
 4557TIP3    H235163   4.067   0.475  16.833 -1.3568  1.3697  1.6787
 4558TIP3   OH235164   3.751   3.032   3.799 -0.5740  0.4830  0.4176
 4558TIP3    H135165   3.814   3.052   3.868 -0.8621 -0.4839  0.9671
 4558TIP3    H235166   3.680   3.095   3.814 -1.2554 -0.5971  1.8437
 4559TIP3   OH235167   3.959   3.033  16.160 -0.2295 -0.6585 -0.7037
 4559TIP3    H135168   3.996   3.116  16.192  0.2513  0.0832 -3.0607
 4559TIP3    H235169   3.989   2.968  16.223 -1.9948  1.1732  2.1291
 4560TIP3   OH235170   3.787   1.518  13.122  0.1086 -0.2219  0.0663
 4560TIP3    H135171   3.752   1.527  13.033 -0.0414 -0.7966  0.0665
 4560TIP3    H235172   3.812   1.426  13.129  0.1719 -0.1664  0.6030
 4561TIP3   OH235173   0.378   1.467   5.934 -0.4548  0.2315  0.0522
 4561TIP3    H135174   0.372   1.477   5.839  1.8226  1.3459 -0.0310
 4561TIP3    H235175   0.326   1.540   5.969  0.6357  1.2505 -0.3920
 4562TIP3   OH235176   3.188   1.777   4.973  0.0969 -0.0908  0.0301
 4562TIP3    H135177   3.145   1.784   4.888  1.5409 -0.3782 -0.7538
 4562TIP3    H235178   3.167   1.859   5.018 -2.3727 -0.8078  0.2295
 4563TIP3   OH235179   0.885   2.846  12.907 -0.4534  0.4756 -0.1193
 4563TIP3    H135180   0.811   2.870  12.851 -1.0021  0.2784  0.5153
 4563TIP3    H235181   0.911   2.759  12.877 -0.5619  0.4937 -0.2645
 4564TIP3   OH235182   5.455   2.989  12.246  0.1587 -0.2426 -0.1282
 4564TIP3    H135183   5.406   2.933  12.186  0.0495  0.9242 -1.1619
 4564TIP3    H235184   5.403   2.990  12.326 -0.6502 -0.3573 -0.6437
 4565TIP3   OH235185   1.351   2.947  15.918  0.1941 -0.1560 -0.2422
 4565TIP3    H135186   1.312   2.860  15.918 -2.2076  0.8992 -1.0565
 4565TIP3    H235187   1.445   2.931  15.926 -0.3990 -2.7174  2.3066
 4566TIP3   OH235188   6.386   3.453   1.612 -0.3027  0.1848 -0.0615
 4566TIP3    H135189   6.409   3.543   1.634 -0.3893  0.2792 -0.3512
 4566TIP3    H235190   6.396   3.449   1.517  1.0506 -0.4888  0.0936
 4567TIP3   OH235191   2.102   2.026   0.613 -0.6986  0.4615 -0.2571
 4567TIP3    H135192   2.080   2.096   0.675 -0.7132 -0.9721  1.3975
 4567TIP3    H235193   2.028   2.023   0.553 -0.6178  1.9735 -0.4574
 4568TIP3   OH235194   6.364   6.350   4.757  0.1460  0.1625  0.4151
 4568TIP3    H135195   6.343   6.432   4.713 -0.6185 -0.6115 -0.6813
 4568TIP3    H235196   6.423   6.304   4.698  1.7737  0.5494  1.6882
 4569TIP3   OH235197   6.493   0.252  14.016 -0.2906  0.2282  0.5825
 4569TIP3    H135198   6.470   0.233  14.107  0.8500  1.3938  1.1301
 4569TIP3    H235199   6.408   0.265  13.973 -0.9036 -1.6647  1.1579
 4570TIP3   OH235200   0.591   1.745   4.808 -0.6221 -0.5357  0.3665
 4570TIP3    H135201   0.548   1.659   4.808  0.8165 -1.2849 -1.6669
 4570TIP3    H235202   0.635   1.750   4.723  4.0983 -0.2293  2.6754
 4571TIP3   OH235203   4.383   0.344   0.336  0.2494 -0.1235 -0.3190
 4571TIP3    H135204   4.330   0.382   0.405  0.0308 -1.0720  0.0312
 4571TIP3    H235205   4.366   0.250   0.340 -0.9681 -0.0508 -2.6613
 4572TIP3   OH235206   2.951   3.532  16.599  0.5451 -0.1991  0.2645
 4572TIP3    H135207   3.009   3.515  16.673  0.0272  1.0927  0.9763
 4572TIP3    H235208   2.869   3.560  16.638  0.2195  0.3429 -0.7896
 4573TIP3   OH235209   6.761   0.753  14.690  0.1293 -0.3195  0.2261
 4573TIP3    H135210   6.837   0.806  14.663  0.1576 -0.6265 -0.3089
 4573TIP3    H235211   6.772   0.670  14.643 -2.4496  0.9153 -2.7174
 4574TIP3   OH235212   6.050   5.625   0.464  0.1567 -0.3531  0.3217
 4574TIP3    H135213   6.013   5.686   0.529 -1.3044 -2.6165  1.6893
 4574TIP3    H235214   6.141   5.615   0.490 -0.3100 -0.9217  1.8134
 4575TIP3   OH235215   2.432   2.571   5.024  1.2095  0.7441  0.2117
 4575TIP3    H135216   2.367   2.522   5.074  2.0139  1.3342  1.8886
 4575TIP3    H235217   2.504   2.509   5.012  1.1255  0.6862  0.0014
 4576TIP3   OH235218   1.897   2.992   1.520  0.5058 -0.2144 -0.1764
 4576TIP3    H135219   1.840   3.006   1.445 -0.3941 -0.3523  0.4741
 4576TIP3    H235220   1.976   2.951   1.483  1.4677  2.7489 -1.4879
 4577TIP3   OH235221   0.505   4.532  13.305  0.2744  0.3158  0.3070
 4577TIP3    H135222   0.411   4.535  13.286  0.0372 -0.4498  1.2986
 4577TIP3    H235223   0.544   4.494  13.226  0.1452  3.4589 -1.3407
 4578TIP3   OH235224   0.726   3.440  16.515  0.0730  0.1973 -0.5119
 4578TIP3    H135225   0.796   3.477  16.570  0.0742 -0.2719 -0.1950
 4578TIP3    H235226   0.714   3.504  16.445  0.7347  0.3418 -0.4966
 4579TIP3   OH235227   6.063   5.404   0.667  0.2632 -0.6332  0.0775
 4579TIP3    H135228   6.072   5.358   0.583 -1.0929  0.2213 -0.5602
 4579TIP3    H235229   5.988   5.462   0.654  1.1363  0.7992  1.3044
 4580TIP3   OH235230   2.630   2.760   5.595  0.1551 -1.1613 -0.1523
 4580TIP3    H135231   2.601   2.699   5.662  1.1716 -0.5652  0.8412
 4580TIP3    H235232   2.657   2.705   5.522  0.4621 -1.8829  0.4980
 4581TIP3   OH235233   4.507   0.261   4.662  0.0081  0.0192  0.1131
 4581TIP3    H135234   4.444   0.190   4.655 -0.6317  0.6862 -1.0896
 4581TIP3    H235235   4.561   0.238   4.737 -0.7940 -1.2525  0.3134
 4582TIP3   OH235236   4.318   5.923  12.096 -0.2353 -0.6739  0.3329
 4582TIP3    H135237   4.250   5.971  12.144 -0.8984 -0.3615 -0.8876
 4582TIP3    H235238   4.312   5.957  12.006  2.5369  0.4654  0.5111
 4583TIP3   OH235239   2.003   1.560  13.205 -0.0505  0.3622  0.1049
 4583TIP3    H135240   2.030   1.493  13.267  1.8903  0.3346 -0.7425
 4583TIP3    H235241   2.003   1.641  13.257  0.7087  0.2060  0.3520
 4584TIP3   OH235242   6.314   2.774   4.586 -0.6327  0.0757 -0.0912
 4584TIP3    H135243   6.223   2.744   4.589 -0.5277 -0.1681  1.5564
 4584TIP3    H235244   6.365   2.696   4.563 -0.6205 -0.4271  1.5341
 4585TIP3   OH235245   1.438   3.748  11.276  0.7489  0.7236 -0.0496
 4585TIP3    H135246   1.372   3.679  11.288  2.1244 -0.6286 -0.1311
 4585TIP3    H235247   1.388   3.829  11.280 -0.7310 -0.2165  1.3467
 4586TIP3   OH235248   4.265   5.337   5.843 -0.0117  0.2464 -0.1732
 4586TIP3    H135249   4.355   5.312   5.819 -0.3104  0.2138 -1.2912
 4586TIP3    H235250   4.270   5.432   5.855  0.4939  0.0463  1.2284
 4587TIP3   OH235251   2.498   3.768   0.208  0.0626 -0.1055  0.2465
 4587TIP3    H135252   2.513   3.675   0.193 -0.8284  0.1357 -2.4130
 4587TIP3    H235253   2.436   3.771   0.280 -1.3886 -1.6612 -0.8990
 4588TIP3   OH235254   0.671   1.675   0.367  0.1623 -0.1365 -0.2217
 4588TIP3    H135255   0.711   1.633   0.443  1.9075 -1.4659 -1.8180
 4588TIP3    H235256   0.601   1.615   0.340  0.6109 -0.4659 -0.6449
 4589TIP3   OH235257   2.758   1.652  11.357  0.5412 -0.1606 -0.2056
 4589TIP3    H135258   2.778   1.593  11.284  0.2938 -0.2079 -0.2356
 4589TIP3    H235259   2.798   1.611  11.433  0.8822 -0.0620 -0.3317
 4590TIP3   OH235260   6.554   4.382   0.907 -0.5455  0.1565 -0.3587
 4590TIP3    H135261   6.528   4.468   0.941 -0.8373  0.2255 -0.7472
 4590TIP3    H235262   6.546   4.391   0.812 -0.1599 -0.1679 -0.4255
 4591TIP3   OH235263   1.155   6.022   4.092 -0.0556  0.6040 -0.4232
 4591TIP3    H135264   1.213   5.993   4.162  0.0971  1.1353 -0.3269
 4591TIP3    H235265   1.140   5.944   4.039 -1.5856 -0.2399  1.1791
 4592TIP3   OH235266   3.715   1.804  16.433  0.0238  0.4569 -0.1024
 4592TIP3    H135267   3.671   1.722  16.410 -0.1785  0.0197  1.7018
 4592TIP3    H235268   3.715   1.804  16.529 -1.1567  3.1996 -0.0742
 4593TIP3   OH235269   0.828   6.274  11.821  0.5710 -0.2046  0.3201
 4593TIP3    H135270   0.832   6.361  11.861 -1.0320  0.6442 -1.2937
 4593TIP3    H235271   0.831   6.214  11.896 -0.4029  1.2916  1.6052
 4594TIP3   OH235272   2.789   2.894  15.318  0.4185 -0.2438 -0.4161
 4594TIP3    H135273   2.766   2.969  15.261 -0.3796  0.7967  1.2223
 4594TIP3    H235274   2.846   2.840  15.264 -0.8436  0.3789 -2.4520
 4595TIP3   OH235275   6.523   4.021  11.904  0.1634 -0.2972 -0.2541
 4595TIP3    H135276   6.478   4.026  11.988  0.3298  1.1884 -0.2351
 4595TIP3    H235277   6.574   4.103  11.899  2.0965 -1.4827 -0.6951
 4596TIP3   OH235278   1.054   5.940   3.002 -0.8335  0.3399 -0.1871
 4596TIP3    H135279   0.959   5.936   2.991 -0.6294  0.8697 -2.3255
 4596TIP3    H235280   1.086   5.979   2.921  1.2298  0.0864  0.4760
 4597TIP3   OH235281   2.535   2.742   1.336  0.5075 -0.0828  0.1654
 4597TIP3    H135282   2.610   2.761   1.392  0.7810  0.4640 -0.3841
 4597TIP3    H235283   2.573   2.708   1.256  0.2252  1.1895 -0.5252
 4598TIP3   OH235284   1.854   0.779   5.929 -0.5880  0.0882 -0.0501
 4598TIP3    H135285   1.827   0.738   6.011  0.2277 -0.1949  0.0764
 4598TIP3    H235286   1.909   0.713   5.886 -0.5534  0.4500 -0.5708
 4599TIP3   OH235287   5.354   5.538  15.787  0.3962  0.0740  0.1465
 4599TIP3    H135288   5.294   5.474  15.750 -0.9087  0.4361  1.5939
 4599TIP3    H235289   5.356   5.609  15.722 -1.1210  0.2709  0.2994
 4600TIP3   OH235290   2.217   0.439  14.308  0.3791 -0.2096  0.0685
 4600TIP3    H135291   2.283   0.503  14.336  0.2672  0.5240 -1.3258
 4600TIP3    H235292   2.148   0.446  14.373 -0.3099  2.1626 -0.8939
 4601TIP3   OH235293   0.852   5.828  15.804  0.1060  0.1966  0.0281
 4601TIP3    H135294   0.889   5.879  15.876 -1.2290 -0.4531  1.1957
 4601TIP3    H235295   0.904   5.853  15.728  0.4400  2.1746  0.8795
 4602TIP3   OH235296   0.519   2.366   4.992  0.3345 -0.1143  0.3384
 4602TIP3    H135297   0.614   2.371   4.985  0.3120 -1.2930 -0.9171
 4602TIP3    H235298   0.504   2.317   5.073  0.8289 -1.2342 -0.2366
 4603TIP3   OH235299   4.022   4.415   2.043 -0.5895 -0.1714  0.1450
 4603TIP3    H135300   3.941   4.455   2.011 -0.0269  0.8970  0.0102
 4603TIP3    H235301   4.072   4.489   2.077  0.8716 -0.6238 -0.9667
 4604TIP3   OH235302   1.006   6.481  14.421  0.1564 -0.1858 -0.3417
 4604TIP3    H135303   0.945   6.420  14.462 -0.6164  0.3827 -0.6367
 4604TIP3    H235304   0.958   6.564  14.416  1.3209  0.5536  0.3988
 4605TIP3   OH235305   4.882   2.238   0.364  0.2404 -0.1901 -0.5026
 4605TIP3    H135306   4.957   2.297   0.367  0.2121  0.0078 -2.7101
 4605TIP3    H235307   4.820   2.280   0.305 -0.8499 -1.2262 -0.1295
 4606TIP3   OH235308   2.356   4.694   3.737 -0.1159  0.1282  0.1416
 4606TIP3    H135309   2.288   4.642   3.780  1.4738 -0.2424  2.3127
 4606TIP3    H235310   2.311   4.773   3.708 -1.7108 -0.6386  0.4819
 4607TIP3   OH235311   4.849   2.108   1.695 -0.3187  0.2573  0.5625
 4607TIP3    H135312   4.918   2.042   1.686 -0.8349 -0.0127 -1.6405
 4607TIP3    H235313   4.896   2.188   1.720  0.7410 -0.0863 -0.2513
 4608TIP3   OH235314   5.207   1.453  17.050  0.2510  0.1096  0.8468
 4608TIP3    H135315   5.251   1.473  16.968  0.7020  0.4611  1.1703
 4608TIP3    H235316   5.159   1.533  17.072 -2.4613 -1.0406 -0.6877
 4609TIP3   OH235317   5.771   4.994  15.547 -0.2056  0.2022 -1.3070
 4609TIP3    H135318   5.833   4.955  15.608 -1.0726  0.2863 -0.3645
 4609TIP3    H235319   5.716   4.922  15.518 -2.9819  0.9579  1.8264
 4610TIP3   OH235320   4.754   4.572  11.735  0.0665 -0.1726 -0.2736
 4610TIP3    H135321   4.779   4.558  11.826  0.4950 -0.5491 -0.4444
 4610TIP3    H235322   4.659   4.561  11.734  0.2595 -1.9757 -0.1905
 4611TIP3   OH235323   4.514   2.457   2.616  0.2254 -0.4896 -0.8011
 4611TIP3    H135324   4.468   2.423   2.693 -0.8408 -0.6209 -1.4810
 4611TIP3    H235325   4.453   2.443   2.544  0.9236  0.2871 -1.5559
 4612TIP3   OH235326   2.836   3.739  11.372  0.6417  0.0510 -0.3185
 4612TIP3    H135327   2.774   3.710  11.305 -0.0382 -0.3915  0.4924
 4612TIP3    H235328   2.863   3.658  11.416  1.1646  0.3282 -0.1285
 4613TIP3   OH235329   2.181   0.173  13.747 -0.0089 -0.6952  0.0664
 4613TIP3    H135330   2.274   0.150  13.751  0.7944  2.4415  1.1840
 4613TIP3    H235331   2.165   0.193  13.655  1.1832  1.4390  0.2797
 4614TIP3   OH235332   2.723   5.653  16.911  0.9823 -0.1940  0.0400
 4614TIP3    H135333   2.793   5.592  16.889 -1.0113 -2.8881  0.8907
 4614TIP3    H235334   2.679   5.613  16.986 -1.2908  1.5498 -0.3118
 4615TIP3   OH235335   1.960   3.316  12.683  0.5363  1.2331 -0.4113
 4615TIP3    H135336   1.965   3.236  12.632 -0.9154  0.9284 -0.0866
 4615TIP3    H235337   1.946   3.385  12.618 -2.2309  0.7364 -0.3722
 4616TIP3   OH235338   5.625   1.622   2.372 -0.6854 -0.1038 -0.1889
 4616TIP3    H135339   5.719   1.612   2.359 -0.6986  0.1665 -0.5159
 4616TIP3    H235340   5.585   1.582   2.294 -0.6809  3.7151 -2.2956
 4617TIP3   OH235341   2.041   1.740  16.959 -0.2878 -0.2438 -0.1540
 4617TIP3    H135342   2.103   1.784  17.017 -2.7993  2.3191  0.7157
 4617TIP3    H235343   1.968   1.715  17.016 -0.6113 -2.1393 -1.3421
 4618TIP3   OH235344   0.910   0.239   5.582  0.2266 -0.2457  0.1970
 4618TIP3    H135345   0.956   0.177   5.638  1.7131  0.9943  0.3786
 4618TIP3    H235346   0.976   0.266   5.517  0.0251  2.1797  0.9601
 4619TIP3   OH235347   4.276   1.628  16.431 -0.0571  0.4021  0.7307
 4619TIP3    H135348   4.339   1.695  16.457 -0.2965  0.4083  1.3120
 4619TIP3    H235349   4.318   1.545  16.457  0.6079  0.2556 -0.7427
 4620TIP3   OH235350   0.972   2.218  17.020 -0.2320  0.4190 -0.2929
 4620TIP3    H135351   0.897   2.176  17.063 -0.7457  1.0793 -0.5436
 4620TIP3    H235352   1.001   2.284  17.082  0.3533 -0.0623 -0.0510
 4621TIP3   OH235353   5.072   4.174  12.770  0.1643  0.7887 -0.1491
 4621TIP3    H135354   5.031   4.239  12.827 -1.6983  0.1691 -0.7698
 4621TIP3    H235355   5.094   4.224  12.691 -1.8453  0.5645 -0.8822
 4622TIP3   OH235356   6.260   4.877  11.007  0.3180  0.2590  0.0154
 4622TIP3    H135357   6.225   4.915  10.926  1.4970 -0.4852 -0.8450
 4622TIP3    H235358   6.230   4.786  11.006 -1.0391  0.6737  1.2282
 4623TIP3   OH235359   0.294   0.549  10.472 -0.2863  0.1238  0.1625
 4623TIP3    H135360   0.382   0.572  10.441 -0.6656  0.4390 -0.6788
 4623TIP3    H235361   0.289   0.587  10.560 -0.4792  2.2827 -0.7612
 4624TIP3   OH235362   2.710   4.770   4.758 -0.6580  0.4397 -0.0718
 4624TIP3    H135363   2.697   4.711   4.832  3.0615 -1.0788 -0.5176
 4624TIP3    H235364   2.646   4.839   4.771 -3.1788 -2.1566  2.0558
 4625TIP3   OH235365   0.150   0.065   1.454  0.3630  0.1738 -0.6455
 4625TIP3    H135366   0.170  -0.026   1.476  0.6305  0.2537 -0.5631
 4625TIP3    H235367   0.117   0.103   1.536 -0.5045 -0.0682 -0.8838
 4626TIP3   OH235368   3.558   1.893  11.454  0.2251 -0.3930 -0.3059
 4626TIP3    H135369   3.496   1.835  11.498 -0.4610 -0.3432 -1.1914
 4626TIP3    H235370   3.529   1.894  11.363  2.3429 -1.4912 -1.0377
 4627TIP3   OH235371   6.107   0.740  12.607  0.9058 -0.6053  0.3328
 4627TIP3    H135372   6.044   0.812  12.602  0.4603 -0.8655  1.9585
 4627TIP3    H235373   6.181   0.777  12.656  0.3089 -1.4845  1.9498
 4628TIP3   OH235374   2.997   3.471   2.679 -0.7367  0.5749  0.4105
 4628TIP3    H135375   2.977   3.389   2.635  0.7627 -0.5869  1.8456
 4628TIP3    H235376   3.091   3.468   2.696 -0.9575  1.7935  2.0488
 4629TIP3   OH235377   1.929   6.747   0.248  0.0834  0.0610  0.2955
 4629TIP3    H135378   1.848   6.741   0.298 -0.2069 -3.2158 -0.4255
 4629TIP3    H235379   1.996   6.710   0.306  0.1916 -1.4488 -0.7471
 4630TIP3   OH235380   1.467   6.497  17.227  0.2402  0.3413  0.2480
 4630TIP3    H135381   1.420   6.524  17.306  0.5828 -1.5564  1.1244
 4630TIP3    H235382   1.414   6.531  17.155 -1.4121 -0.0329  1.2476
 4631TIP3   OH235383   1.041   5.704   0.361 -0.1960 -0.7328  0.2704
 4631TIP3    H135384   0.970   5.644   0.384 -1.0388  0.1254 -0.0093
 4631TIP3    H235385   1.021   5.731   0.271 -0.8943  1.3750  1.0052
 4632TIP3   OH235386   6.634   5.860  12.122  0.4576  0.0993  0.6596
 4632TIP3    H135387   6.715   5.856  12.072  0.0339 -1.9344  0.0972
 4632TIP3    H235388   6.580   5.925  12.076  0.7888 -0.3998 -0.4432
 4633TIP3   OH235389   5.969   2.406  10.951  0.8570  0.3734 -0.4772
 4633TIP3    H135390   5.912   2.330  10.964 -2.5953  2.6612 -1.5172
 4633TIP3    H235391   5.998   2.429  11.039  0.0788 -0.7609  0.0864
 4634TIP3   OH235392   5.932   6.759  11.123  0.4983 -0.5126  0.2999
 4634TIP3    H135393   5.900   6.681  11.079  2.2977 -1.1717  0.1408
 4634TIP3    H235394   6.018   6.735  11.156  0.2126  0.7552  2.0583
 4635TIP3   OH235395   3.367   2.800  15.556 -0.1987  0.1634 -0.1065
 4635TIP3    H135396   3.387   2.882  15.510 -0.4215  1.7090  2.4895
 4635TIP3    H235397   3.452   2.769  15.587 -0.1180 -0.6160 -1.0705
 4636TIP3   OH235398   1.973   1.016  11.930  0.0881 -0.3107  0.0933
 4636TIP3    H135399   1.946   1.012  12.022 -0.6815  4.1169  0.1696
 4636TIP3    H235400   2.065   1.043  11.933 -0.4322  1.5717 -0.4285
 4637TIP3   OH235401   2.277   4.929  16.981 -0.1402  0.0434 -0.1445
 4637TIP3    H135402   2.262   4.960  16.891 -1.5133  1.0854  0.4232
 4637TIP3    H235403   2.200   4.876  17.000  0.2848 -0.4020  0.3300
 4638TIP3   OH235404   5.624   3.840   0.164  0.0546  0.3366  0.4921
 4638TIP3    H135405   5.540   3.875   0.194  0.0436 -0.0343  0.8996
 4638TIP3    H235406   5.674   3.826   0.244  0.2147 -0.1849  0.3003
 4639TIP3   OH235407   0.541   0.165  13.144 -0.3382 -0.4985  0.2103
 4639TIP3    H135408   0.526   0.109  13.068 -0.2860  0.2746 -0.3732
 4639TIP3    H235409   0.582   0.107  13.209  1.1646 -0.7681 -0.9474
 4640TIP3   OH235410   4.428   2.648   2.142  0.2915  0.4023  1.3284
 4640TIP3    H135411   4.454   2.556   2.142 -0.0319  0.3076  0.4177
 4640TIP3    H235412   4.352   2.652   2.201 -0.8702 -0.2591 -0.0938
 4641TIP3   OH235413   4.210   2.535  16.183  0.0631 -0.1882  0.0444
 4641TIP3    H135414   4.236   2.502  16.097  0.3232 -1.7630  0.7110
 4641TIP3    H235415   4.293   2.550  16.229 -0.0555  1.3448 -0.2223
 4642TIP3   OH235416   2.156   5.832  16.626  0.1672  0.2127  0.0637
 4642TIP3    H135417   2.080   5.775  16.629 -0.5974  1.2287  0.3778
 4642TIP3    H235418   2.198   5.813  16.542 -0.3717 -0.4284 -0.0565
 4643TIP3   OH235419   6.544   1.645  12.037 -0.0799 -0.3639 -0.7517
 4643TIP3    H135420   6.598   1.687  11.971 -0.9990  1.2232 -0.5285
 4643TIP3    H235421   6.572   1.684  12.120 -0.3619 -0.8053 -0.4436
 4644TIP3   OH235422   2.322   0.397  13.537 -0.0664  0.4402  0.1728
 4644TIP3    H135423   2.412   0.389  13.505 -0.1784  0.6395 -0.2007
 4644TIP3    H235424   2.327   0.456  13.611 -0.1100  1.6728 -0.7978
 4645TIP3   OH235425   6.204   5.956  12.252 -0.2516 -0.3767  0.3317
 4645TIP3    H135426   6.133   5.911  12.207 -0.5677 -0.5728  1.0357
 4645TIP3    H235427   6.240   6.015  12.186 -0.6647 -0.7267 -0.2087
 4646TIP3   OH235428   5.927   5.412   4.510  0.3404 -0.5480 -0.1247
 4646TIP3    H135429   5.933   5.325   4.469  3.3316  0.1902 -1.3532
 4646TIP3    H235430   6.008   5.420   4.559  1.4481  2.7037 -2.3610
 4647TIP3   OH235431   3.504   5.578  12.232  0.0161 -0.2078 -0.3042
 4647TIP3    H135432   3.455   5.501  12.260  0.3059 -0.4674 -0.5032
 4647TIP3    H235433   3.439   5.648  12.228 -0.8668 -1.1417 -3.1373
 4648TIP3   OH235434   1.606   0.393  11.816 -0.2523  0.2711  0.1459
 4648TIP3    H135435   1.601   0.298  11.809 -0.4488  0.1209  2.1840
 4648TIP3    H235436   1.641   0.421  11.731 -0.3449 -1.5912 -0.5267
 4649TIP3   OH235437   0.334   1.927  13.883 -0.1755  0.0921  0.0750
 4649TIP3    H135438   0.295   1.842  13.865  0.2897  0.0540 -0.7896
 4649TIP3    H235439   0.269   1.990  13.851 -0.2840  0.0493  0.2142
 4650TIP3   OH235440   2.091   6.810  16.457  0.1030  0.4960 -0.2251
 4650TIP3    H135441   2.149   6.884  16.446  1.6516 -0.8774 -1.5580
 4650TIP3    H235442   2.066   6.785  16.368  0.9402 -1.5749  0.0765
 4651TIP3   OH235443   6.403   3.270  15.385 -0.0067 -0.1457 -0.7719
 4651TIP3    H135444   6.308   3.257  15.380  0.0885 -0.4748 -1.8531
 4651TIP3    H235445   6.417   3.359  15.353 -0.1414  0.7162  1.4595
 4652TIP3   OH235446   4.799   4.731   2.313  0.2687 -0.6255 -0.6443
 4652TIP3    H135447   4.708   4.727   2.340  0.6657 -0.9850  0.6710
 4652TIP3    H235448   4.803   4.681   2.231 -0.5560 -1.2536 -0.2987
 4653TIP3   OH235449   0.937   2.494   3.360 -0.2091  0.6945 -0.1948
 4653TIP3    H135450   0.951   2.421   3.421 -2.6167 -1.2813 -1.9037
 4653TIP3    H235451   0.952   2.456   3.274 -1.5240  2.2233 -1.1193
 4654TIP3   OH235452   0.306   3.978  16.669 -0.4261  0.3885  0.7611
 4654TIP3    H135453   0.309   3.887  16.641 -1.3572 -0.1051  2.2190
 4654TIP3    H235454   0.220   4.009  16.640 -0.0533  0.8530  0.1395
 4655TIP3   OH235455   5.850   5.754   2.709  0.0724 -0.2349  0.8463
 4655TIP3    H135456   5.797   5.684   2.749  0.0653 -1.2636 -0.8832
 4655TIP3    H235457   5.924   5.708   2.670  0.7773  0.8909  0.8614
 4656TIP3   OH235458   3.014   5.659   4.761 -0.2228  0.0573  0.0047
 4656TIP3    H135459   3.073   5.586   4.741 -1.2492 -1.2272  1.5340
 4656TIP3    H235460   3.041   5.729   4.701  3.4693 -0.1712  1.2759
 4657TIP3   OH235461   3.076   0.500   4.526 -0.0587  0.5539 -0.5387
 4657TIP3    H135462   3.136   0.426   4.518 -1.3647 -0.7370  1.1739
 4657TIP3    H235463   3.119   0.560   4.587 -0.6285 -0.5022  0.9119
 4658TIP3   OH235464   0.164   2.558  15.034  0.3553  0.2918  1.0266
 4658TIP3    H135465   0.211   2.641  15.042  1.3180 -0.0474 -0.6572
 4658TIP3    H235466   0.126   2.561  14.946  1.8058 -1.7239  0.2722
 4659TIP3   OH235467   6.468   3.710   5.928  0.3236  0.0437 -0.5260
 4659TIP3    H135468   6.502   3.798   5.948  1.3060 -0.7049  1.1944
 4659TIP3    H235469   6.528   3.676   5.862  0.1139  0.5554 -0.9837
 4660TIP3   OH235470   4.414   2.808   5.397  0.3793  0.6378 -0.1298
 4660TIP3    H135471   4.378   2.848   5.476  0.3999  0.7426 -0.1738
 4660TIP3    H235472   4.341   2.759   5.360  0.6942 -0.3981  0.5994
 4661TIP3   OH235473   5.731   5.730  14.019  0.9741 -0.0189  0.2220
 4661TIP3    H135474   5.800   5.663  14.016 -0.3518 -1.3867 -0.1168
 4661TIP3    H235475   5.686   5.722  13.935  0.7810  1.2920  0.1929
 4662TIP3   OH235476   3.255   0.088  14.183  0.2458 -0.1671 -0.3773
 4662TIP3    H135477   3.309   0.053  14.254  0.6220 -0.6624 -0.8994
 4662TIP3    H235478   3.238   0.178  14.208 -1.8108 -1.0481  1.6463
 4663TIP3   OH235479   3.199   6.002  16.650  0.1302  0.0868  0.4047
 4663TIP3    H135480   3.275   5.964  16.606 -0.9780 -1.2434 -0.3976
 4663TIP3    H235481   3.134   6.013  16.581 -1.2109 -0.9259  1.4939
 4664TIP3   OH235482   3.828   5.808   1.903  0.7633 -0.1630  0.0963
 4664TIP3    H135483   3.835   5.903   1.906  0.2400 -0.1822  2.4047
 4664TIP3    H235484   3.811   5.788   1.810 -1.3644  2.1564 -0.0637
 4665TIP3   OH235485   2.048   4.881  11.760  0.1734  0.0134 -0.2952
 4665TIP3    H135486   1.962   4.846  11.737  0.5529 -0.9050 -0.3310
 4665TIP3    H235487   2.101   4.870  11.681  0.9293 -1.3877  0.3904
 4666TIP3   OH235488   3.350   2.523   0.853 -0.3294 -0.3558 -0.2403
 4666TIP3    H135489   3.301   2.596   0.813  1.9022  0.7134 -1.0949
 4666TIP3    H235490   3.326   2.447   0.800  0.1152  0.4424 -1.6161
 4667TIP3   OH235491   6.371   4.239   5.066 -0.4419  0.1646  0.5723
 4667TIP3    H135492   6.367   4.144   5.066 -1.4296  0.1532 -2.1096
 4667TIP3    H235493   6.427   4.261   5.140 -0.8948 -2.4529  1.7545
 4668TIP3   OH235494   1.638   4.245   1.104 -0.4678  0.3680 -0.1235
 4668TIP3    H135495   1.648   4.178   1.172 -0.6985  0.8212  0.3608
 4668TIP3    H235496   1.686   4.211   1.029 -0.0698 -0.0565  0.3255
 4669TIP3   OH235497   6.582   3.745   2.363 -0.8898  0.1693 -0.2340
 4669TIP3    H135498   6.616   3.814   2.306 -0.9523 -1.2258 -2.0153
 4669TIP3    H235499   6.607   3.772   2.451  1.4698  1.0868 -1.1468
 4670TIP3   OH235500   1.780   1.545   5.208  0.0761 -0.3488 -0.1726
 4670TIP3    H135501   1.714   1.506   5.150  0.8681 -1.8910 -0.0578
 4670TIP3    H235502   1.859   1.495   5.191  1.3001  1.6434 -0.4629
 4671TIP3   OH235503   5.719   2.748   1.707 -0.0997 -0.1292  0.0055
 4671TIP3    H135504   5.811   2.754   1.680 -0.0020  1.0564  0.5449
 4671TIP3    H235505   5.670   2.787   1.634 -0.1315 -0.2583 -0.0423
 4672TIP3   OH235506   1.287   0.997   4.694  0.8380  0.6125 -0.4050
 4672TIP3    H135507   1.306   0.930   4.760  0.4393 -0.3335 -1.2502
 4672TIP3    H235508   1.347   0.978   4.622  0.2747  0.7765 -0.9213
 4673TIP3   OH235509   6.547   4.871   6.415  0.1398  0.5466  0.2704
 4673TIP3    H135510   6.581   4.838   6.499  1.5453  1.9483  0.2783
 4673TIP3    H235511   6.472   4.925   6.439 -1.0700 -1.1660  0.4001
 4674TIP3   OH235512   5.749   1.929   4.369  0.6136 -0.6878 -0.6190
 4674TIP3    H135513   5.751   1.888   4.455  0.6801 -2.1671 -1.3210
 4674TIP3    H235514   5.714   2.017   4.385 -1.8827 -1.8595  0.5357
 4675TIP3   OH235515   1.474   0.205  13.195 -0.0344  0.4294  0.2272
 4675TIP3    H135516   1.436   0.203  13.283  0.1982  2.4896  0.3914
 4675TIP3    H235517   1.399   0.208  13.136 -0.2428 -2.8901  0.2426
 4676TIP3   OH235518   6.571   4.240   5.250  0.0308 -0.3102 -0.1326
 4676TIP3    H135519   6.625   4.193   5.187  0.5663  1.8174 -1.2788
 4676TIP3    H235520   6.628   4.308   5.286 -0.9671 -0.0045  0.9322
 4677TIP3   OH235521   2.296   2.555  11.325  0.0967  0.4647  0.1360
 4677TIP3    H135522   2.335   2.473  11.296  0.9588  1.3215 -1.1764
 4677TIP3    H235523   2.251   2.590  11.248 -1.7807  0.3642  1.1545
 4678TIP3   OH235524   4.156   4.613  16.398 -0.0335  0.6918 -0.1620
 4678TIP3    H135525   4.173   4.535  16.346  0.0035  0.2540  0.5048
 4678TIP3    H235526   4.094   4.584  16.465 -1.7327  1.7375 -1.2356
 4679TIP3   OH235527   3.289   1.998   1.609  0.1518  0.1763  0.4554
 4679TIP3    H135528   3.307   2.043   1.526  1.6614  0.3451  0.8555
 4679TIP3    H235529   3.216   2.046   1.648 -0.6182  0.0512 -0.8162
 4680TIP3   OH235530   3.480   1.344  10.970 -0.0919  0.2271 -0.1343
 4680TIP3    H135531   3.438   1.417  11.016  0.1339  0.5029 -0.3613
 4680TIP3    H235532   3.531   1.300  11.038 -2.0835 -1.1254  0.5051
 4681TIP3   OH235533   0.541   3.327   5.234 -0.0895  0.6528 -0.1163
 4681TIP3    H135534   0.531   3.233   5.247  1.2537  0.8005  2.3604
 4681TIP3    H235535   0.566   3.361   5.320  0.7915  3.0790 -1.2638
 4682TIP3   OH235536   3.632   1.180  13.916 -0.0200  0.3606  0.2717
 4682TIP3    H135537   3.612   1.154  14.006  1.8093  1.1800  0.9283
 4682TIP3    H235538   3.548   1.174  13.870 -1.0065  0.1442  2.0795
 4683TIP3   OH235539   2.844   4.552  12.609  0.0636  0.1399 -0.5890
 4683TIP3    H135540   2.771   4.513  12.658  1.9479 -0.8344  1.5470
 4683TIP3    H235541   2.806   4.629  12.568 -2.2260 -0.4341  0.3410
 4684TIP3   OH235542   1.695   4.704  16.332 -0.6543 -0.4347  0.0294
 4684TIP3    H135543   1.631   4.762  16.290 -0.6236 -0.3255  0.1343
 4684TIP3    H235544   1.752   4.677  16.261  1.4707  2.4439  0.5356
 4685TIP3   OH235545   2.344   1.440  13.403 -0.0405 -0.0538 -0.0228
 4685TIP3    H135546   2.357   1.492  13.482  0.0419 -1.3598  0.8439
 4685TIP3    H235547   2.405   1.477  13.340 -0.6278  1.4748  0.2831
 4686TIP3   OH235548   3.845   3.366  16.166 -0.1728 -0.5596 -0.0230
 4686TIP3    H135549   3.900   3.367  16.244 -0.3041  0.1598  0.0595
 4686TIP3    H235550   3.903   3.392  16.095 -0.8383  2.0354  0.3463
 4687TIP3   OH235551   6.777   5.721  14.482  0.2205  0.1257  0.1568
 4687TIP3    H135552   6.775   5.631  14.515 -1.5645 -0.2139 -0.8430
 4687TIP3    H235553   6.814   5.772  14.554 -0.6899 -1.0913  1.5135
 4688TIP3   OH235554   1.291   4.683   0.937  0.1298  0.3032  0.3990
 4688TIP3    H135555   1.286   4.589   0.920  0.7147  0.3091  0.1505
 4688TIP3    H235556   1.202   4.715   0.925  0.1181 -0.0569 -0.5379
 4689TIP3   OH235557   5.192   6.498  15.095 -0.1361 -0.2134  0.4834
 4689TIP3    H135558   5.177   6.433  15.164 -1.2522 -0.3855  0.1004
 4689TIP3    H235559   5.282   6.484  15.067  0.0490 -0.7086  1.3243
 4690TIP3   OH235560   1.982   5.839  14.298 -0.1068  0.5813  0.2588
 4690TIP3    H135561   2.060   5.864  14.348 -0.4817 -0.8991  1.6565
 4690TIP3    H235562   1.972   5.745  14.316 -1.9637  0.6709 -0.2405
 4691TIP3   OH235563   0.873   3.992  16.739 -0.0511 -0.0704  0.2492
 4691TIP3    H135564   0.781   3.991  16.713  0.0685 -3.5093 -0.2105
 4691TIP3    H235565   0.871   4.024  16.830 -1.6800 -0.2246  0.2879
 4692TIP3   OH235566   2.394   6.703  16.006 -0.2389  0.1619 -1.0699
 4692TIP3    H135567   2.441   6.744  16.078 -0.4579 -1.8196  0.2206
 4692TIP3    H235568   2.425   6.751  15.928  2.9787 -0.2419 -0.1361
 4693TIP3   OH235569   2.951   0.052   0.385 -0.0986 -0.2653  0.9048
 4693TIP3    H135570   2.898   0.128   0.363  0.1809 -0.2663  0.2386
 4693TIP3    H235571   2.916  -0.019   0.331  1.8676  0.1927 -1.0751
 4694TIP3   OH235572   3.949   2.509   1.984  0.6859  0.3401  0.5767
 4694TIP3    H135573   3.878   2.572   1.998  1.3051  1.3838 -0.8286
 4694TIP3    H235574   4.026   2.564   1.964  0.8544 -0.8774 -2.3584
 4695TIP3   OH235575   5.029   5.576  17.104 -0.0769  0.0195  0.2533
 4695TIP3    H135576   5.065   5.488  17.107  0.7139  0.3589  1.1585
 4695TIP3    H235577   4.951   5.569  17.049 -0.7013 -1.4908  1.2862
 4696TIP3   OH235578   0.324   0.075  11.622 -0.1134  0.1705  0.6973
 4696TIP3    H135579   0.298   0.162  11.654 -1.1817 -0.1962  0.8658
 4696TIP3    H235580   0.414   0.086  11.592  0.4980  0.8369  2.6527
 4697TIP3   OH235581   1.848   5.258  14.053 -0.2113  0.0751  0.1060
 4697TIP3    H135582   1.764   5.268  14.097  0.0228 -1.6562  0.9868
 4697TIP3    H235583   1.826   5.226  13.966 -0.6080  2.3913 -0.6840
 4698TIP3   OH235584   5.238   0.438  10.655  0.7326  0.3851  0.4866
 4698TIP3    H135585   5.329   0.464  10.647  0.4346  1.4301  0.3977
 4698TIP3    H235586   5.213   0.464  10.744  0.4425  0.3815  0.4056
 4699TIP3   OH235587   1.198   2.270  10.903 -0.1600 -0.1555 -0.3832
 4699TIP3    H135588   1.207   2.186  10.947  0.1722 -1.2898 -2.5605
 4699TIP3    H235589   1.288   2.304  10.895 -0.2440  0.1720  0.0301
 4700TIP3   OH235590   4.415   5.036   5.268 -0.4243  0.0430 -0.6369
 4700TIP3    H135591   4.403   4.999   5.180 -0.8286 -2.2422  0.3348
 4700TIP3    H235592   4.510   5.041   5.279 -0.3600 -0.6239 -0.8344
 4701TIP3   OH235593   6.075   0.612  14.367  0.3615  0.3193  0.1587
 4701TIP3    H135594   6.102   0.523  14.344 -2.0450 -0.5336  0.4498
 4701TIP3    H235595   6.104   0.665  14.293  0.4243 -0.9648 -0.7711
 4702TIP3   OH235596   4.899   5.048  12.933  0.0034  0.0441  0.0609
 4702TIP3    H135597   4.851   4.971  12.902 -0.0293  0.0946 -0.0132
 4702TIP3    H235598   4.962   5.013  12.995 -0.3097  0.0081  0.3602
 4703TIP3   OH235599   5.971   4.187  14.869  0.4717  0.3297  0.0043
 4703TIP3    H135600   6.028   4.254  14.831  1.1578 -0.7738 -0.9639
 4703TIP3    H235601   6.027   4.110  14.876 -0.2935 -0.1345  1.1492
 4704TIP3   OH235602   1.470   2.765   2.054  0.8009 -0.5410  0.1694
 4704TIP3    H135603   1.408   2.808   1.994  1.5296 -0.1615 -0.3144
 4704TIP3    H235604   1.518   2.704   1.998 -0.3412 -2.1141  0.8807
 4705TIP3   OH235605   5.182   1.195  15.384 -0.5766  0.2056 -0.3244
 4705TIP3    H135606   5.269   1.158  15.371 -0.6225 -0.4425  1.1966
 4705TIP3    H235607   5.197   1.278  15.428 -0.6431  0.8013 -1.4054
 4706TIP3   OH235608   1.934   1.299   5.227 -0.0371  0.1533 -0.4351
 4706TIP3    H135609   1.992   1.374   5.236 -1.5363  1.3414 -0.5434
 4706TIP3    H235610   1.991   1.223   5.240  1.4242  1.3064  0.0086
 4707TIP3   OH235611   4.295   5.709  12.865 -0.1793  0.0835 -0.2373
 4707TIP3    H135612   4.199   5.714  12.859 -0.1972 -0.0001 -0.0102
 4707TIP3    H235613   4.325   5.717  12.774 -0.5008 -2.3358 -0.5793
 4708TIP3   OH235614   6.073   3.892  13.107 -0.5227  0.0635 -0.0527
 4708TIP3    H135615   6.048   3.943  13.184  0.1956 -2.9326  2.2578
 4708TIP3    H235616   6.164   3.917  13.090  0.0318 -0.8780  1.4666
 4709TIP3   OH235617   5.428   6.769  16.198 -0.3343  0.3520  0.2625
 4709TIP3    H135618   5.402   6.698  16.139 -1.1742 -0.3077  1.4082
 4709TIP3    H235619   5.515   6.745  16.228 -0.2480  0.2638 -0.0594
 4710TIP3   OH235620   1.735   3.291  14.585  0.2293  0.0038  0.3557
 4710TIP3    H135621   1.658   3.293  14.527 -0.3067  4.0290  1.0626
 4710TIP3    H235622   1.801   3.341  14.538  0.1546  2.3672  2.6366
 4711TIP3   OH235623   1.050   0.467   0.358  0.8358  0.1998 -0.1422
 4711TIP3    H135624   1.104   0.418   0.296  0.8688  1.0785 -0.8016
 4711TIP3    H235625   1.034   0.551   0.316 -0.9745 -0.0063  0.0755
 4712TIP3   OH235626   3.461   4.888  15.274  0.1344 -0.2649  0.0833
 4712TIP3    H135627   3.455   4.814  15.213 -1.0685 -0.5844  0.5873
 4712TIP3    H235628   3.374   4.896  15.311  0.7320  0.2371  1.4099
 4713TIP3   OH235629   5.561   4.115  10.412  0.0407 -0.7219 -0.2217
 4713TIP3    H135630   5.619   4.190  10.426 -0.7466 -0.1250 -0.1372
 4713TIP3    H235631   5.582   4.055  10.484 -1.2564  0.6289  1.3220
 4714TIP3   OH235632   1.669   0.050  15.397  0.6452 -0.0323  0.3963
 4714TIP3    H135633   1.608   0.061  15.470  1.0940  1.3112  0.5943
 4714TIP3    H235634   1.652   0.124  15.340  2.2377  0.4977  0.5811
 4715TIP3   OH235635   2.615   5.396  13.391 -0.1838 -0.1219  0.0927
 4715TIP3    H135636   2.567   5.417  13.471 -1.0661  1.5429 -0.8329
 4715TIP3    H235637   2.547   5.386  13.325  0.6440  0.5659 -0.8801
 4716TIP3   OH235638   6.544   6.666  16.285  0.2567 -0.0131  0.3042
 4716TIP3    H135639   6.610   6.599  16.302  1.9836  1.7149  0.6591
 4716TIP3    H235640   6.534   6.667  16.190  0.0033 -0.9473  0.3151
 4717TIP3   OH235641   4.493   6.804   1.719  0.0149  0.0597 -0.5298
 4717TIP3    H135642   4.420   6.854   1.681 -0.4281 -0.4663 -0.3774
 4717TIP3    H235643   4.451   6.739   1.775  0.6054 -0.2331 -0.4222
 4718TIP3   OH235644   5.272   1.421   2.877  0.3811  0.2151  0.0703
 4718TIP3    H135645   5.344   1.361   2.860  0.8523  1.1115 -1.1828
 4718TIP3    H235646   5.195   1.365   2.885  0.6773 -0.5195 -1.8568
 4719TIP3   OH235647   5.982   0.991  11.019  0.3030 -0.0112 -1.0798
 4719TIP3    H135648   6.056   0.967  10.963  2.4694 -3.0217  2.8630
 4719TIP3    H235649   5.925   0.914  11.020 -0.0569  0.2521  0.2918
 4720TIP3   OH235650   3.868   3.846   4.776 -0.7068  0.2556  0.5816
 4720TIP3    H135651   3.860   3.762   4.730 -0.0722  0.1618  0.6496
 4720TIP3    H235652   3.824   3.908   4.718 -1.5704 -0.1960  0.7324
 4721TIP3   OH235653   1.295   0.383   1.396  0.0060 -0.3747  0.0072
 4721TIP3    H135654   1.260   0.342   1.476  0.9259 -1.3497 -0.0870
 4721TIP3    H235655   1.290   0.314   1.330 -0.0449  0.2013 -0.5889
 4722TIP3   OH235656   6.767   3.329  12.976  0.3960 -1.0700  0.0845
 4722TIP3    H135657   6.857   3.311  13.004  0.0312 -1.7830  0.8253
 4722TIP3    H235658   6.723   3.363  13.054  0.8642  2.4749 -1.0904
 4723TIP3   OH235659   5.942   5.755   4.241  0.4225 -0.4772  0.0791
 4723TIP3    H135660   5.858   5.798   4.257  0.6312 -0.3416  0.8306
 4723TIP3    H235661   5.924   5.661   4.252  0.4761 -0.4143  0.7617
 4724TIP3   OH235662   4.888   5.160   2.185  0.6746 -0.2271  0.8015
 4724TIP3    H135663   4.972   5.157   2.139  0.6501  1.0470  0.6618
 4724TIP3    H235664   4.882   5.250   2.218 -0.8726 -0.1542  0.3634
 4725TIP3   OH235665   4.756   3.113  15.167  0.2826 -0.1911 -0.1300
 4725TIP3    H135666   4.713   3.093  15.250  0.2270 -0.9923 -0.3415
 4725TIP3    H235667   4.686   3.149  15.112  0.4763  1.0044  0.3974
 4726TIP3   OH235668   4.720   2.520  11.607  0.0036  0.1629  0.2253
 4726TIP3    H135669   4.702   2.613  11.598 -1.4269 -0.1834 -0.6811
 4726TIP3    H235670   4.635   2.482  11.629  0.9349 -0.6885  2.5525
 4727TIP3   OH235671   2.752   4.087  14.963 -0.0849  0.2633 -0.2474
 4727TIP3    H135672   2.676   4.145  14.965  0.4325  0.9238  0.5847
 4727TIP3    H235673   2.726   4.015  14.906  0.0830  2.4179 -3.1570
 4728TIP3   OH235674   6.753   0.771  17.211 -0.1457  0.4219 -0.1539
 4728TIP3    H135675   6.681   0.830  17.189 -0.7078  0.3215  1.3572
 4728TIP3    H235676   6.832   0.820  17.186 -0.5740  2.0673  1.5920
 4729TIP3   OH235677   5.644   5.916  17.291  0.2281  0.0269  0.4648
 4729TIP3    H135678   5.686   5.870  17.218  2.3145  0.4429  1.3755
 4729TIP3    H235679   5.577   5.970  17.250 -1.3732 -2.7511 -0.7651
 4730TIP3   OH235680   0.418   5.200  14.342 -0.3322 -0.8692 -0.2989
 4730TIP3    H135681   0.419   5.213  14.247 -0.5217  2.5273  0.1121
 4730TIP3    H235682   0.510   5.190  14.366 -0.1346  0.0556 -0.6443
 4731TIP3   OH235683   3.036   0.346   2.713  0.5915  0.4345  0.5321
 4731TIP3    H135684   3.106   0.288   2.683 -1.3001 -1.4573 -0.2912
 4731TIP3    H235685   2.985   0.293   2.774 -0.6129  1.5434  0.5192
 4732TIP3   OH235686   5.335   6.353   5.048  0.2934 -0.2422 -0.5492
 4732TIP3    H135687   5.267   6.375   5.111 -0.3696 -0.9692 -1.0104
 4732TIP3    H235688   5.383   6.280   5.089 -0.8703 -1.4995 -1.3875
 4733TIP3   OH235689   0.282   0.257  12.984 -0.1515  0.0099  0.8332
 4733TIP3    H135690   0.329   0.265  12.900 -0.6380 -0.7306  0.4862
 4733TIP3    H235691   0.331   0.313  13.044  1.5846 -1.2482  0.6430
 4734TIP3   OH235692   6.648   3.541   0.609  0.1885 -0.1798 -0.8232
 4734TIP3    H135693   6.721   3.583   0.563  1.4778  0.2018  1.4949
 4734TIP3    H235694   6.653   3.449   0.583  1.9234 -0.2802 -0.1917
 4735TIP3   OH235695   1.866   3.359  11.746 -0.1397 -0.6397  0.4832
 4735TIP3    H135696   1.901   3.420  11.681  0.7473 -0.2100  1.3641
 4735TIP3    H235697   1.870   3.274  11.702 -0.1631 -0.2671 -0.2625
 4736TIP3   OH235698   4.432   1.694  15.670  0.2983  0.0266  0.2359
 4736TIP3    H135699   4.509   1.642  15.691 -0.1837 -0.2842  1.2672
 4736TIP3    H235700   4.359   1.632  15.672 -0.0484  0.4087 -0.2733
 4737TIP3   OH235701   0.452   3.069   4.240  0.0315  0.0179  0.2961
 4737TIP3    H135702   0.484   3.066   4.331 -0.1296  1.7765  0.4399
 4737TIP3    H235703   0.387   3.140   4.241  0.0751  0.0781 -1.2089
 4738TIP3   OH235704   6.069   3.884   0.590 -0.1784 -0.0013  0.1332
 4738TIP3    H135705   6.100   3.958   0.642 -0.1161 -1.2761  1.9498
 4738TIP3    H235706   5.974   3.887   0.599 -0.2026  0.0886 -0.1347
 4739TIP3   OH235707   4.302   5.621   5.915 -0.5517  0.3031  0.0623
 4739TIP3    H135708   4.391   5.617   5.948 -0.9614 -1.4360  1.0149
 4739TIP3    H235709   4.281   5.714   5.913  1.4376  0.7645 -0.6319
 4740TIP3   OH235710   0.089   4.429  16.051 -0.9825  0.2543 -0.4924
 4740TIP3    H135711   0.053   4.443  15.964 -0.8117 -0.9032 -0.7582
 4740TIP3    H235712   0.013   4.420  16.108 -1.0942  1.0806 -0.5050
 4741TIP3   OH235713   5.043   1.750   3.792 -0.2762 -0.3561 -0.4385
 4741TIP3    H135714   5.052   1.805   3.715 -0.1719 -0.1119 -0.2539
 4741TIP3    H235715   4.949   1.741   3.804 -0.3094 -2.0339 -1.7492
 4742TIP3   OH235716   4.962   5.803   0.475  0.0668 -0.0410 -0.2920
 4742TIP3    H135717   4.908   5.734   0.513  1.9760 -1.8314 -0.6973
 4742TIP3    H235718   4.952   5.791   0.380 -0.0493  0.6222 -0.3654
 4743TIP3   OH235719   3.033   4.795  13.173 -0.2125  0.3151  0.1129
 4743TIP3    H135720   3.108   4.808  13.115 -1.2814  0.6629 -1.1934
 4743TIP3    H235721   3.019   4.700  13.173  0.7231  0.1693  0.9985
 4744TIP3   OH235722   6.693   2.420  16.030 -0.2196 -0.3944  0.7013
 4744TIP3    H135723   6.690   2.426  15.935  1.5799 -0.0516  0.6569
 4744TIP3    H235724   6.785   2.406  16.051 -0.5283 -0.0290  2.4231
 4745TIP3   OH235725   4.956   5.586   4.148  0.5030 -0.4187 -0.4328
 4745TIP3    H135726   4.927   5.623   4.231 -0.7673  0.1763 -1.1304
 4745TIP3    H235727   4.875   5.558   4.104  1.1548 -0.6877 -1.4803
 4746TIP3   OH235728   2.030   3.504  13.611 -0.3471 -0.9721 -0.3931
 4746TIP3    H135729   1.992   3.574  13.664 -0.0957 -1.8015  0.9170
 4746TIP3    H235730   2.090   3.549  13.552  0.3263 -0.1198  0.8973
 4747TIP3   OH235731   1.875   4.359   3.214 -0.3651 -0.4265 -0.0106
 4747TIP3    H135732   1.902   4.451   3.205 -1.9423  0.1560  0.9410
 4747TIP3    H235733   1.860   4.348   3.308 -1.1091 -1.3723 -0.2322
 4748TIP3   OH235734   0.756   3.065  14.509 -0.0315  0.4728 -0.0589
 4748TIP3    H135735   0.804   3.093  14.587  1.2369  2.5128 -1.5302
 4748TIP3    H235736   0.817   3.006  14.464 -0.7867 -0.7521  0.4903
 4749TIP3   OH235737   1.461   4.213  12.324  0.0852  0.2533 -0.1082
 4749TIP3    H135738   1.443   4.306  12.309 -1.8111  0.1341  1.2390
 4749TIP3    H235739   1.404   4.167  12.263  0.6255 -0.0564 -0.3885
 4750TIP3   OH235740   5.763   3.767   3.913 -0.6524 -0.3315  0.7387
 4750TIP3    H135741   5.717   3.851   3.910 -0.9180 -0.5126 -0.4134
 4750TIP3    H235742   5.802   3.764   4.000  1.9743  2.3634 -0.2678
 4751TIP3   OH235743   0.013   5.869   3.772  0.3876 -0.5750  0.1055
 4751TIP3    H135744  -0.082   5.868   3.760  0.3725 -1.6005  0.2084
 4751TIP3    H235745   0.025   5.838   3.862  0.9243 -3.1139 -0.8053
 4752TIP3   OH235746   2.262   2.977  16.524  0.0124  0.2883  0.3957
 4752TIP3    H135747   2.289   2.969  16.615  0.7773 -0.7180  0.0817
 4752TIP3    H235748   2.310   3.054  16.492  1.0086 -0.3385  0.3831
 4753TIP3   OH235749   3.268   4.320  16.235 -0.1700 -0.4118 -0.2427
 4753TIP3    H135750   3.216   4.240  16.225  0.9797 -1.0873 -0.9241
 4753TIP3    H235751   3.204   4.391  16.228 -1.3645 -1.2812  1.4494
 4754TIP3   OH235752   1.955   0.277  15.292 -0.4337 -0.0776  0.1858
 4754TIP3    H135753   1.960   0.195  15.243 -1.1737  0.4967 -0.8970
 4754TIP3    H235754   2.013   0.337  15.244 -0.5365  0.2683  0.4904
 4755TIP3   OH235755   1.450   6.463  13.410  0.3102  0.1382 -0.3475
 4755TIP3    H135756   1.503   6.415  13.345 -1.0993 -0.9478 -0.7123
 4755TIP3    H235757   1.493   6.445  13.494  1.8320  1.1110 -0.9001
 4756TIP3   OH235758   4.291   5.708   3.553 -0.0530  0.1556 -0.2212
 4756TIP3    H135759   4.225   5.727   3.620 -1.0231  0.3479 -1.2104
 4756TIP3    H235760   4.256   5.748   3.473  1.7115  1.0878 -0.5681
 4757TIP3   OH235761   2.296   0.400  12.027 -0.1483  0.3251 -0.6561
 4757TIP3    H135762   2.205   0.417  12.004  0.1561  2.1277 -0.5682
 4757TIP3    H235763   2.327   0.481  12.067  1.3189 -0.4806 -0.1063
 4758TIP3   OH235764   3.857   6.273  11.911 -1.2759  0.0054 -0.0910
 4758TIP3    H135765   3.944   6.295  11.945 -1.0544 -1.5456  0.3721
 4758TIP3    H235766   3.810   6.356  11.909  0.3099  0.9165 -0.6059
 4759TIP3   OH235767   0.751   2.947  11.754 -0.2187 -0.1240 -0.0413
 4759TIP3    H135768   0.771   2.999  11.676 -0.6911  3.0091  1.8393
 4759TIP3    H235769   0.837   2.922  11.789  0.0326 -0.0699 -0.6182
 4760TIP3   OH235770   1.288   3.398  12.137 -0.0203 -0.2191  0.2178
 4760TIP3    H135771   1.361   3.460  12.136 -2.1335  2.3562 -1.0612
 4760TIP3    H235772   1.239   3.420  12.216  0.1185 -1.3765  0.6302
 4761TIP3   OH235773   1.080   3.887  15.227  0.1785 -0.1496 -0.2890
 4761TIP3    H135774   1.115   3.803  15.255 -0.0197  1.0279  3.8003
 4761TIP3    H235775   1.158   3.936  15.199  0.4930 -1.0890 -1.0937
 4762TIP3   OH235776   3.983   2.601  14.797 -0.5715  0.0611  0.2073
 4762TIP3    H135777   3.939   2.654  14.730 -1.0564 -1.6170 -0.8197
 4762TIP3    H235778   4.062   2.651  14.819 -0.7492  0.9600 -1.1400
 4763TIP3   OH235779   0.292   0.251   5.987 -0.4302  0.1588 -0.3367
 4763TIP3    H135780   0.346   0.221   6.060  1.1879  2.6620 -0.4396
 4763TIP3    H235781   0.337   0.217   5.909 -0.2646  0.3097 -0.3085
 4764TIP3   OH235782   3.090   5.915  15.907  0.5321  0.1738 -0.5007
 4764TIP3    H135783   3.023   5.921  15.974 -0.9355 -0.9412 -1.8443
 4764TIP3    H235784   3.093   6.003  15.869 -1.3021 -0.1782 -1.5008
 4765TIP3   OH235785   0.182   3.193   1.431  0.1071 -0.3733  0.2355
 4765TIP3    H135786   0.135   3.223   1.509  0.6154  1.5614 -0.1685
 4765TIP3    H235787   0.271   3.175   1.462  0.0751 -0.4644  0.2747
 4766TIP3   OH235788   0.423   0.882  17.143 -0.2826 -0.2467 -0.5857
 4766TIP3    H135789   0.384   0.809  17.095  0.9008  0.6484 -2.9575
 4766TIP3    H235790   0.504   0.901  17.097  1.4918 -0.0787  2.4570
 4767TIP3   OH235791   0.902   6.142  16.729  0.3132 -0.4270 -0.2899
 4767TIP3    H135792   0.923   6.059  16.772 -1.2161  0.4334  2.2441
 4767TIP3    H235793   0.809   6.156  16.747  0.8194  2.4053  0.4149
 4768TIP3   OH235794   2.690   3.269   1.301 -0.3379 -0.3625 -0.0141
 4768TIP3    H135795   2.603   3.306   1.315 -0.4698 -0.4838 -0.5200
 4768TIP3    H235796   2.721   3.309   1.220 -0.5386 -1.4629 -0.6372
 4769TIP3   OH235797   6.421   4.339   3.561 -0.1797 -0.0317  0.1653
 4769TIP3    H135798   6.451   4.270   3.502 -0.3267  0.7233 -0.8149
 4769TIP3    H235799   6.364   4.393   3.506 -1.9972 -0.5128  1.5613
 4770TIP3   OH235800   1.385   4.325   3.978 -0.8397 -0.2981 -0.3230
 4770TIP3    H135801   1.358   4.324   4.070  0.3994 -0.9659  0.0490
 4770TIP3    H235802   1.402   4.233   3.957  1.9619  0.1850 -0.2804
 4771TIP3   OH235803   1.851   2.147   5.937 -0.2240 -0.1148  0.5909
 4771TIP3    H135804   1.878   2.196   5.859  2.3414  1.1917  2.2692
 4771TIP3    H235805   1.780   2.199   5.974 -1.6707 -0.8949 -0.9695
 4772TIP3   OH235806   4.481   4.838  13.111 -0.1515  0.1720 -0.1225
 4772TIP3    H135807   4.547   4.907  13.118 -0.7291  0.9199 -1.7342
 4772TIP3    H235808   4.532   4.756  13.108  0.7328  0.7428 -1.4681
 4773TIP3   OH235809   2.020   0.455   1.511 -0.0538 -0.4793  0.3895
 4773TIP3    H135810   1.948   0.424   1.455 -0.3561  1.6876 -0.4660
 4773TIP3    H235811   1.980   0.467   1.597  0.1015 -2.5458  0.7733
 4774TIP3   OH235812   2.124   6.316  15.651 -0.5238  0.0448  0.0992
 4774TIP3    H135813   2.110   6.384  15.717  1.0282 -0.3729  0.9021
 4774TIP3    H235814   2.040   6.271  15.645 -1.1502  1.1123  0.6180
 4775TIP3   OH235815   1.629   5.951   5.646 -0.8154 -0.5910  0.3809
 4775TIP3    H135816   1.722   5.934   5.662 -0.7647 -1.6099 -0.9334
 4775TIP3    H235817   1.589   5.950   5.733  0.4474  0.1203  0.9746
 4776TIP3   OH235818   0.148   4.222   5.519 -0.6734  0.0017 -0.2469
 4776TIP3    H135819   0.233   4.239   5.479 -0.8058 -0.4205 -0.7155
 4776TIP3    H235820   0.118   4.308   5.549 -0.3578  0.2511 -0.6378
 4777TIP3   OH235821   5.828   3.958   5.402  0.1424  0.4016  0.3372
 4777TIP3    H135822   5.854   3.923   5.317 -0.9539  1.5117 -0.4741
 4777TIP3    H235823   5.754   3.904   5.429 -0.3656  0.9143 -0.0396
 4778TIP3   OH235824   5.418   4.352  15.425 -0.0064 -0.5267  0.3736
 4778TIP3    H135825   5.384   4.313  15.344 -0.7929 -0.3559  0.6164
 4778TIP3    H235826   5.414   4.447  15.410 -1.0857 -0.4707  0.9834
 4779TIP3   OH235827   2.903   0.955   1.234  0.0879  0.0786 -0.1419
 4779TIP3    H135828   2.877   1.047   1.240 -0.0529  0.0203  0.1443
 4779TIP3    H235829   2.973   0.954   1.168  0.2208  0.4175 -0.0042
 4780TIP3   OH235830   2.048   4.140   5.092 -0.0116 -0.3023  0.1245
 4780TIP3    H135831   2.130   4.119   5.049  0.6477 -1.2872  1.7878
 4780TIP3    H235832   2.072   4.162   5.182 -1.5504 -0.6148  0.6432
 4781TIP3   OH235833   2.138   6.216  13.971  0.1351 -0.1090  0.5437
 4781TIP3    H135834   2.212   6.199  13.913  0.2260 -1.1953  0.9742
 4781TIP3    H235835   2.178   6.237  14.055 -0.0524 -0.6229  0.7591
 4782TIP3   OH235836   2.607   5.993   4.995  0.0280 -0.3843  0.3579
 4782TIP3    H135837   2.514   5.971   4.991  0.1047 -0.7750  0.7545
 4782TIP3    H235838   2.629   6.020   4.905 -1.4365  3.7829  1.1715
 4783TIP3   OH235839   3.569   6.768   0.666 -0.2315  0.4226 -0.4327
 4783TIP3    H135840   3.571   6.725   0.581 -1.9812  0.3171 -0.4242
 4783TIP3    H235841   3.477   6.770   0.690  0.1522  1.3732  0.9993
 4784TIP3   OH235842   5.599   3.225   4.076 -0.3470 -0.4700 -0.2578
 4784TIP3    H135843   5.683   3.227   4.122 -0.5562 -0.1245  0.1032
 4784TIP3    H235844   5.623   3.229   3.983  0.1530 -2.8272 -0.2557
 4785TIP3   OH235845   3.781   3.262   5.328  0.2482  0.0011 -0.3945
 4785TIP3    H135846   3.696   3.282   5.289 -0.1101 -1.6114 -0.4589
 4785TIP3    H235847   3.789   3.167   5.321  0.5318 -0.2535  2.6807
 4786TIP3   OH235848   1.856   5.341   6.209 -0.2699 -0.3494 -0.4642
 4786TIP3    H135849   1.768   5.312   6.184 -0.1249  2.3480 -4.5237
 4786TIP3    H235850   1.842   5.422   6.257 -0.0879 -1.2464  1.1359
 4787TIP3   OH235851   6.746   1.204  16.644  0.4720  0.1133  0.2101
 4787TIP3    H135852   6.772   1.261  16.717 -0.7153 -0.6928  1.2844
 4787TIP3    H235853   6.733   1.264  16.570  0.2312  1.1144  1.0560
 4788TIP3   OH235854   4.299   3.691  12.425  0.0447 -0.4429  0.3944
 4788TIP3    H135855   4.299   3.786  12.411  0.0719 -0.3606  0.9395
 4788TIP3    H235856   4.279   3.681  12.518  0.9398 -0.9480  0.5363
 4789TIP3   OH235857   3.115   2.546  10.618 -0.0265  0.2826  0.0507
 4789TIP3    H135858   3.057   2.621  10.627  0.6937  1.3512 -3.3149
 4789TIP3    H235859   3.069   2.487  10.559  1.4511  0.3230 -1.2052
 4790TIP3   OH235860   5.328   4.493  15.690 -0.7631  0.5223  0.2374
 4790TIP3    H135861   5.394   4.506  15.759 -0.4718  0.6822 -0.0662
 4790TIP3    H235862   5.370   4.432  15.629 -1.0991  0.2252  0.3078
 4791TIP3   OH235863   4.967   6.040   5.836 -0.4022 -0.2969  0.3912
 4791TIP3    H135864   5.047   6.090   5.821 -0.1254 -0.9866 -0.4031
 4791TIP3    H235865   4.961   5.980   5.762 -1.6157 -0.2967  0.4788
 4792TIP3   OH235866   0.205   5.603   2.522 -0.1907 -0.7524 -0.0905
 4792TIP3    H135867   0.171   5.565   2.441 -1.0461  0.0670 -0.1300
 4792TIP3    H235868   0.299   5.615   2.505 -0.4944  0.0961 -1.2438
 4793TIP3   OH235869   0.887   1.363  16.878  0.3036  0.0226  0.0583
 4793TIP3    H135870   0.936   1.436  16.840 -1.7088  1.4735  0.1701
 4793TIP3    H235871   0.801   1.400  16.899 -0.3386 -2.0702  1.2689
 4794TIP3   OH235872   0.670   2.530   2.760  0.0122  0.0250 -0.3703
 4794TIP3    H135873   0.581   2.548   2.727  0.1726  0.3138 -0.6422
 4794TIP3    H235874   0.690   2.604   2.817 -0.2476 -0.4542  0.3401
 4795TIP3   OH235875   6.523   3.155   3.086  0.5512 -0.3291  0.2727
 4795TIP3    H135876   6.452   3.155   3.021 -0.6007  0.9908  1.4968
 4795TIP3    H235877   6.480   3.170   3.170  2.3948  2.1074  0.8674
 4796TIP3   OH235878   6.182   1.732   3.802 -0.1348  0.7218 -0.2489
 4796TIP3    H135879   6.235   1.664   3.759 -1.2378 -0.8036  0.7513
 4796TIP3    H235880   6.246   1.783   3.852  0.4897 -0.7162  0.4458
 4797TIP3   OH235881   1.501   6.653  11.322 -0.1972  0.1302  0.8413
 4797TIP3    H135882   1.483   6.636  11.230  0.0860  2.5749  0.3011
 4797TIP3    H235883   1.573   6.594  11.344  0.6738  0.5067 -0.9134
 4798TIP3   OH235884   6.040   0.565   3.161 -0.0763 -0.1054  0.0206
 4798TIP3    H135885   6.071   0.608   3.081 -0.7428  1.9402  0.8444
 4798TIP3    H235886   5.978   0.627   3.199  0.9785 -0.6176  2.6650
 4799TIP3   OH235887   2.983   2.716   2.746  0.5348 -0.0090 -0.5693
 4799TIP3    H135888   3.022   2.631   2.764  0.8150 -0.0532 -1.3930
 4799TIP3    H235889   3.034   2.777   2.800 -0.9387 -0.6030  1.5600
 4800TIP3   OH235890   6.555   1.715   0.802 -0.2750  0.4806 -0.9097
 4800TIP3    H135891   6.604   1.792   0.830 -0.1684  0.1389 -0.1352
 4800TIP3    H235892   6.622   1.647   0.790 -0.6561 -0.3699  1.4450
 4801TIP3   OH235893   5.373   4.277   5.434 -0.6480 -0.1133 -0.5835
 4801TIP3    H135894   5.375   4.267   5.530 -2.5970  0.9367 -0.4049
 4801TIP3    H235895   5.452   4.232   5.404  0.3175  0.0584  1.5671
 4802TIP3   OH235896   5.406   4.776  14.543 -0.1940 -0.5431 -0.4036
 4802TIP3    H135897   5.337   4.724  14.501 -0.5577 -0.6257  0.2858
 4802TIP3    H235898   5.415   4.738  14.631  1.2221 -0.9816 -0.7279
 4803TIP3   OH235899   2.867   2.492   1.697 -0.0487 -0.2026  0.1226
 4803TIP3    H135900   2.910   2.439   1.764  0.3929 -2.9022 -2.1648
 4803TIP3    H235901   2.938   2.545   1.660 -0.0638  0.4327  0.9976
 4804TIP3   OH235902   0.165   0.087  15.350 -0.2024 -0.4689  0.2879
 4804TIP3    H135903   0.246   0.046  15.381 -0.5689  0.6183  2.7469
 4804TIP3    H235904   0.112   0.099  15.428 -0.6694  3.4249 -0.4966
 4805TIP3   OH235905   4.341   5.639  11.507 -0.1047  0.1423 -0.5443
 4805TIP3    H135906   4.389   5.715  11.540 -1.4950  0.7003  0.2432
 4805TIP3    H235907   4.381   5.564  11.552 -0.4390  0.6717  0.6714
 4806TIP3   OH235908   4.164   4.997   1.644  0.3671  0.0447  0.2525
 4806TIP3    H135909   4.111   5.042   1.710 -0.1629  3.2523 -2.2083
 4806TIP3    H235910   4.241   5.053   1.633  0.7934 -0.8096 -1.3336
 4807TIP3   OH235911   2.375   1.618   3.472  0.1151  0.3744 -0.3306
 4807TIP3    H135912   2.338   1.705   3.484  0.3352  0.1418  2.4366
 4807TIP3    H235913   2.300   1.562   3.453 -0.2827  0.8344 -0.1104
 4808TIP3   OH235914   0.082   4.456  12.339  0.4707  0.2685 -0.5442
 4808TIP3    H135915   0.167   4.412  12.339  1.3780  1.9778 -2.5445
 4808TIP3    H235916   0.026   4.400  12.284  0.8331  0.1684 -0.8099
 4809TIP3   OH235917   1.055   5.552  15.540 -0.0823 -0.3505  0.1916
 4809TIP3    H135918   1.032   5.597  15.459 -0.0353  0.6737  0.7500
 4809TIP3    H235919   0.972   5.520  15.575 -0.0368 -1.3375 -0.5700
 4810TIP3   OH235920   5.582   3.787   3.241 -0.2396 -0.1319 -0.2858
 4810TIP3    H135921   5.633   3.828   3.171 -0.1025  0.3324  0.0778
 4810TIP3    H235922   5.607   3.836   3.320 -1.2647  0.1186 -0.1066
 4811TIP3   OH235923   3.917   1.334  16.646 -0.0338 -0.2704 -0.3376
 4811TIP3    H135924   3.962   1.303  16.724  0.6882  0.2933 -0.5192
 4811TIP3    H235925   3.968   1.411  16.618 -2.6838  2.0568  1.0118
 4812TIP3   OH235926   4.047   3.515   4.514  0.2216 -0.1385  0.3981
 4812TIP3    H135927   4.027   3.495   4.422 -0.8938  0.4197  0.5149
 4812TIP3    H235928   3.962   3.526   4.555  0.7216 -0.4743  1.5342
 4813TIP3   OH235929   3.310   2.836  13.537 -0.5923 -0.0011 -0.5736
 4813TIP3    H135930   3.373   2.891  13.491  1.3539 -1.1253  0.7037
 4813TIP3    H235931   3.268   2.895  13.600  1.1835  0.1388  0.5043
 4814TIP3   OH235932   5.322   3.801  11.648 -1.1609  0.5611  0.8496
 4814TIP3    H135933   5.320   3.774  11.556 -1.6161  0.5653  0.8593
 4814TIP3    H235934   5.415   3.798  11.672 -1.0990  0.0707  0.5370
 4815TIP3   OH235935   5.292   2.894   4.388 -0.1144  0.4263  0.8544
 4815TIP3    H135936   5.354   2.864   4.321 -1.1082 -1.5614  0.7794
 4815TIP3    H235937   5.217   2.928   4.339  0.6566  2.3287  0.9502
 4816TIP3   OH235938   6.175   4.352  14.811 -0.4104 -0.0235  0.5004
 4816TIP3    H135939   6.213   4.363  14.898  0.5003 -3.2712  0.5886
 4816TIP3    H235940   6.251   4.344  14.752 -0.9866 -0.6120 -0.1773
 4817TIP3   OH235941   1.830   2.925  12.298 -0.2324 -0.6084 -0.1177
 4817TIP3    H135942   1.805   2.985  12.227 -0.4327  0.6871  1.0240
 4817TIP3    H235943   1.836   2.840  12.256 -1.2091 -0.0057 -1.5287
 4818TIP3   OH235944   6.436   3.990   1.722 -0.1563  0.6661  0.0124
 4818TIP3    H135945   6.379   4.037   1.662  0.5089  0.5711 -0.7113
 4818TIP3    H235946   6.522   4.033   1.711  0.0413  0.4282  0.6424
 4819TIP3   OH235947   4.448   6.207  14.140  0.2721  0.1702  0.4885
 4819TIP3    H135948   4.355   6.196  14.117 -0.1435  0.6528  1.8573
 4819TIP3    H235949   4.478   6.118  14.158  0.1648 -0.0260 -0.2743
 4820TIP3   OH235950   5.358   6.404   1.229 -0.2553  0.7308 -0.2850
 4820TIP3    H135951   5.262   6.405   1.229 -0.3144 -1.6592  0.8328
 4820TIP3    H235952   5.383   6.496   1.232 -2.5285  1.3376  1.3383
 4821TIP3   OH235953   3.280   5.896  12.512 -0.3199 -0.7514 -0.1644
 4821TIP3    H135954   3.253   5.860  12.597 -2.3009 -1.1698 -0.9304
 4821TIP3    H235955   3.216   5.965  12.494  1.0944  0.4704 -0.5547
 4822TIP3   OH235956   4.614   1.599   4.221 -0.9096 -0.3062  0.2895
 4822TIP3    H135957   4.540   1.646   4.183 -0.7679 -0.8846 -0.7429
 4822TIP3    H235958   4.654   1.554   4.146  0.2160 -0.3530  0.9116
 4823TIP3   OH235959   4.719   2.621  17.037  0.5672  0.1480  0.4064
 4823TIP3    H135960   4.718   2.711  17.002  1.2824  0.6876  1.7728
 4823TIP3    H235961   4.797   2.581  16.999  1.9074  1.0537  2.1400
 4824TIP3   OH235962   3.767   2.726  13.937  0.0060 -0.2221  0.1672
 4824TIP3    H135963   3.685   2.705  13.983  0.1227 -0.1356  0.4194
 4824TIP3    H235964   3.764   2.821  13.925 -0.4450 -0.3526 -0.8303
 4825TIP3   OH235965   3.580   5.247   6.001 -0.3940  0.3118  0.0205
 4825TIP3    H135966   3.584   5.273   6.093 -1.2264  1.5839 -0.3038
 4825TIP3    H235967   3.487   5.250   5.979 -0.0750  1.3576 -1.2449
 4826TIP3   OH235968   5.988   0.922  15.873 -0.3626  0.3322  0.4939
 4826TIP3    H135969   5.979   0.955  15.784  0.9002 -1.1519 -0.2147
 4826TIP3    H235970   6.044   0.985  15.917  0.5710  0.0758 -0.3229
 4827TIP3   OH235971   2.948   5.469   3.065 -0.4374  0.3749  0.3408
 4827TIP3    H135972   2.866   5.513   3.089 -0.5342  0.6322 -0.4181
 4827TIP3    H235973   2.953   5.393   3.122 -1.8600 -0.3532 -0.4649
 4828TIP3   OH235974   1.741   0.878   3.345  0.0664 -0.1732  0.0935
 4828TIP3    H135975   1.691   0.838   3.416  1.6853  0.3828  1.5888
 4828TIP3    H235976   1.748   0.809   3.279 -0.0754 -1.2357  1.1676
 4829TIP3   OH235977   1.681   0.751  14.092 -0.1820  0.0148 -0.2261
 4829TIP3    H135978   1.742   0.823  14.078  1.0341 -0.7870  0.8247
 4829TIP3    H235979   1.669   0.713  14.005  1.1087 -0.0500 -0.3869
 4830TIP3   OH235980   3.781   1.059   3.260  0.4249 -0.5008  0.1018
 4830TIP3    H135981   3.873   1.059   3.232  0.8144 -1.7991  1.3251
 4830TIP3    H235982   3.777   0.994   3.331 -1.2384  0.2481  0.7281
 4831TIP3   OH235983   2.045   3.068   5.288  0.4269  0.0740 -0.1866
 4831TIP3    H135984   1.967   3.054   5.342 -0.9809  0.5156 -2.0515
 4831TIP3    H235985   2.014   3.056   5.198  2.4607  0.5095 -0.9626
 4832TIP3   OH235986   5.697   3.540  14.360  0.3961  0.4925 -0.0703
 4832TIP3    H135987   5.739   3.621  14.330  0.2110  0.0805 -1.4677
 4832TIP3    H235988   5.605   3.551  14.339  0.4519 -0.2981 -0.7567
 4833TIP3   OH235989   5.842   5.550  15.210 -0.7924 -0.1321 -0.2324
 4833TIP3    H135990   5.857   5.560  15.304 -0.8797  0.4487 -0.2795
 4833TIP3    H235991   5.750   5.524  15.203 -1.0378  0.7205 -0.2082
 4834TIP3   OH235992   6.676   5.400  14.574 -0.2516  0.7862 -0.2603
 4834TIP3    H135993   6.651   5.440  14.657  2.3342 -0.9811  1.4504
 4834TIP3    H235994   6.640   5.311  14.579  1.3816  0.1204 -0.2801
 4835TIP3   OH235995   1.976   6.121   3.510  0.5068 -0.5158 -0.0830
 4835TIP3    H135996   1.935   6.207   3.522 -0.1651 -0.6443 -1.3752
 4835TIP3    H235997   2.053   6.124   3.566  0.5457  0.9762 -0.1806
 4836TIP3   OH235998   4.117   1.527   1.609  0.3785 -0.0762  0.1701
 4836TIP3    H135999   4.121   1.464   1.682 -0.0040 -0.0027  0.2561
 4836TIP3    H236000   4.208   1.548   1.591  0.6222 -2.1402 -1.1593
 4837TIP3   OH236001   2.678   1.402   1.018 -0.0584  0.3402  0.4105
 4837TIP3    H136002   2.616   1.409   0.946  0.3614  0.6419  0.0698
 4837TIP3    H236003   2.624   1.396   1.097 -0.5169  0.8841  0.1420
 4838TIP3   OH236004   2.913   4.413   2.751  0.2424 -0.1658  0.0618
 4838TIP3    H136005   2.906   4.479   2.683  0.9265 -1.0176 -0.8473
 4838TIP3    H236006   2.946   4.460   2.827 -0.0174  0.6855 -0.3481
 4839TIP3   OH236007   5.965   5.083  14.015 -0.1604 -0.4875  0.1540
 4839TIP3    H136008   5.883   5.116  14.051 -0.0602 -0.8252  0.6846
 4839TIP3    H236009   6.021   5.160  14.010 -1.5253  0.4206 -3.1511
 4840TIP3   OH236010   0.068   4.933  14.791  0.9197 -0.1825  0.5388
 4840TIP3    H136011  -0.018   4.954  14.826  0.5536 -0.6614 -0.0770
 4840TIP3    H236012   0.089   4.847  14.829 -0.2174 -1.5021 -1.7469
 4841TIP3   OH236013   2.054   0.451   5.307 -0.5067  0.9041  0.0171
 4841TIP3    H136014   2.044   0.363   5.272 -0.0835  0.4740  0.9456
 4841TIP3    H236015   1.971   0.495   5.289 -1.1067 -0.0258  0.4865
 4842TIP3   OH236016   4.597   4.095   5.133  0.0610  0.1110 -0.2540
 4842TIP3    H136017   4.555   4.176   5.161  0.4932  0.0594  0.5577
 4842TIP3    H236018   4.533   4.026   5.155  0.4338  0.0615  0.6995
 4843TIP3   OH236019   0.331   6.738   5.515 -0.7794  0.2601 -0.1886
 4843TIP3    H136020   0.339   6.644   5.500  0.1256  0.1931  0.6174
 4843TIP3    H236021   0.343   6.777   5.428 -3.6111 -0.4610 -0.9382
 4844TIP3   OH236022   3.053   2.986  14.016 -0.3973 -0.2724  0.1532
 4844TIP3    H136023   3.051   3.076  14.048  4.8224 -0.3569  1.2284
 4844TIP3    H236024   3.124   2.986  13.951  0.5963 -3.8105  1.1418
 4845TIP3   OH236025   2.731   6.083   2.067 -0.1089  0.3781  0.5722
 4845TIP3    H136026   2.713   6.004   2.117 -0.1841 -0.0240 -0.0767
 4845TIP3    H236027   2.712   6.059   1.976  0.1880  1.0397  0.3266
 4846TIP3   OH236028   1.344   4.080  15.187  0.0654 -0.1419 -0.4090
 4846TIP3    H136029   1.330   4.030  15.107 -1.3679  0.2541 -0.4248
 4846TIP3    H236030   1.371   4.167  15.157 -0.5590  0.0333 -0.4783
 4847TIP3   OH236031   3.806   5.597  15.307  0.7021  0.4597 -0.1094
 4847TIP3    H136032   3.884   5.562  15.264  0.2617 -0.8076  0.1219
 4847TIP3    H236033   3.735   5.541  15.278 -0.1914  1.8328 -0.6022
 4848TIP3   OH236034   1.216   6.702  17.185  0.0561  0.1891  0.1061
 4848TIP3    H136035   1.281   6.708  17.115 -1.1138  0.1837 -0.9780
 4848TIP3    H236036   1.153   6.638  17.154 -1.5075  1.5997  0.3168
 4849TIP3   OH236037   0.160   3.121   0.134 -0.3224  0.0454 -0.0808
 4849TIP3    H136038   0.096   3.103   0.203 -1.0261  1.1209 -0.4466
 4849TIP3    H236039   0.147   3.213   0.112  1.4198  0.2893 -0.1046
 4850TIP3   OH236040   1.961   4.525  13.145 -0.2644  0.2065 -0.0119
 4850TIP3    H136041   1.892   4.477  13.191 -0.4893  2.0085  1.6072
 4850TIP3    H236042   1.914   4.581  13.083 -0.4051  2.4574  2.0566
 4851TIP3   OH236043   2.278   0.415  15.377 -0.1561 -0.2604 -0.1654
 4851TIP3    H136044   2.216   0.343  15.392 -1.1870  0.5681 -0.3841
 4851TIP3    H236045   2.346   0.402  15.444  0.3999 -2.2057 -1.0679
 4852TIP3   OH236046   2.265   2.947  17.062 -0.1912  0.4820  0.4895
 4852TIP3    H136047   2.244   2.949  16.969  0.5332  0.3267  0.3181
 4852TIP3    H236048   2.330   2.878  17.070 -0.8814 -0.0835  1.2513
 4853TIP3   OH236049   0.648   1.606  15.636  0.3895  0.1864  0.2266
 4853TIP3    H136050   0.626   1.666  15.707  0.8978 -0.0664  0.6006
 4853TIP3    H236051   0.640   1.659  15.557 -1.9230  0.0086  0.3025
 4854TIP3   OH236052   5.918   2.972  15.064  0.0840 -0.6470 -0.2955
 4854TIP3    H136053   6.004   3.000  15.095 -0.4169  0.7619 -0.1733
 4854TIP3    H236054   5.924   2.977  14.968 -0.4951  1.4179 -0.2480
 4855TIP3   OH236055   5.327   5.160   5.308 -0.4632 -0.3607 -0.0928
 4855TIP3    H136056   5.275   5.212   5.247 -0.8047 -0.5250  0.0526
 4855TIP3    H236057   5.415   5.159   5.271  0.1030  2.1971  1.0243
 4856TIP3   OH236058   5.085   1.934  15.054 -0.4000 -0.0812 -0.1491
 4856TIP3    H136059   5.106   1.959  15.144 -2.3254 -1.5332  0.7504
 4856TIP3    H236060   5.024   1.861  15.064 -0.4082 -0.4402 -2.6484
 4857TIP3   OH236061   2.257   4.761  16.011  0.3024  0.0774 -0.5253
 4857TIP3    H136062   2.323   4.829  15.998  0.2421 -0.1322 -2.0432
 4857TIP3    H236063   2.185   4.786  15.953  0.3676 -1.3733 -1.2564
 4858TIP3   OH236064   0.532   6.229   0.335 -0.0621  0.0947  0.3570
 4858TIP3    H136065   0.438   6.220   0.316  0.0756 -0.6215  0.0038
 4858TIP3    H236066   0.575   6.215   0.251  0.3745  0.2763  0.5522
 4859TIP3   OH236067   1.820   1.583  10.951 -0.8198  0.2594  0.0907
 4859TIP3    H136068   1.900   1.631  10.931 -1.5938  1.2869 -0.6237
 4859TIP3    H236069   1.813   1.517  10.881 -0.4921  0.0406  0.2654
 4860TIP3   OH236070   2.334   1.056   5.491 -0.2018  0.8277  0.3813
 4860TIP3    H136071   2.362   1.045   5.400  0.8136  0.0512  0.7792
 4860TIP3    H236072   2.376   1.138   5.519  1.9853 -0.4611  1.0554
 4861TIP3   OH236073   3.708   0.965  13.428  0.2611  0.3489  0.2518
 4861TIP3    H136074   3.786   0.913  13.444  0.6061  0.6491 -0.4211
 4861TIP3    H236075   3.638   0.920  13.476  1.4516  1.8170  3.5347
 4862TIP3   OH236076   5.942   3.491   6.556 -0.0014  0.4347  0.3031
 4862TIP3    H136077   5.888   3.441   6.616 -0.5422  2.1345  1.2786
 4862TIP3    H236078   5.927   3.582   6.580  1.4931  1.0505 -0.9544
 4863TIP3   OH236079   4.722   5.098   2.832  0.7109  0.0548  0.1352
 4863TIP3    H136080   4.727   5.024   2.891  3.1942  0.2892  0.2742
 4863TIP3    H236081   4.655   5.073   2.768  0.3849 -1.6043  1.0931
 4864TIP3   OH236082   3.206   2.754   0.721 -0.4196  0.5347 -0.2973
 4864TIP3    H136083   3.186   2.789   0.808  0.8421 -0.0325  0.2257
 4864TIP3    H236084   3.279   2.806   0.690  0.9252 -1.0655  0.1365
 4865TIP3   OH236085   6.596   3.739   1.170 -1.0680 -0.6691 -0.5717
 4865TIP3    H136086   6.685   3.716   1.144 -1.5334 -2.5960 -0.4773
 4865TIP3    H236087   6.554   3.766   1.088 -0.1988  1.0570 -0.4962
 4866TIP3   OH236088   6.287   4.667  11.208  0.4982  0.1994  0.0832
 4866TIP3    H136089   6.291   4.686  11.302  0.1835  0.1447  0.1083
 4866TIP3    H236090   6.195   4.649  11.191 -0.0286  3.3544 -0.8457
 4867TIP3   OH236091   4.689   1.661   6.156  0.1717  0.3119  0.0948
 4867TIP3    H136092   4.639   1.711   6.220  1.0545  1.8901 -0.4180
 4867TIP3    H236093   4.762   1.718   6.132  1.1691 -1.1871 -0.5759
 4868TIP3   OH236094   5.859   6.176  12.972  0.2208 -0.0524 -0.7694
 4868TIP3    H136095   5.875   6.145  13.061  1.7312  0.5867 -0.8013
 4868TIP3    H236096   5.941   6.216  12.945 -0.7247  1.2256 -1.8580
 4869TIP3   OH236097   5.431   4.358   5.768 -0.5834 -0.0484  0.0465
 4869TIP3    H136098   5.414   4.453   5.765 -0.3344  0.0318  0.9978
 4869TIP3    H236099   5.363   4.323   5.825 -0.5903 -0.4275 -0.1909
 4870TIP3   OH236100   0.267   0.061  16.641  0.1520 -0.3266 -0.2512
 4870TIP3    H136101   0.271   0.019  16.555  0.2170  0.4608 -0.6446
 4870TIP3    H236102   0.353   0.044  16.680  1.0765  1.4899 -1.4057
 4871TIP3   OH236103   2.786   6.409   5.239  0.3546 -0.1315  0.4350
 4871TIP3    H136104   2.724   6.391   5.168 -1.0072  0.2280  1.5052
 4871TIP3    H236105   2.813   6.500   5.224  0.0625 -0.0518  0.3871
 4872TIP3   OH236106   4.689   1.627  16.956 -0.0040  0.7878  0.2861
 4872TIP3    H136107   4.768   1.590  16.917  0.2563  0.1661  1.3860
 4872TIP3    H236108   4.617   1.578  16.916  0.1304  1.5628 -0.9452
 4873TIP3   OH236109   2.354   5.297   4.103 -0.2834 -0.5539 -0.3711
 4873TIP3    H136110   2.390   5.386   4.093  1.3221 -0.8338  2.4085
 4873TIP3    H236111   2.416   5.242   4.055 -0.7486 -0.3031 -1.2771
 4874TIP3   OH236112   0.650   2.413  14.767  0.0882  0.0435 -0.0290
 4874TIP3    H136113   0.705   2.367  14.703 -0.9632 -0.6494 -0.4448
 4874TIP3    H236114   0.596   2.345  14.806  1.9724  0.1547  2.9323
 4875TIP3   OH236115   3.694   6.123   4.588  0.2938 -0.7357 -0.2611
 4875TIP3    H136116   3.748   6.202   4.587 -0.8913  0.0978 -0.4124
 4875TIP3    H236117   3.716   6.079   4.669  2.5940 -1.4083 -1.2240
 4876TIP3   OH236118   1.407   3.156   2.362  0.0577  0.4570  0.3249
 4876TIP3    H136119   1.464   3.087   2.328  0.3287  0.9747 -0.2726
 4876TIP3    H236120   1.390   3.130   2.452  1.5391  0.4903  0.6277
 4877TIP3   OH236121   6.800   4.423   6.351  0.1136  0.6857  0.4160
 4877TIP3    H136122   6.756   4.356   6.403 -0.3256  2.1104  1.9119
 4877TIP3    H236123   6.844   4.478   6.415  1.3455  1.2205 -0.8724
 4878TIP3   OH236124   2.796   4.361  15.688 -0.2569  0.0701 -0.6163
 4878TIP3    H136125   2.829   4.451  15.695  0.5124 -0.1281 -1.5211
 4878TIP3    H236126   2.731   4.365  15.617 -0.0785 -0.1220 -0.7924
 4879TIP3   OH236127   4.922   0.673  15.791  0.1471 -0.0703 -0.4722
 4879TIP3    H136128   4.954   0.583  15.787  0.4558  0.0543 -0.8716
 4879TIP3    H236129   5.000   0.725  15.810  0.6117  0.4651 -3.5765
 4880TIP3   OH236130   2.575   6.309  14.712  0.4968 -0.3063  0.1528
 4880TIP3    H136131   2.576   6.213  14.716 -1.1609 -0.3873 -0.9690
 4880TIP3    H236132   2.604   6.330  14.623  0.0761  0.2010  0.1321
 4881TIP3   OH236133   3.326   3.028   4.225 -0.2995  0.0736 -0.3139
 4881TIP3    H136134   3.411   2.991   4.201 -0.4691 -1.5641  1.4217
 4881TIP3    H236135   3.343   3.076   4.306 -1.0803 -0.6187  0.2705
 4882TIP3   OH236136   4.623   4.695  14.691 -0.5874  0.2863  0.7464
 4882TIP3    H136137   4.661   4.744  14.764 -0.2527  0.2429  0.6046
 4882TIP3    H236138   4.560   4.755  14.651 -1.0553  0.1705  1.3065
 4883TIP3   OH236139   2.838   0.322  13.705 -0.7123  0.2983 -0.5678
 4883TIP3    H136140   2.762   0.381  13.705 -0.2556  0.9075  0.0724
 4883TIP3    H236141   2.909   0.376  13.739 -0.1586 -0.4819 -0.4754
 4884TIP3   OH236142   6.060   5.217  12.466 -0.3870  0.4387 -0.3907
 4884TIP3    H136143   6.100   5.130  12.458 -1.2966 -0.1192  1.0372
 4884TIP3    H236144   5.990   5.217  12.401 -1.4636 -0.5141  0.7542
 4885TIP3   OH236145   5.280   2.224   1.125  0.2725  0.3045  0.1921
 4885TIP3    H136146   5.248   2.200   1.038  1.4366  1.8348 -0.6815
 4885TIP3    H236147   5.344   2.294   1.109  1.3950 -0.2191  2.1722
 4886TIP3   OH236148   5.256   4.402  14.968 -0.2029 -0.2236 -0.3595
 4886TIP3    H136149   5.306   4.484  14.961 -0.9850  0.2971  0.0694
 4886TIP3    H236150   5.286   4.350  14.894 -1.1198  1.2346 -1.7952
 4887TIP3   OH236151   2.705   6.447  13.713 -0.8802 -0.7681  0.2926
 4887TIP3    H136152   2.665   6.531  13.739 -1.4389  0.0379 -2.9529
 4887TIP3    H236153   2.642   6.410  13.651  1.2438 -1.6906 -1.3410
 4888TIP3   OH236154   4.364   6.232   6.529 -0.5434  0.0258 -0.5919
 4888TIP3    H136155   4.278   6.247   6.570  0.6113  0.0830  1.9055
 4888TIP3    H236156   4.388   6.144   6.557  0.7677  0.4869 -0.2768
 4889TIP3   OH236157   1.632   2.889   1.039 -0.9330 -0.3392  0.6932
 4889TIP3    H136158   1.630   2.811   0.984 -0.8561 -1.2068  1.8975
 4889TIP3    H236159   1.704   2.942   1.004 -2.0061 -0.0364 -1.1387
 4890TIP3   OH236160   5.794   0.464  16.674 -0.1888 -0.2665 -0.3136
 4890TIP3    H136161   5.888   0.479  16.666 -0.2080 -0.5497 -1.2149
 4890TIP3    H236162   5.760   0.477  16.585 -1.4307  2.7049  0.5406
 4891TIP3   OH236163   4.587   2.046  11.977 -0.1091 -0.0399  0.0075
 4891TIP3    H136164   4.629   2.059  12.062 -0.3107  0.8767 -0.0303
 4891TIP3    H236165   4.495   2.068  11.991 -0.4939 -1.5844 -0.0272
 4892TIP3   OH236166   1.440   2.724  16.173  0.1194  0.7009 -0.3832
 4892TIP3    H136167   1.422   2.724  16.267 -0.3724 -1.7491 -0.4344
 4892TIP3    H236168   1.535   2.733  16.166  0.2637 -0.1439  0.4016
 4893TIP3   OH236169   3.863   5.968   5.861  0.0175  0.0600 -0.2426
 4893TIP3    H136170   3.914   5.917   5.924  1.7019  0.2262 -1.4443
 4893TIP3    H236171   3.867   6.058   5.894  1.2489  0.2141 -0.7882
 4894TIP3   OH236172   2.942   1.893   1.597  0.0837 -0.4098 -0.1920
 4894TIP3    H136173   2.964   1.912   1.505  1.4885  0.4152  0.3035
 4894TIP3    H236174   2.895   1.810   1.593  1.3225 -1.0830 -1.5365
 4895TIP3   OH236175   5.509   2.462  12.918  0.0398 -0.3097 -0.5990
 4895TIP3    H136176   5.496   2.557  12.922  1.6987 -0.1176  0.7856
 4895TIP3    H236177   5.470   2.436  12.834 -0.3269  1.5992 -1.0472
 4896TIP3   OH236178   3.591   4.084   3.492 -0.1274  0.5375  0.3851
 4896TIP3    H136179   3.502   4.117   3.486 -0.3648 -0.4212 -1.8863
 4896TIP3    H236180   3.625   4.091   3.403  0.6985 -2.7955  0.3662
 4897TIP3   OH236181   2.482   2.761  17.136  0.4266 -0.4531  0.4143
 4897TIP3    H136182   2.541   2.824  17.095  0.9627 -0.8588  0.5688
 4897TIP3    H236183   2.523   2.740  17.220 -0.8507  0.6598  1.3546
 4898TIP3   OH236184   3.332   5.352  15.080  0.2508 -0.0182 -0.3191
 4898TIP3    H136185   3.318   5.333  15.173 -1.7960 -0.9268 -0.7756
 4898TIP3    H236186   3.427   5.353  15.070  0.5006 -0.6555  1.6397
 4899TIP3   OH236187   6.253   0.562  13.969  0.3552  0.2698 -0.0943
 4899TIP3    H136188   6.197   0.634  13.999  0.6820  1.0160 -1.2188
 4899TIP3    H236189   6.198   0.484  13.974 -0.1486  0.6761  0.7241
 4900TIP3   OH236190   6.430   5.903   2.703  0.5640 -0.1513 -0.0751
 4900TIP3    H136191   6.481   5.830   2.668  0.1391 -0.5540  0.1369
 4900TIP3    H236192   6.371   5.863   2.767  1.7255  0.6559  1.5352
 4901TIP3   OH236193   1.589   0.923   4.213 -0.1876 -0.1458 -0.3834
 4901TIP3    H136194   1.637   0.936   4.295 -1.9449  0.9451  0.5088
 4901TIP3    H236195   1.546   1.007   4.197 -1.4899 -0.9710 -1.3435
 4902TIP3   OH236196   3.420   5.232  11.320 -0.0301 -0.5385  0.1736
 4902TIP3    H136197   3.355   5.205  11.255  0.0207 -0.2493  0.0017
 4902TIP3    H236198   3.496   5.259  11.268  0.2743 -0.9842  0.3767
 4903TIP3   OH236199   5.103   1.225   4.971  0.2867  0.3303 -0.1141
 4903TIP3    H136200   5.037   1.284   5.007  0.3096  0.7644 -0.7759
 4903TIP3    H236201   5.081   1.139   5.007  0.1896  0.7256  0.7756
 4904TIP3   OH236202   6.744   1.647   1.536  0.3674  0.1145 -0.2109
 4904TIP3    H136203   6.689   1.702   1.481 -2.8910 -0.6096  2.1807
 4904TIP3    H236204   6.723   1.558   1.509 -0.7159 -0.2185  1.6310
 4905TIP3   OH236205   3.962   6.793   3.827 -0.1934  0.0672  0.1636
 4905TIP3    H136206   3.885   6.848   3.813 -0.2118  0.2568  0.9813
 4905TIP3    H236207   3.999   6.780   3.740  0.5322  2.3967  0.1055
 4906TIP3   OH236208   0.978   5.713   5.410  0.6859  0.7143 -0.0368
 4906TIP3    H136209   0.924   5.693   5.486 -0.7697  0.8920 -0.9896
 4906TIP3    H236210   1.033   5.635   5.398 -0.5552 -0.1803 -0.0408
 4907TIP3   OH236211   1.204   6.813   2.360  0.3472 -0.0637 -0.3758
 4907TIP3    H136212   1.295   6.836   2.376  0.8271 -1.0613 -1.5932
 4907TIP3    H236213   1.197   6.721   2.385 -0.5602  0.2668  0.6018
 4908TIP3   OH236214   3.580   6.559   1.999 -0.2957  0.0558  0.4425
 4908TIP3    H136215   3.498   6.557   2.049 -1.0414 -0.1630 -0.7344
 4908TIP3    H236216   3.551   6.559   1.907  1.0469 -1.0022  0.0043
 4909TIP3   OH236217   3.943   2.861  14.480 -0.4323 -0.2472  0.4852
 4909TIP3    H136218   3.892   2.941  14.467 -0.4273 -0.5555 -1.6585
 4909TIP3    H236219   3.930   2.811  14.399  1.0054 -1.5971  1.0584
 4910TIP3   OH236220   1.568   6.097   0.618 -0.2893 -0.0534  0.3759
 4910TIP3    H136221   1.641   6.086   0.678 -0.3610  2.3671  0.9493
 4910TIP3    H236222   1.606   6.085   0.531  0.2650 -1.3246  0.7867
 4911TIP3   OH236223   6.221   6.771  12.575 -0.1439 -0.7716 -0.5232
 4911TIP3    H136224   6.269   6.780  12.492  1.3035 -1.6692  0.1983
 4911TIP3    H236225   6.191   6.859  12.595 -0.0347 -0.4489 -1.7213
 4912TIP3   OH236226   5.567   2.783  14.243  0.2783  0.1801 -0.3653
 4912TIP3    H136227   5.561   2.730  14.164  0.5886  1.9122 -1.5775
 4912TIP3    H236228   5.490   2.840  14.239  0.8958  1.0506  0.0042
 4913TIP3   OH236229   4.362   0.490   3.778  0.3814 -0.1004  0.1319
 4913TIP3    H136230   4.451   0.505   3.748  0.4575 -0.2583  0.2794
 4913TIP3    H236231   4.352   0.394   3.776  0.3490 -0.1045  0.5081
 4914TIP3   OH236232   0.461   5.404   6.935 -0.0131 -0.5684 -0.2324
 4914TIP3    H136233   0.470   5.429   6.843 -0.9551 -0.5002 -0.3112
 4914TIP3    H236234   0.368   5.414   6.953  0.0933 -1.0703  0.5918
 4915TIP3   OH236235   5.792   6.266   1.236  0.1708 -0.0755 -0.6798
 4915TIP3    H136236   5.833   6.217   1.164  0.4051  1.7211 -1.8082
 4915TIP3    H236237   5.710   6.219   1.254  1.8245 -2.7010  0.4139
 4916TIP3   OH236238   2.918   6.322  12.351  0.1290  0.2697 -0.6818
 4916TIP3    H136239   2.829   6.332  12.386 -0.0475 -0.4580 -0.9234
 4916TIP3    H236240   2.923   6.231  12.322  0.8731  0.3758 -0.9021
 4917TIP3   OH236241   5.120   2.743  10.546  0.0495  0.5823 -0.2289
 4917TIP3    H136242   5.215   2.750  10.556 -0.1296 -0.7043  3.0082
 4917TIP3    H236243   5.089   2.714  10.632 -3.0842 -0.9537 -1.7983
 4918TIP3   OH236244   6.109   4.732  14.860  0.5867 -0.2269  0.1980
 4918TIP3    H136245   6.098   4.706  14.768  0.3923 -0.2869  0.2399
 4918TIP3    H236246   6.135   4.651  14.905  0.1995 -0.3026  0.2851
 4919TIP3   OH236247   1.756   4.584   1.873 -0.4672 -0.3682 -0.3719
 4919TIP3    H136248   1.695   4.541   1.934 -2.6458 -0.1408 -2.2995
 4919TIP3    H236249   1.758   4.675   1.902  0.7051 -0.8275  1.0429
 4920TIP3   OH236250   2.486   3.607  16.569  0.2394  0.4566 -0.1235
 4920TIP3    H136251   2.514   3.634  16.482  1.5049 -2.6737 -0.7458
 4920TIP3    H236252   2.410   3.551  16.553 -0.4063  1.0163  0.9047
 4921TIP3   OH236253   0.377   5.254   0.987  0.7829 -0.2568  0.1921
 4921TIP3    H136254   0.454   5.309   1.001  1.4455 -1.7413  2.5510
 4921TIP3    H236255   0.341   5.240   1.074 -1.1650 -1.0364 -0.7113
 4922TIP3   OH236256   4.693   4.432  10.955  0.3938  0.2949  1.1718
 4922TIP3    H136257   4.692   4.488  10.877 -1.7003 -1.3027  0.0124
 4922TIP3    H236258   4.646   4.483  11.021 -1.8914 -0.2311 -0.0062
 4923TIP3   OH236259   0.505   2.044   0.762  0.4195 -0.2227 -0.1000
 4923TIP3    H136260   0.554   2.059   0.681  0.3952  2.4892  0.3367
 4923TIP3    H236261   0.564   2.074   0.831 -0.6797  0.2059  0.6594
 4924TIP3   OH236262   0.609   3.704  17.026  0.4502 -0.6330 -0.4594
 4924TIP3    H136263   0.684   3.704  17.085 -0.9680 -0.5903  1.3620
 4924TIP3    H236264   0.574   3.793  17.032  0.6257 -0.4499 -1.8392
 4925TIP3   OH236265   1.246   1.725   0.337 -0.2077  0.2056  0.8923
 4925TIP3    H136266   1.277   1.727   0.427 -1.3036  1.6154  1.2541
 4925TIP3    H236267   1.324   1.745   0.285 -0.0615  1.7416  1.6738
 4926TIP3   OH236268   2.037   6.808   2.281 -0.0294  0.3611 -0.0877
 4926TIP3    H136269   2.115   6.774   2.237 -0.0872 -0.8625  0.7227
 4926TIP3    H236270   1.978   6.733   2.285 -0.0174  0.4402  2.0889
 4927TIP3   OH236271   0.574   4.768  14.438 -0.9046  0.7437  0.8028
 4927TIP3    H136272   0.610   4.679  14.437 -0.8798  0.7213  2.2065
 4927TIP3    H236273   0.537   4.780  14.351 -0.4709 -0.4679  0.4421
 4928TIP3   OH236274   4.457   4.330   0.871 -0.8000 -0.1049  0.5250
 4928TIP3    H136275   4.410   4.250   0.895 -2.1411  0.6785  0.5368
 4928TIP3    H236276   4.543   4.299   0.843 -0.5905 -1.3751  2.4935
 4929TIP3   OH236277   3.148   3.707  12.826  0.4775  0.3505 -0.4249
 4929TIP3    H136278   3.076   3.709  12.763 -0.1332 -1.8564  0.1638
 4929TIP3    H236279   3.122   3.768  12.895 -1.6137 -1.5890  0.5669
 4930TIP3   OH236280   1.846   1.514   4.584  0.3868  0.5290 -0.3297
 4930TIP3    H136281   1.852   1.564   4.665 -0.2388 -2.9053  1.9502
 4930TIP3    H236282   1.937   1.507   4.553  0.8398  0.5127  0.9686
 4931TIP3   OH236283   1.918   4.740   4.221  0.6211  0.3949 -0.7755
 4931TIP3    H136284   1.904   4.659   4.171 -2.3194 -0.4373  1.2701
 4931TIP3    H236285   1.864   4.805   4.175 -0.6526  0.0559  0.1982
 4932TIP3   OH236286   2.367   4.231  11.428  0.2918  0.9629  0.0534
 4932TIP3    H136287   2.389   4.139  11.443 -0.0298  1.2747  2.6206
 4932TIP3    H236288   2.407   4.252  11.343  1.6399 -1.1326  0.1411
 4933TIP3   OH236289   0.884   6.083   0.003 -0.6285  0.1306 -0.2794
 4933TIP3    H136290   0.819   6.029   0.048  0.1230 -1.4371 -1.0506
 4933TIP3    H236291   0.941   6.021  -0.042  0.8645  1.5241 -0.3684
 4934TIP3   OH236292   4.811   1.426   4.777  0.2769 -0.8502 -0.4649
 4934TIP3    H136293   4.754   1.390   4.709  0.3799 -2.4274  0.2473
 4934TIP3    H236294   4.831   1.351   4.833  3.9148 -0.6279 -1.2969
 4935TIP3   OH236295   4.183   1.663   5.892  0.6180  0.3540  0.0057
 4935TIP3    H136296   4.208   1.640   5.982  1.5113 -1.3422 -0.6613
 4935TIP3    H236297   4.261   1.645   5.840 -0.3489 -0.0554 -1.3353
 4936TIP3   OH236298   6.062   6.310   2.303 -0.4693 -0.6059 -0.3098
 4936TIP3    H136299   6.065   6.257   2.383 -0.9288 -0.4562 -0.1942
 4936TIP3    H236300   5.982   6.361   2.311  0.0220  0.1729 -0.3879
 4937TIP3   OH236301   2.458   6.043   0.772  0.5550  0.1218  0.6414
 4937TIP3    H136302   2.417   6.008   0.851  1.9947  0.5029  1.5734
 4937TIP3    H236303   2.547   6.067   0.799  1.0223  0.3947 -1.0547
 4938TIP3   OH236304   5.360   3.469   5.504  0.0421  0.0411 -0.4784
 4938TIP3    H136305   5.410   3.440   5.580 -2.5676 -2.8958  0.1941
 4938TIP3    H236306   5.369   3.397   5.441  0.2512  1.4150 -2.0568
 4939TIP3   OH236307   2.114   6.027  16.810  0.2258 -0.3471 -0.2426
 4939TIP3    H136308   2.157   6.104  16.773  1.2635 -1.3478 -1.2013
 4939TIP3    H236309   2.119   5.962  16.739 -1.7467 -0.8939  0.0928
 4940TIP3   OH236310   3.633   0.460   6.130 -0.1780 -0.0321 -0.3558
 4940TIP3    H136311   3.647   0.378   6.178  0.2309  0.5959  0.6166
 4940TIP3    H236312   3.700   0.459   6.062  0.1631 -0.2619 -0.0204
 4941TIP3   OH236313   3.720   4.429  12.351 -0.5124  0.2892 -0.2641
 4941TIP3    H136314   3.699   4.338  12.329 -0.8813  0.9647 -2.9096
 4941TIP3    H236315   3.634   4.472  12.358 -0.3041  0.8407 -0.9872
 4942TIP3   OH236316   1.566   0.025   6.924 -0.4764  0.3151  0.0448
 4942TIP3    H136317   1.584   0.091   6.856  0.3382  0.9499  0.8605
 4942TIP3    H236318   1.606  -0.055   6.890  0.0681  0.6658 -0.1587
 4943TIP3   OH236319   4.439   5.671   2.510 -0.3565 -0.2904 -0.6107
 4943TIP3    H136320   4.357   5.681   2.558 -0.5732 -2.9021 -0.3702
 4943TIP3    H236321   4.493   5.745   2.538 -1.9022  0.3308  0.7462
 4944TIP3   OH236322   2.289   5.555   4.496 -0.0487 -0.2499 -0.6501
 4944TIP3    H136323   2.322   5.572   4.408  3.9341 -2.0355  0.3488
 4944TIP3    H236324   2.335   5.618   4.551  0.1260 -1.3981  0.5532
 4945TIP3   OH236325   0.383   6.790  16.007 -0.2781 -0.7345 -0.1363
 4945TIP3    H136326   0.476   6.773  16.020 -0.2753 -1.1318 -0.6807
 4945TIP3    H236327   0.339   6.715  16.048 -0.3441 -0.8051 -0.3377
 4946TIP3   OH236328   3.698   2.100  16.392  0.5072  0.5941 -0.4051
 4946TIP3    H136329   3.633   2.104  16.322  1.1011 -1.3958 -1.1133
 4946TIP3    H236330   3.714   2.006  16.404  1.9923  1.0016  0.9263
 4947TIP3   OH236331   5.329   1.983   2.516 -0.0623  0.1493 -0.4996
 4947TIP3    H136332   5.296   1.937   2.593  1.1708 -0.7007 -0.4611
 4947TIP3    H236333   5.417   2.011   2.540 -0.2776  1.3159 -1.0299
 4948TIP3   OH236334   2.417   0.302   3.295 -0.3564  0.3971 -0.4736
 4948TIP3    H136335   2.371   0.260   3.367  0.6459  0.6232  0.3138
 4948TIP3    H236336   2.400   0.246   3.220 -0.1842 -0.6644  0.2706
 4949TIP3   OH236337   1.422   5.295  16.919 -0.5839  0.2281  1.0974
 4949TIP3    H136338   1.439   5.207  16.884  1.0930  0.4200  1.3886
 4949TIP3    H236339   1.472   5.299  17.000  2.5075  2.7609 -0.8412
 4950TIP3   OH236340   0.353   5.208   2.034 -0.6072 -0.2263 -0.5743
 4950TIP3    H136341   0.398   5.293   2.036  0.2507 -0.7138  0.9866
 4950TIP3    H236342   0.421   5.144   2.056 -1.4429 -1.2390 -0.9217
 4951TIP3   OH236343   2.869   3.930  11.549  0.2231 -0.6853  0.2557
 4951TIP3    H136344   2.841   3.910  11.459  1.5462 -1.8202  0.0805
 4951TIP3    H236345   2.916   3.852  11.577  0.4914 -0.0215  1.6667
 4952TIP3   OH236346   0.267   2.045   4.818 -0.2073  0.1111  0.3356
 4952TIP3    H136347   0.246   2.021   4.728 -1.1255  0.0004  0.5772
 4952TIP3    H236348   0.301   2.134   4.812  1.4459 -0.5353 -0.3394
 4953TIP3   OH236349   0.989   4.394  15.679  0.1262 -0.3279  0.3488
 4953TIP3    H136350   1.084   4.402  15.672  0.0916  1.9423  2.1024
 4953TIP3    H236351   0.976   4.321  15.741  0.6959 -1.0737 -0.3965
 4954TIP3   OH236352   0.138   1.138  12.182  0.5729  0.0338 -0.3609
 4954TIP3    H136353   0.047   1.147  12.154  0.3575  0.0167  0.3208
 4954TIP3    H236354   0.179   1.222  12.157  0.5261 -0.1953 -1.2191
 4955TIP3   OH236355   2.348   2.831  14.799  0.3295  0.4875 -0.6965
 4955TIP3    H136356   2.345   2.874  14.714  0.5920 -1.2516 -1.6011
 4955TIP3    H236357   2.270   2.776  14.801 -0.3187  1.4379  0.6948
 4956TIP3   OH236358   3.785   3.973   0.542  0.6153  0.1546 -0.0059
 4956TIP3    H136359   3.704   4.023   0.546 -0.1516 -1.1290  0.7229
 4956TIP3    H236360   3.801   3.961   0.449  2.1818  3.9073 -0.3149
 4957TIP3   OH236361   3.980   3.897   3.110  0.3974  0.3305  0.4508
 4957TIP3    H136362   3.956   3.987   3.087  2.4590  1.1735  1.5201
 4957TIP3    H236363   3.897   3.849   3.106 -0.6147  2.1127 -0.8406
 4958TIP3   OH236364   4.251   5.663  13.137  0.4353  0.1607 -0.5696
 4958TIP3    H136365   4.207   5.579  13.129 -0.5607  0.6414 -0.2331
 4958TIP3    H236366   4.298   5.674  13.054  1.3420 -1.1483 -0.2458
 4959TIP3   OH236367   1.719   6.251  14.794 -0.2693 -0.2931  0.1924
 4959TIP3    H136368   1.734   6.173  14.847  1.9966 -1.2902 -1.8107
 4959TIP3    H236369   1.755   6.323  14.846  2.0339 -1.2688  0.0141
 4960TIP3   OH236370   2.759   1.649   1.722  0.2420  0.4904 -0.1299
 4960TIP3    H136371   2.781   1.627   1.812 -2.6075  0.3337  0.5652
 4960TIP3    H236372   2.712   1.732   1.728  0.7672  0.9023 -1.5569
 4961TIP3   OH236373   2.596   6.768  11.175  0.0559 -0.4146  0.3696
 4961TIP3    H136374   2.665   6.814  11.128  0.6132 -0.1545  1.4284
 4961TIP3    H236375   2.525   6.757  11.111  1.0765 -0.6881 -0.7185
 4962TIP3   OH236376   3.389   2.054   0.005  0.1618 -0.2080 -0.7581
 4962TIP3    H136377   3.331   2.031   0.078 -2.1063  0.5387 -2.2914
 4962TIP3    H236378   3.403   1.971  -0.041  0.2004 -0.3541 -0.4890
 4963TIP3   OH236379   5.516   2.920  11.277 -0.5160 -0.1783 -0.4201
 4963TIP3    H136380   5.594   2.975  11.283 -0.4107 -0.3698 -0.0337
 4963TIP3    H236381   5.531   2.865  11.200 -0.1202 -0.4394 -0.1631
 4964TIP3   OH236382   3.084   5.170  14.349  0.5891  0.4145 -0.2308
 4964TIP3    H136383   3.133   5.162  14.268  0.2397  1.7075 -0.5708
 4964TIP3    H236384   3.147   5.201  14.413  0.0784  2.7966 -0.8399
 4965TIP3   OH236385   6.159   1.349   1.331 -0.4072  0.2084 -0.4907
 4965TIP3    H136386   6.087   1.412   1.329 -0.7749 -0.2263 -1.0981
 4965TIP3    H236387   6.229   1.391   1.281 -0.8407 -0.0845 -1.3557
 4966TIP3   OH236388   2.984   4.539  14.819 -0.0125 -0.1637 -0.0273
 4966TIP3    H136389   2.933   4.458  14.820  0.2781 -0.3479  1.1555
 4966TIP3    H236390   2.942   4.594  14.886 -0.5221  0.8610 -1.1767
 4967TIP3   OH236391   4.893   4.086  13.615 -0.1060  0.2135  0.0342
 4967TIP3    H136392   4.904   4.130  13.699  1.3536 -1.5987  0.8584
 4967TIP3    H236393   4.971   4.031  13.608 -0.1806  0.4148 -2.5616
 4968TIP3   OH236394   2.129   5.265   2.542  0.0542 -0.2122 -0.2121
 4968TIP3    H136395   2.162   5.352   2.567  1.4555 -0.8042  0.0609
 4968TIP3    H236396   2.146   5.259   2.448  0.6566 -0.4785 -0.0898
 4969TIP3   OH236397   2.735   1.467  11.126 -0.2188  0.1424 -0.3404
 4969TIP3    H136398   2.767   1.479  11.036 -1.4653 -1.1737 -0.9673
 4969TIP3    H236399   2.646   1.432  11.116 -0.0238 -0.9079  1.4166
 4970TIP3   OH236400   0.097   1.422  11.367  0.0987  0.2536 -0.3735
 4970TIP3    H136401   0.014   1.375  11.359 -1.0724  1.6055  2.8149
 4970TIP3    H236402   0.156   1.360  11.410  0.3220 -0.2047 -1.3227
 4971TIP3   OH236403   5.689   2.506   3.765  1.1046  0.2451 -0.4639
 4971TIP3    H136404   5.736   2.502   3.682  1.0089 -0.1116 -0.5000
 4971TIP3    H236405   5.746   2.557   3.823  0.3923  2.0354 -1.2795
 4972TIP3   OH236406   5.122   2.704   4.999  0.1660 -0.0804 -0.0611
 4972TIP3    H136407   5.074   2.754   5.065  1.8106  0.7358  0.5402
 4972TIP3    H236408   5.079   2.619   4.996 -0.7368  0.3301  1.1095
 4973TIP3   OH236409   4.189   0.063   2.586  0.2792 -0.8752 -0.1217
 4973TIP3    H136410   4.125   0.133   2.596  1.2864 -0.0884  0.9861
 4973TIP3    H236411   4.220   0.045   2.675  0.9385 -1.8689 -0.5391
 4974TIP3   OH236412   0.860   3.337   2.136 -0.1669  0.2265  0.3645
 4974TIP3    H136413   0.797   3.333   2.064  1.1158 -1.4704 -0.6910
 4974TIP3    H236414   0.820   3.398   2.199 -1.2667  1.7854 -1.7810
 4975TIP3   OH236415   0.304   2.207  11.903 -0.1953 -0.1176  0.1539
 4975TIP3    H136416   0.362   2.132  11.913 -2.0989 -1.7803 -0.8630
 4975TIP3    H236417   0.345   2.260  11.835 -0.2114 -1.6564 -1.0808
 4976TIP3   OH236418   3.545   3.274  14.524  0.1577 -0.3454 -0.2829
 4976TIP3    H136419   3.482   3.263  14.596 -1.0550  0.0486 -1.2729
 4976TIP3    H236420   3.594   3.354  14.547 -1.7888  1.0957 -1.0235
 4977TIP3   OH236421   4.563   5.418   5.919 -0.1279 -0.1236  0.5120
 4977TIP3    H136422   4.565   5.487   5.985 -1.4552 -0.4531  0.9128
 4977TIP3    H236423   4.552   5.337   5.968  2.1555 -0.7314  0.0944
 4978TIP3   OH236424   1.675   6.763   4.962 -0.9257 -0.0582  0.4931
 4978TIP3    H136425   1.767   6.742   4.943 -1.0720  0.1264 -0.4288
 4978TIP3    H236426   1.676   6.856   4.983 -0.8752 -0.0977  0.6663
 4979TIP3   OH236427   0.868   6.788  14.523 -0.1789  0.0539 -0.7396
 4979TIP3    H136428   0.775   6.809  14.532 -0.5172 -1.2895 -1.0844
 4979TIP3    H236429   0.890   6.813  14.433 -0.0851  0.7817 -0.5224
 4980TIP3   OH236430   5.977   4.413  11.858  0.0868 -0.5620 -0.6230
 4980TIP3    H136431   6.019   4.420  11.772  2.3183 -0.0237  0.4730
 4980TIP3    H236432   5.982   4.501  11.895  0.5024 -1.1109  0.6598
 4981TIP3   OH236433   6.753   6.400   5.841  0.3073 -0.1609  0.4094
 4981TIP3    H136434   6.733   6.493   5.848 -1.9687 -0.5700 -0.1631
 4981TIP3    H236435   6.804   6.379   5.919  1.7839  1.7738 -0.0024
 4982TIP3   OH236436   2.441   0.871  15.801  0.0662 -0.4341 -0.7032
 4982TIP3    H136437   2.488   0.875  15.718 -0.7261 -0.5141 -1.1681
 4982TIP3    H236438   2.363   0.819  15.781 -0.9597  0.9144 -0.3345
 4983TIP3   OH236439   6.180   6.483   0.485  0.1799  0.4351  0.8546
 4983TIP3    H136440   6.146   6.513   0.569 -0.9658 -1.3754  1.0654
 4983TIP3    H236441   6.104   6.482   0.427  0.6173  0.0292  0.2808
 4984TIP3   OH236442   4.157   6.314   3.114  0.1573  0.1722  0.3295
 4984TIP3    H136443   4.081   6.336   3.167  0.2353 -0.5548  0.7605
 4984TIP3    H236444   4.128   6.325   3.024  0.1079  1.7067  0.5206
 4985TIP3   OH236445   0.423   5.789  14.413  0.0617  0.3850 -0.7016
 4985TIP3    H136446   0.491   5.741  14.365 -0.7157 -1.2729 -0.1736
 4985TIP3    H236447   0.353   5.802  14.350  0.6705  1.7220 -1.1251
 4986TIP3   OH236448   0.343   3.867  14.865 -0.3399 -0.3075  0.1191
 4986TIP3    H136449   0.435   3.872  14.887 -0.5059  1.3125  0.5548
 4986TIP3    H236450   0.320   3.957  14.839 -1.9360 -0.5335  0.6747
 4987TIP3   OH236451   4.126   1.859  15.557  0.4833  0.3191  0.1345
 4987TIP3    H136452   4.167   1.787  15.510  1.8324  1.0975  0.0841
 4987TIP3    H236453   4.106   1.823  15.643  1.1935 -0.1049  0.1254
 4988TIP3   OH236454   1.197   3.049  16.557  0.0593 -0.2299 -0.0996
 4988TIP3    H136455   1.117   3.055  16.505 -0.1094 -0.8383  0.0809
 4988TIP3    H236456   1.256   3.115  16.520 -0.2870 -0.2365 -0.6548
 4989TIP3   OH236457   4.577   3.878  11.988  0.3468  0.1413 -0.4897
 4989TIP3    H136458   4.577   3.784  11.974  0.5598 -0.1795  1.6242
 4989TIP3    H236459   4.598   3.915  11.901  0.9458 -1.7517 -1.1657
 4990TIP3   OH236460   2.255   0.388   2.873  0.0577  0.0303 -0.8118
 4990TIP3    H136461   2.289   0.308   2.913 -1.5064 -1.6278 -2.7040
 4990TIP3    H236462   2.304   0.458   2.915  0.2651 -1.7952  2.1348
 4991TIP3   OH236463   6.055   2.799   0.640  0.2979  0.1501 -0.3367
 4991TIP3    H136464   6.065   2.772   0.549  1.1721 -1.2998  0.1587
 4991TIP3    H236465   5.993   2.737   0.678 -1.8102  2.0965 -0.4655
 4992TIP3   OH236466   5.481   1.180   2.502 -0.0420 -0.0515  0.6631
 4992TIP3    H136467   5.447   1.199   2.415 -1.7664  0.2589  1.3760
 4992TIP3    H236468   5.572   1.155   2.488 -0.2865  0.0664 -1.2116
 4993TIP3   OH236469   5.932   2.286   2.993 -0.2958 -0.0289  0.1420
 4993TIP3    H136470   5.968   2.368   3.025 -2.5597  0.0064  2.7955
 4993TIP3    H236471   5.838   2.302   2.984 -0.4902 -1.7134 -1.3362
 4994TIP3   OH236472   5.225   6.093  11.157  0.0046  0.0306  0.4501
 4994TIP3    H136473   5.168   6.168  11.139 -0.5394 -0.6777 -0.8507
 4994TIP3    H236474   5.314   6.129  11.155 -0.2988  0.8215  0.8502
 4995TIP3   OH236475   6.061   0.118  13.673  0.4537 -0.0733  0.1043
 4995TIP3    H136476   6.136   0.086  13.622 -1.6452 -0.3049 -2.9191
 4995TIP3    H236477   6.023   0.039  13.712 -0.7436 -0.5041 -1.8866
 4996TIP3   OH236478   4.279   1.798  14.461  0.1481 -0.4505  0.1013
 4996TIP3    H136479   4.226   1.726  14.427  1.4808 -2.9616  3.1163
 4996TIP3    H236480   4.253   1.805  14.553  1.8448  1.2595  0.4642
 4997TIP3   OH236481   1.360   5.790  16.177  0.0973  0.4700  0.4166
 4997TIP3    H136482   1.438   5.838  16.150 -0.0573  0.4504 -0.0867
 4997TIP3    H236483   1.297   5.857  16.202 -0.3623  0.5743 -0.9591
 4998TIP3   OH236484   3.681   6.561   0.990 -0.1526  0.5895 -0.0904
 4998TIP3    H136485   3.739   6.621   0.942  0.4433 -0.8063 -1.1427
 4998TIP3    H236486   3.653   6.612   1.067  1.7342  1.6122 -0.0380
 4999TIP3   OH236487   2.163   0.184  15.487  0.0259  0.2144 -0.2202
 4999TIP3    H136488   2.227   0.168  15.556  1.1102 -2.6910 -1.8134
 4999TIP3    H236489   2.085   0.136  15.516  0.3705 -0.7266 -0.8373
 5000TIP3   OH236490   1.525   0.096  13.780 -0.2111  0.3496  0.1258
 5000TIP3    H136491   1.488   0.048  13.705  3.1115 -0.8116 -0.9015
 5000TIP3    H236492   1.472   0.069  13.854  0.1149 -3.2959 -0.8307
 5001TIP3   OH236493   2.263   2.795   4.567 -0.3795 -0.8120  0.1161
 5001TIP3    H136494   2.196   2.843   4.615 -0.0431 -1.6411  1.4373
 5001TIP3    H236495   2.325   2.862   4.538  0.0602 -0.4253  1.9133
 5002TIP3   OH236496   4.725   6.768   1.930 -0.2689 -0.6990 -0.1960
 5002TIP3    H136497   4.723   6.677   1.900 -2.1393 -1.0011  0.8024
 5002TIP3    H236498   4.674   6.816   1.865  0.2506 -0.4290 -0.4164
 5003TIP3   OH236499   2.110   1.177  14.250 -0.0716 -0.0662 -0.5587
 5003TIP3    H136500   2.114   1.082  14.263  1.9379  0.2136  1.2252
 5003TIP3    H236501   2.030   1.205  14.295 -0.2183 -0.8234 -0.3498
 5004TIP3   OH236502   2.015   2.569  14.060 -0.1572  0.5000 -0.2055
 5004TIP3    H136503   1.946   2.594  13.999  0.6838  0.7792 -1.0674
 5004TIP3    H236504   2.085   2.534  14.004  0.4928  0.4544  0.6212
 5005TIP3   OH236505   4.502   1.208  12.914  0.3220 -0.1299 -0.0177
 5005TIP3    H136506   4.424   1.264  12.905  0.5561  0.7162  2.7372
 5005TIP3    H236507   4.575   1.264  12.888  0.2648 -0.1866 -0.3118
 5006TIP3   OH236508   0.461   1.750  12.855 -0.0146 -0.0214  0.4853
 5006TIP3    H136509   0.377   1.708  12.832  0.4438 -1.1588  0.8696
 5006TIP3    H236510   0.469   1.822  12.792 -1.1724 -0.0426  0.2959
 5007TIP3   OH236511   5.278   1.051   2.905 -0.2890  0.6251 -0.0324
 5007TIP3    H136512   5.339   1.117   2.873  0.8644 -0.2480  0.3373
 5007TIP3    H236513   5.228   1.096   2.974 -0.5548  1.5468 -0.8173
 5008TIP3   OH236514   0.984   0.275  11.940 -0.8546 -0.0464 -0.1658
 5008TIP3    H136515   0.935   0.335  11.996 -2.6791  1.2803 -3.1042
 5008TIP3    H236516   1.062   0.323  11.914 -1.2024  0.2330 -0.6987
 5009TIP3   OH236517   0.416   6.754  15.343  0.1509 -0.3734  0.0691
 5009TIP3    H136518   0.365   6.692  15.396 -1.3817 -0.0259 -0.9571
 5009TIP3    H236519   0.503   6.715  15.338  0.3988 -0.3400  2.9407
 5010TIP3   OH236520   2.321   4.607  11.146 -0.0809  0.1102  0.6159
 5010TIP3    H136521   2.338   4.695  11.112 -0.0749 -0.0968  0.0754
 5010TIP3    H236522   2.262   4.567  11.082 -1.1575  0.1871  1.5561
 5011TIP3   OH236523   0.527   1.241   5.503  0.3036  0.3264  0.2489
 5011TIP3    H136524   0.603   1.227   5.560 -1.3280  0.3864  2.4894
 5011TIP3    H236525   0.464   1.175   5.531 -0.3591  0.0716 -1.8179
 5012TIP3   OH236526   6.135   1.955   5.856 -0.3323  0.2175  0.2567
 5012TIP3    H136527   6.055   1.999   5.886 -0.5634 -0.5306  0.7327
 5012TIP3    H236528   6.137   1.873   5.904  0.5629  0.0912  0.0048
 5013TIP3   OH236529   0.462   2.588  14.226 -0.0125  0.2272  0.0795
 5013TIP3    H136530   0.426   2.668  14.188 -1.6450 -0.9201 -0.8202
 5013TIP3    H236531   0.556   2.593  14.206 -0.2556  1.4379 -0.8411
 5014TIP3   OH236532   0.760   0.773  12.574  0.0374  0.7545 -0.0542
 5014TIP3    H136533   0.745   0.752  12.482  1.5626  1.5572 -0.4993
 5014TIP3    H236534   0.834   0.718  12.599  1.0274  2.1344  0.0755
 5015TIP3   OH236535   5.172   3.422  12.863  0.2326 -0.4791 -0.0534
 5015TIP3    H136536   5.175   3.355  12.795 -1.0464 -1.5987  0.9831
 5015TIP3    H236537   5.220   3.496  12.825  1.9931 -2.0920 -1.0511
 5016TIP3   OH236538   6.473   0.748   5.620 -0.1078 -0.3429 -0.4918
 5016TIP3    H136539   6.434   0.726   5.705 -0.4802  0.9409 -0.3349
 5016TIP3    H236540   6.567   0.751   5.638 -0.1125 -0.9337 -0.3277
 5017TIP3   OH236541   6.764   6.579  11.079 -0.0627 -0.8227  0.0053
 5017TIP3    H136542   6.786   6.620  11.163 -2.7420 -2.1909  1.4176
 5017TIP3    H236543   6.815   6.629  11.015  0.3141  1.7157  2.1715
 5018TIP3   OH236544   3.794   1.718   5.232  0.1743 -0.6372  0.2428
 5018TIP3    H136545   3.759   1.807   5.224  2.2009  0.1339 -0.2641
 5018TIP3    H236546   3.716   1.661   5.225 -1.2072  1.0850  1.1797
 5019TIP3   OH236547   6.377   4.249  14.151 -0.6375 -0.0114  0.1998
 5019TIP3    H136548   6.360   4.265  14.244  1.6205  0.1666  0.6147
 5019TIP3    H236549   6.325   4.315  14.106 -2.0717 -0.3444  1.3043
 5020TIP3   OH236550   0.108   6.250   4.110  0.3844 -0.3658 -0.4777
 5020TIP3    H136551   0.058   6.255   4.192 -1.1215 -2.2177 -1.2332
 5020TIP3    H236552   0.197   6.229   4.138 -0.0870 -0.8667  0.7117
 5021TIP3   OH236553   5.888   4.454  16.209 -0.2753  0.2087 -0.1438
 5021TIP3    H136554   5.937   4.475  16.288 -0.5935  1.7244 -0.3382
 5021TIP3    H236555   5.928   4.509  16.141  0.6197 -1.7485 -1.2621
 5022TIP3   OH236556   3.710   3.985  15.866 -0.6356 -0.1979 -0.3248
 5022TIP3    H136557   3.690   4.041  15.941 -2.6690 -0.8163 -0.3763
 5022TIP3    H236558   3.625   3.962  15.830  0.2604 -1.3535 -1.7656
 5023TIP3   OH236559   3.996   1.915  16.436  0.6739 -0.5886  0.0930
 5023TIP3    H136560   3.907   1.893  16.408  0.5796 -0.5208  0.3339
 5023TIP3    H236561   4.045   1.926  16.355  0.2941  0.0526 -0.0546
 5024TIP3   OH236562   6.037   5.072   1.475  0.3071 -0.0590 -0.1186
 5024TIP3    H136563   6.048   5.156   1.428  1.4486  0.2209  0.6375
 5024TIP3    H236564   6.047   5.095   1.567 -2.6201 -0.4990  0.3612
 5025TIP3   OH236565   1.279   5.680   0.735 -0.4505  0.3245 -0.2306
 5025TIP3    H136566   1.331   5.666   0.814 -1.2864  0.2863  0.3196
 5025TIP3    H236567   1.294   5.772   0.713  1.4010 -0.1716 -1.2190
 5026TIP3   OH236568   4.407   5.443   3.754  0.4508 -0.2422  0.4482
 5026TIP3    H136569   4.414   5.355   3.792  0.2174 -0.1260  0.7698
 5026TIP3    H236570   4.495   5.462   3.722  0.4361 -0.7032  0.1268
 5027TIP3   OH236571   4.746   4.882  14.213  0.3209 -0.8301  0.3880
 5027TIP3    H136572   4.685   4.945  14.251 -1.1450 -2.3585  0.6049
 5027TIP3    H236573   4.712   4.797  14.240  3.8878 -1.6607  2.6039
 5028TIP3   OH236574   5.714   4.415   5.537 -0.4520  1.0012 -0.3350
 5028TIP3    H136575   5.794   4.378   5.501 -0.1346  1.8989 -0.5758
 5028TIP3    H236576   5.739   4.451   5.622 -1.0821 -0.6241  0.5588
 5029TIP3   OH236577   5.809   4.862  16.272  0.2983  0.1832  0.3925
 5029TIP3    H136578   5.770   4.808  16.340 -0.8036 -0.6350 -0.8569
 5029TIP3    H236579   5.903   4.859  16.290  0.2436 -1.9389  0.5311
 5030TIP3   OH236580   4.500   5.554  17.152  0.3275 -0.0565 -0.6087
 5030TIP3    H136581   4.476   5.578  17.242  0.1088  0.5755 -0.8268
 5030TIP3    H236582   4.431   5.495  17.123  0.5125 -0.4337 -0.2894
 5031TIP3   OH236583   0.735   3.006  13.400  0.4658 -0.2549  0.2700
 5031TIP3    H136584   0.641   3.004  13.384  0.4120  1.5490  0.2347
 5031TIP3    H236585   0.748   3.081  13.458  1.5533 -2.2354  2.6897
 5032TIP3   OH236586   2.509   6.752  12.258 -0.2715 -0.0487 -0.0950
 5032TIP3    H136587   2.506   6.837  12.215  0.0401 -0.0504 -0.1212
 5032TIP3    H236588   2.469   6.692  12.196  0.9704 -0.2100 -0.7585
 5033TIP3   OH236589   1.454   4.531   0.610 -0.8217 -0.0452  0.0737
 5033TIP3    H136590   1.448   4.450   0.559 -2.5331  0.1285 -0.0295
 5033TIP3    H236591   1.500   4.592   0.552 -0.7809 -0.5255 -0.4025
 5034TIP3   OH236592   5.725   0.955   2.773  0.5762  0.5081 -0.7116
 5034TIP3    H136593   5.690   1.004   2.848 -0.3600  1.1871 -1.5841
 5034TIP3    H236594   5.662   0.884   2.759  1.7803 -0.8065  0.3706
 5035TIP3   OH236595   1.088   4.971  12.371 -0.5545  0.2090 -0.1943
 5035TIP3    H136596   1.058   5.054  12.333 -1.8748  0.1173  0.5979
 5035TIP3    H236597   1.038   4.963  12.452 -0.5915 -1.4648 -0.3729
 5036TIP3   OH236598   1.314   3.956  16.949 -0.1867 -0.6012  0.2826
 5036TIP3    H136599   1.332   4.049  16.957 -1.0158 -0.3624 -0.5001
 5036TIP3    H236600   1.237   3.951  16.891  1.0554 -1.8447 -1.3065
 5037TIP3   OH236601   1.140   0.752  11.668 -0.0047 -0.7280 -0.6689
 5037TIP3    H136602   1.060   0.777  11.715  0.6753 -0.0215  0.1237
 5037TIP3    H236603   1.167   0.832  11.624  0.0459 -1.0724 -1.2641
 5038TIP3   OH236604   6.202   6.276  16.561 -0.0591  0.0749 -0.4545
 5038TIP3    H136605   6.145   6.244  16.491  1.5428 -0.9864 -1.3185
 5038TIP3    H236606   6.227   6.364  16.532 -0.1941  0.0248 -0.7298
 5039TIP3   OH236607   6.324   3.305  13.319  0.3909  0.6252  0.1899
 5039TIP3    H136608   6.299   3.215  13.297  1.4963  0.9417 -2.5344
 5039TIP3    H236609   6.243   3.345  13.351 -0.6963 -0.6335 -0.9362
 5040TIP3   OH236610   3.408   3.503   3.671 -0.1043  0.2387 -0.2682
 5040TIP3    H136611   3.408   3.417   3.714 -0.1748  0.5291  0.3265
 5040TIP3    H236612   3.317   3.532   3.676  0.1148  0.8040  0.4700
 5041TIP3   OH236613   0.692   4.766   3.165 -0.3180  0.0717 -0.1167
 5041TIP3    H136614   0.668   4.769   3.257  0.1247  0.4036 -0.0071
 5041TIP3    H236615   0.759   4.697   3.160  0.4191  0.7644  0.0003
 5042TIP3   OH236616   5.450   0.086   2.818 -0.2186 -0.2230  0.2220
 5042TIP3    H136617   5.497   0.153   2.769  1.8256 -3.2081 -2.1278
 5042TIP3    H236618   5.360   0.091   2.786  0.0479  0.9415 -0.3645
 5043TIP3   OH236619   6.394   2.468  13.027  0.0210  0.1490  0.2226
 5043TIP3    H136620   6.310   2.474  12.982 -0.9038  0.7641  2.0009
 5043TIP3    H236621   6.455   2.513  12.969 -2.1109  5.4583  1.7996
 5044TIP3   OH236622   0.589   3.794  15.915 -0.1961  0.7655 -0.0285
 5044TIP3    H136623   0.548   3.789  16.002  0.7183  2.3695  0.5246
 5044TIP3    H236624   0.679   3.820  15.933 -0.0829  1.4266 -1.4743
 5045TIP3   OH236625   5.669   4.346  16.460  0.1241 -0.4781 -0.1452
 5045TIP3    H136626   5.591   4.290  16.465  1.0584 -1.6605  1.8012
 5045TIP3    H236627   5.650   4.418  16.519 -0.4219  0.4611 -1.4395
 5046TIP3   OH236628   5.334   1.020  13.898 -0.2245  1.0310  0.0701
 5046TIP3    H136629   5.416   0.982  13.867 -1.6745 -0.7674 -1.6550
 5046TIP3    H236630   5.358   1.066  13.978  2.0986 -1.1785  0.6998
 5047TIP3   OH236631   1.479   3.692   5.739 -0.2440 -0.2262  0.2746
 5047TIP3    H136632   1.550   3.751   5.765 -1.2880  1.5047 -0.7272
 5047TIP3    H236633   1.437   3.669   5.822 -1.3867  2.4824  0.5124
 5048TIP3   OH236634   6.471   2.623  15.124  0.3332 -0.3065  0.6695
 5048TIP3    H136635   6.387   2.626  15.078  1.5112 -2.8955 -1.8349
 5048TIP3    H236636   6.519   2.699  15.092 -0.6081  0.5455  1.2477
 5049TIP3   OH236637   4.260   5.935  13.418 -0.1995  0.5290  0.3672
 5049TIP3    H136638   4.294   6.007  13.365 -0.1495 -0.8539 -1.5420
 5049TIP3    H236639   4.175   5.914  13.378 -0.2344 -0.4268  0.9172
 5050TIP3   OH236640   5.196   4.416  14.094 -0.3550  0.2923 -1.0447
 5050TIP3    H136641   5.169   4.380  14.179 -1.8982  0.4051 -1.4717
 5050TIP3    H236642   5.182   4.345  14.033 -0.6127  0.6627 -1.4210
 5051TIP3   OH236643   0.671   6.537   5.807 -0.9500  0.1155  0.7841
 5051TIP3    H136644   0.601   6.603   5.802  0.0706  1.1025 -1.1457
 5051TIP3    H236645   0.748   6.587   5.836 -0.6804 -0.6466  1.3693
 5052TIP3   OH236646   0.907   4.987   3.873 -0.1099  0.6125  0.0047
 5052TIP3    H136647   0.880   4.950   3.789  0.3088  2.1393 -0.8213
 5052TIP3    H236648   0.995   4.954   3.887 -0.8735 -1.1510  0.7613
 5053TIP3   OH236649   1.942   5.240  16.789  0.1236 -0.1091 -0.1703
 5053TIP3    H136650   1.918   5.296  16.715 -1.2294  0.9874  1.0878
 5053TIP3    H236651   1.859   5.217  16.830  0.8027 -1.5355  0.4399
 5054TIP3   OH236652   1.865   0.559  14.824 -0.0688  0.0343 -0.5646
 5054TIP3    H136653   1.957   0.550  14.798 -0.0174 -2.0305  0.2759
 5054TIP3    H236654   1.840   0.472  14.856 -2.5283  0.3855 -1.4362
 5055TIP3   OH236655   6.435   2.135  16.650  0.2297 -0.1015  0.1684
 5055TIP3    H136656   6.348   2.161  16.620  0.8738  1.9326 -0.0685
 5055TIP3    H236657   6.488   2.215  16.641  2.4736 -1.6627 -1.1003
 5056TIP3   OH236658   0.380   2.672  16.781 -0.7653 -0.1815 -0.2369
 5056TIP3    H136659   0.390   2.664  16.876 -2.4596 -0.5939 -0.0721
 5056TIP3    H236660   0.373   2.766  16.766  2.5706  0.1141 -0.3245
 5057TIP3   OH236661   5.231   3.271  14.484  0.3286  0.2667  0.4232
 5057TIP3    H136662   5.193   3.251  14.570 -0.8268  0.3792 -0.0583
 5057TIP3    H236663   5.324   3.254  14.495 -0.2567 -3.1827  0.6997
 5058TIP3   OH236664   3.421   1.181   4.915  0.1413  0.1858 -0.1506
 5058TIP3    H136665   3.416   1.186   5.010 -0.2876 -0.8510 -0.1171
 5058TIP3    H236666   3.446   1.091   4.897 -2.7723 -0.4786 -1.1339
 5059TIP3   OH236667   2.028   3.220  12.020  0.0210 -0.0996  0.2017
 5059TIP3    H136668   1.940   3.257  12.021  0.7770  1.7023  1.4185
 5059TIP3    H236669   2.078   3.274  12.081  2.4075 -0.0641 -1.7076
 5060TIP3   OH236670   3.765   5.012  12.245 -0.2304  0.0698  0.2708
 5060TIP3    H136671   3.744   5.081  12.181 -0.7685  0.8583  1.2723
 5060TIP3    H236672   3.845   4.972  12.212 -0.3813  0.6224 -0.7841
 5061TIP3   OH236673   3.606   3.420  13.421 -0.0455 -0.1366 -0.2514
 5061TIP3    H136674   3.523   3.391  13.459 -0.1039  1.1428  0.6406
 5061TIP3    H236675   3.617   3.365  13.344 -1.0960 -1.1877  0.3151
 5062TIP3   OH236676   6.432   5.375  16.615 -0.5654  0.3129 -0.1099
 5062TIP3    H136677   6.456   5.465  16.598 -2.6324  0.9915  0.4226
 5062TIP3    H236678   6.464   5.358  16.704  3.1204 -0.7108 -1.5295
 5063TIP3   OH236679   5.029   2.334  15.299  0.2630 -0.3757 -0.5817
 5063TIP3    H136680   5.059   2.307  15.386 -1.6251  0.7336  0.4431
 5063TIP3    H236681   5.106   2.374  15.259  0.7643  0.4134  1.1379
 5064TIP3   OH236682   0.401   2.751  15.628  0.3117  0.6296  0.1705
 5064TIP3    H136683   0.414   2.701  15.709  1.7611 -0.4377 -0.6832
 5064TIP3    H236684   0.463   2.824  15.635  2.2551 -0.8591 -1.0529
 5065TIP3   OH236685   3.058   5.143  15.021 -0.4778  0.0006 -0.2021
 5065TIP3    H136686   3.132   5.202  15.034 -1.5148  0.9804  1.4008
 5065TIP3    H236687   3.068   5.077  15.089 -0.0390 -0.9624 -1.1860
 5066TIP3   OH236688   3.640   6.701  15.095  0.5106 -0.5292 -0.8001
 5066TIP3    H136689   3.654   6.795  15.083 -2.1329  0.1569  1.0581
 5066TIP3    H236690   3.549   6.687  15.066  0.1674 -2.1145  0.9779
 5067TIP3   OH236691   4.958   5.490   1.257 -0.1215 -0.1035 -0.4319
 5067TIP3    H136692   5.042   5.527   1.229 -0.6478  1.2545 -0.2630
 5067TIP3    H236693   4.955   5.507   1.352  0.8344 -3.0396  0.1901
 5068TIP3   OH236694   4.545   4.911  12.647  0.3898 -0.3107 -0.2118
 5068TIP3    H136695   4.488   4.861  12.705 -0.0565 -2.9288 -2.7865
 5068TIP3    H236696   4.625   4.858  12.640  0.6528  0.2391 -1.5220
 5069TIP3   OH236697   4.780   0.243   3.536 -0.4715  0.2735 -0.0592
 5069TIP3    H136698   4.731   0.160   3.533  1.7332 -1.0838  0.3199
 5069TIP3    H236699   4.741   0.291   3.609 -1.2701 -0.7555  0.2050
 5070TIP3   OH236700   3.518   3.939   0.333  0.7690  0.5244  0.2630
 5070TIP3    H136701   3.567   3.858   0.321 -0.1531  0.0433 -0.3569
 5070TIP3    H236702   3.463   3.946   0.255 -1.1637  0.3157  1.5527
 5071TIP3   OH236703   5.074   4.331  16.257  0.4845 -0.1675 -0.1560
 5071TIP3    H136704   5.097   4.410  16.207  0.0977 -0.5721 -0.9884
 5071TIP3    H236705   5.001   4.358  16.312  0.9986  0.3207  0.2876
 5072TIP3   OH236706   5.772   2.211   3.380 -0.3974 -0.3689 -0.2518
 5072TIP3    H136707   5.832   2.178   3.313  0.3488 -1.3138  0.8666
 5072TIP3    H236708   5.690   2.226   3.332  0.1518 -0.9433 -1.4044
 5073TIP3   OH236709   0.481   4.287   4.182  0.1857  0.9481  0.3714
 5073TIP3    H136710   0.577   4.291   4.182  0.2024  0.6427 -0.3855
 5073TIP3    H236711   0.459   4.237   4.103 -0.5933  0.9231  0.5998
 5074TIP3   OH236712   2.484   6.329   2.781  0.1948 -0.4534  0.4574
 5074TIP3    H136713   2.518   6.418   2.781  0.7462 -0.6541  1.0578
 5074TIP3    H236714   2.500   6.297   2.692 -0.9812  0.3967 -0.0734
 5075TIP3   OH236715   5.470   5.066   1.758  0.6546 -0.3156 -0.0266
 5075TIP3    H136716   5.425   5.121   1.694 -3.5148 -3.8612 -0.3912
 5075TIP3    H236717   5.449   5.105   1.843  0.1055  0.2726 -0.4307
 5076TIP3   OH236718   5.043   2.435  10.118 -0.2235  0.2816  0.0707
 5076TIP3    H136719   5.088   2.487  10.051  0.3857 -1.1636 -0.6637
 5076TIP3    H236720   5.097   2.445  10.197  0.3330  0.1389 -0.2854
 5077TIP3   OH236721   0.672   4.049   2.544  0.2249  0.5520  0.5350
 5077TIP3    H136722   0.614   4.112   2.501  0.7391  0.8091  0.2147
 5077TIP3    H236723   0.743   4.036   2.481  0.8706  0.7674  1.2153
 5078TIP3   OH236724   4.430   3.108  11.751 -0.1291  0.3239  0.2287
 5078TIP3    H136725   4.393   3.042  11.692  1.9599 -0.0447 -0.7035
 5078TIP3    H236726   4.502   3.064  11.795 -0.2695  1.2742  1.4342
 5079TIP3   OH236727   6.504   6.673  11.064 -0.2438 -0.5874 -0.1142
 5079TIP3    H136728   6.598   6.670  11.082 -0.0422  1.6736 -0.6304
 5079TIP3    H236729   6.498   6.682  10.969 -0.7675  4.1224  0.2518
 5080TIP3   OH236730   6.630   3.899  16.420  0.4674  0.7073 -0.2834
 5080TIP3    H136731   6.584   3.878  16.339  0.6311  0.1886 -0.2416
 5080TIP3    H236732   6.711   3.848  16.415 -0.2393 -0.5672  0.9210
 5081TIP3   OH236733   2.027   0.500   3.001  0.7864 -0.2023  0.2929
 5081TIP3    H136734   1.963   0.517   2.932 -1.0087 -0.0927  1.9463
 5081TIP3    H236735   2.095   0.448   2.959  0.3371  0.8918 -1.8432
 5082TIP3   OH236736   4.351   2.972   6.516 -0.5271  0.5964  0.1186
 5082TIP3    H136737   4.381   2.890   6.555 -0.0262  0.5035 -0.4548
 5082TIP3    H236738   4.424   3.032   6.526 -0.8725  0.9602  0.4810
 5083TIP3   OH236739   0.206   1.138  11.398 -0.1170  0.6395 -0.0292
 5083TIP3    H136740   0.279   1.078  11.386  0.0615  0.3650  2.1692
 5083TIP3    H236741   0.243   1.212  11.446 -1.0801  0.9040  0.3190
 5084TIP3   OH236742   0.725   2.163  15.780  0.6393  0.2171  0.1804
 5084TIP3    H136743   0.734   2.147  15.686 -0.3386 -1.5864  0.3630
 5084TIP3    H236744   0.791   2.106  15.820 -0.8014 -1.1117  0.7080
 5085TIP3   OH236745   0.296   3.190  16.121 -0.4057  0.0445 -0.0756
 5085TIP3    H136746   0.308   3.116  16.181  2.1410 -0.6506 -1.3652
 5085TIP3    H236747   0.364   3.178  16.055 -0.5285  3.0826 -0.8175
 5086TIP3   OH236748   3.006   4.718   2.304  0.5701  0.0375 -0.1145
 5086TIP3    H136749   2.953   4.796   2.319 -1.0918 -0.6706 -2.0227
 5086TIP3    H236750   2.956   4.647   2.345 -0.1775 -0.6826 -2.2123
 5087TIP3   OH236751   3.532   2.969  11.860  0.6558 -0.3488  0.3386
 5087TIP3    H136752   3.615   3.016  11.860 -0.5564  1.8759  0.7984
 5087TIP3    H236753   3.497   2.981  11.771  0.7147 -1.0646  0.2182
 5088TIP3   OH236754   2.907   5.511  15.611  0.1452  0.0959  0.3341
 5088TIP3    H136755   2.969   5.553  15.671  1.7198 -1.6357 -0.0419
 5088TIP3    H236756   2.823   5.514  15.657  0.7692  1.2715  1.4238
 5089TIP3   OH236757   4.445   1.549   3.877 -0.0847 -0.3219  0.4798
 5089TIP3    H136758   4.438   1.527   3.970  0.4446 -1.4762  0.2467
 5089TIP3    H236759   4.360   1.528   3.841  0.1197 -1.0946  0.4465
 5090TIP3   OH236760   1.808   3.699   5.150  0.2583 -0.2481  0.0669
 5090TIP3    H136761   1.883   3.750   5.119 -0.2654  0.6596  0.2697
 5090TIP3    H236762   1.837   3.663   5.234  0.1612  0.8694  0.5994
 5091TIP3   OH236763   5.432   5.726  14.803 -0.1968  0.2105  0.1403
 5091TIP3    H136764   5.378   5.706  14.727  0.8536 -1.5744 -0.1516
 5091TIP3    H236765   5.371   5.731  14.876 -1.2422  2.1253 -0.8228
 5092TIP3   OH236766   4.124   0.792  15.571  0.1892 -0.1052  0.0788
 5092TIP3    H136767   4.171   0.807  15.653  0.8225 -1.1102 -0.0897
 5092TIP3    H236768   4.100   0.700  15.573 -0.8893  0.1585 -0.3077
 5093TIP3   OH236769   0.568   2.259   4.602 -0.3041 -0.4890 -0.2371
 5093TIP3    H136770   0.622   2.182   4.616  1.0925  0.4983 -0.0756
 5093TIP3    H236771   0.630   2.332   4.601 -1.7966  0.8562  1.5333
 5094TIP3   OH236772   2.460   4.928  16.408  0.3289 -0.4132  0.2502
 5094TIP3    H136773   2.418   4.850  16.445 -2.6633  0.7691 -0.4980
 5094TIP3    H236774   2.510   4.896  16.333 -0.7510 -1.6651  0.0505
 5095TIP3   OH236775   0.921   6.030  15.088 -0.4413 -0.3814 -0.3450
 5095TIP3    H136776   0.944   6.008  14.998 -0.6685  0.9648 -0.7490
 5095TIP3    H236777   0.844   5.977  15.107  1.1771 -2.7091  0.0111
 5096TIP3   OH236778   2.390   2.391   3.697  0.2226 -0.1448  0.1777
 5096TIP3    H136779   2.309   2.424   3.736 -0.0499 -0.2945 -0.2482
 5096TIP3    H236780   2.456   2.402   3.765 -0.0763  0.3316  0.3949
 5097TIP3   OH236781   1.484   5.796  16.682 -0.3540 -0.0444 -0.1684
 5097TIP3    H136782   1.473   5.793  16.587 -0.4473 -3.2885 -0.1303
 5097TIP3    H236783   1.497   5.704  16.707  1.0049  0.8944  2.8044
 5098TIP3   OH236784   6.009   3.545  16.533  0.1192 -0.7805 -0.2281
 5098TIP3    H136785   6.069   3.619  16.534  0.8260 -1.3597  0.2444
 5098TIP3    H236786   5.977   3.542  16.443  0.4602 -0.2116 -0.3735
 5099TIP3   OH236787   5.263   6.357   0.070  0.1371  0.1625  0.5403
 5099TIP3    H136788   5.310   6.315   0.142 -1.1437  0.4218  1.5303
 5099TIP3    H236789   5.277   6.451   0.082  0.8652  0.1625 -0.2126
 5100TIP3   OH236790   0.693   4.396  16.833  0.3707  0.3374  0.3562
 5100TIP3    H136791   0.683   4.414  16.740  0.5788  0.4739  0.3603
 5100TIP3    H236792   0.784   4.366  16.842  0.6845  1.3908  0.6895
 5101TIP3   OH236793   0.173   4.330  10.979  0.0059 -0.2861  0.1811
 5101TIP3    H136794   0.146   4.378  11.057  1.5924  0.8321  0.0720
 5101TIP3    H236795   0.260   4.298  11.000  0.6593  0.4657 -1.3006
 5102TIP3   OH236796   4.884   4.722  16.276  0.3947 -0.0234 -0.2943
 5102TIP3    H136797   4.971   4.705  16.240 -0.3423  0.1511 -2.2214
 5102TIP3    H236798   4.896   4.719  16.371  2.3437 -0.7478 -0.5471
 5103TIP3   OH236799   5.494   0.505  10.637 -0.2758 -0.4431  0.1305
 5103TIP3    H136800   5.577   0.458  10.626  0.4327  0.5942  0.9521
 5103TIP3    H236801   5.518   0.598  10.633 -1.6828 -0.1161 -1.6867
 5104TIP3   OH236802   1.145   1.779  12.135  0.2563 -0.0516  0.0753
 5104TIP3    H136803   1.098   1.733  12.065  2.0361  0.0445 -1.2087
 5104TIP3    H236804   1.127   1.871  12.119  0.3767 -0.0496 -0.0515
 5105TIP3   OH236805   5.272   0.811   0.053 -0.3718 -0.1669  0.0977
 5105TIP3    H136806   5.199   0.849   0.101 -0.8377 -1.3901  0.3619
 5105TIP3    H236807   5.280   0.722   0.087  0.6886 -0.3260 -0.5391
 5106TIP3   OH236808   2.685   1.794  16.738 -0.0026 -0.4631 -0.1473
 5106TIP3    H136809   2.642   1.799  16.653 -0.4368 -1.1767  0.0217
 5106TIP3    H236810   2.732   1.877  16.747 -2.6455  1.0212  0.3705
 5107TIP3   OH236811   6.307   3.993   4.799  0.2815 -0.8272 -0.1494
 5107TIP3    H136812   6.338   3.955   4.881  2.7304  0.4478 -0.4494
 5107TIP3    H236813   6.341   4.082   4.799  1.1813 -1.0982 -2.9691
 5108TIP3   OH236814   4.619   0.166  13.865  0.3290  0.2656 -0.0886
 5108TIP3    H136815   4.622   0.215  13.947  0.4092  0.0340  0.0470
 5108TIP3    H236816   4.709   0.135  13.852  0.3724  0.5111 -0.3928
 5109TIP3   OH236817   5.282   4.714  14.029  0.6714  0.2465  0.4619
 5109TIP3    H136818   5.280   4.791  14.085 -1.4305  2.0562 -1.9330
 5109TIP3    H236819   5.349   4.734  13.963 -2.0518  1.5141 -2.0317
 5110TIP3   OH236820   5.735   4.332   4.107 -0.3768  0.2090 -0.0486
 5110TIP3    H136821   5.657   4.355   4.058  0.3071 -0.7358 -1.6230
 5110TIP3    H236822   5.797   4.403   4.089 -1.7902  2.5019  3.5421
 5111TIP3   OH236823   1.949   5.939  10.258 -0.0387 -0.1725  0.0931
 5111TIP3    H136824   1.969   5.993  10.181  0.0486 -1.2937 -0.6847
 5111TIP3    H236825   1.968   5.995  10.332 -0.6058  1.1038 -0.7086
 5112TIP3   OH236826   1.630   0.131  11.838  0.4260 -0.8822 -0.1584
 5112TIP3    H136827   1.711   0.107  11.883  0.1521 -0.4381  0.5758
 5112TIP3    H236828   1.607   0.053  11.788  2.3268 -0.3860 -1.8850
 5113TIP3   OH236829   4.900   0.827   6.340 -0.1463  0.3161 -0.0476
 5113TIP3    H136830   4.855   0.743   6.351 -1.0082  0.6453 -0.9886
 5113TIP3    H236831   4.992   0.804   6.327  0.4904 -0.2526  4.7412
 5114TIP3   OH236832   1.337   5.020   5.699 -0.0198 -0.2681 -0.5098
 5114TIP3    H136833   1.313   5.092   5.756 -2.6392 -0.3217 -1.4997
 5114TIP3    H236834   1.432   5.027   5.690  0.4145 -0.0528  3.5247
 5115TIP3   OH236835   1.485   2.405  10.996 -0.2161  0.0599 -0.3996
 5115TIP3    H136836   1.567   2.454  11.000 -0.5941  0.5717  2.0974
 5115TIP3    H236837   1.511   2.314  11.010 -0.1505  0.3725  1.7910
 5116TIP3   OH236838   0.237   6.574   1.199  0.4965  0.5087 -0.0860
 5116TIP3    H136839   0.321   6.618   1.182  1.2069 -1.2454 -1.2092
 5116TIP3    H236840   0.247   6.487   1.161 -0.9787 -0.5734  1.9201
 5117TIP3   OH236841   1.169   0.909  16.698  0.1571 -0.8005  0.5738
 5117TIP3    H136842   1.122   0.956  16.767  0.3512  0.0082  0.1703
 5117TIP3    H236843   1.101   0.876  16.640  0.0758  0.3059  0.0278
 5118TIP3   OH236844   1.615   0.863  16.321 -0.4653 -0.2478 -0.4983
 5118TIP3    H136845   1.671   0.789  16.345 -1.5607 -0.7448  0.5413
 5118TIP3    H236846   1.648   0.936  16.375 -1.1732 -0.6840  0.5393
 5119TIP3   OH236847   6.078   0.775   0.648 -0.4623 -0.4887  0.9910
 5119TIP3    H136848   6.068   0.823   0.566  3.1847 -2.4570 -0.7482
 5119TIP3    H236849   6.033   0.691   0.631  0.2918 -0.8943  0.9740
 5120TIP3   OH236850   2.043   4.816   5.969 -0.2069  0.4151 -0.6795
 5120TIP3    H136851   2.108   4.829   6.037 -2.2375  1.4060  1.1119
 5120TIP3    H236852   1.991   4.741   5.999 -1.3714  1.1080 -0.9240
 5121TIP3   OH236853   3.788   0.410   0.007  0.6899  0.2908  0.2406
 5121TIP3    H136854   3.774   0.429   0.100 -0.1935  0.5674  0.0584
 5121TIP3    H236855   3.874   0.447  -0.012  0.4741  1.0735  0.7308
 5122TIP3   OH236856   4.393   0.692   0.686 -0.1733 -0.4805  0.1510
 5122TIP3    H136857   4.443   0.621   0.727  1.4300  0.4360 -0.1491
 5122TIP3    H236858   4.306   0.656   0.673  0.4311 -2.1663  0.6254
 5123TIP3   OH236859   2.525   5.519   2.075  0.5450  0.2116  0.0393
 5123TIP3    H136860   2.535   5.532   1.981  0.7982 -1.0818 -0.1131
 5123TIP3    H236861   2.527   5.424   2.087  0.5846  0.3717  1.3592
 5124TIP3   OH236862   6.086   4.727   0.039  0.0367 -0.3424  0.3940
 5124TIP3    H136863   6.079   4.816   0.005 -0.8567 -0.1063  1.1870
 5124TIP3    H236864   6.135   4.679  -0.029 -1.3273  0.2372 -1.0147
 5125TIP3   OH236865   3.075   1.185   4.567 -0.4270 -0.1166  0.0067
 5125TIP3    H136866   3.061   1.257   4.506  0.8254 -0.9786 -1.3053
 5125TIP3    H236867   3.114   1.227   4.644 -1.8807  0.9446  0.1798
 5126TIP3   OH236868   2.559   0.891  13.735 -0.2688  0.5649  0.6699
 5126TIP3    H136869   2.603   0.972  13.758 -0.0279  0.2605  1.2857
 5126TIP3    H236870   2.476   0.894  13.783  0.2416 -0.0774  1.6020
 5127TIP3   OH236871   6.184   2.958   3.700  0.2800 -0.6768  0.5665
 5127TIP3    H136872   6.258   2.954   3.640  0.9358 -0.8599  1.3751
 5127TIP3    H236873   6.202   2.890   3.765 -0.8692 -1.0865  0.4735
 5128TIP3   OH236874   6.079   2.543  11.161 -0.0895  0.0690 -0.2674
 5128TIP3    H136875   6.044   2.580  11.242 -0.8413  1.5405 -1.2373
 5128TIP3    H236876   6.143   2.608  11.130 -0.7854  0.1593 -1.5443
 5129TIP3   OH236877   6.774   3.915  14.692  0.0805 -0.9141 -0.0111
 5129TIP3    H136878   6.803   3.968  14.617 -1.4957  2.6038  1.7125
 5129TIP3    H236879   6.836   3.937  14.761 -0.6993 -1.2032  0.7773
 5130TIP3   OH236880   2.554   1.183  14.786  0.4164 -0.0129 -0.6929
 5130TIP3    H136881   2.567   1.277  14.780  0.3571 -0.0860 -2.1970
 5130TIP3    H236882   2.637   1.149  14.821  1.5026  0.3138 -2.8658
 5131TIP3   OH236883   5.466   0.169  13.427  0.2339  0.4175  0.8784
 5131TIP3    H136884   5.533   0.138  13.488  2.0214  2.2479 -0.0990
 5131TIP3    H236885   5.471   0.108  13.354 -1.3355 -1.2843  2.1545
 5132TIP3   OH236886   1.256   4.580  11.686 -0.3414  0.0281  0.2327
 5132TIP3    H136887   1.254   4.558  11.593 -1.5629  1.7578 -0.1879
 5132TIP3    H236888   1.193   4.520  11.727  0.8191 -1.3015  0.0952
 5133TIP3   OH236889   2.913   0.468  14.094  0.4240  0.0906  0.5661
 5133TIP3    H136890   2.982   0.461  14.160 -0.5062  0.8944  1.6498
 5133TIP3    H236891   2.836   0.431  14.136  0.3686 -1.6090 -0.9498
 5134TIP3   OH236892   4.171   2.752   0.793 -0.6217  0.3032 -0.4162
 5134TIP3    H136893   4.154   2.728   0.884  2.8812 -2.3567 -0.3746
 5134TIP3    H236894   4.252   2.804   0.797 -0.1346 -0.3105 -2.0625
 5135TIP3   OH236895   5.825   3.036   4.889  0.5493  0.1806  0.4340
 5135TIP3    H136896   5.807   3.106   4.826 -2.1484 -1.9660 -1.2958
 5135TIP3    H236897   5.815   3.078   4.975 -1.3387  1.8971 -0.5756
 5136TIP3   OH236898   4.794   4.893   1.068 -0.6012  0.2616  0.4647
 5136TIP3    H136899   4.798   4.807   1.109 -1.6220 -0.6930 -1.4008
 5136TIP3    H236900   4.705   4.924   1.085 -0.2651  0.9397  1.0551
 5137TIP3   OH236901   5.646   3.204   1.740  0.1156 -0.3702 -0.1014
 5137TIP3    H136902   5.584   3.198   1.813 -0.4441  1.7784 -0.3686
 5137TIP3    H236903   5.595   3.179   1.663 -0.3243  1.0486 -0.2721
 5138TIP3   OH236904   0.132   1.685  11.111 -0.2202  0.1783  0.5738
 5138TIP3    H136905   0.192   1.729  11.051 -1.6705 -0.9300 -1.7553
 5138TIP3    H236906   0.129   1.743  11.188  1.2656  1.9089 -0.6177
 5139TIP3   OH236907   4.120   1.590   4.174  0.0972  0.5753 -0.0992
 5139TIP3    H136908   4.088   1.535   4.245 -1.6027  0.1434 -1.1646
 5139TIP3    H236909   4.116   1.534   4.096  1.0613  1.3150 -0.7067
 5140TIP3   OH236910   6.041   0.725   1.113  0.4858 -0.0653 -0.1143
 5140TIP3    H136911   6.107   0.716   1.043  2.2810  2.3924  1.1755
 5140TIP3    H236912   6.044   0.641   1.159  0.3783 -1.1584 -2.0253
 5141TIP3   OH236913   3.929   4.743   2.883  0.3047  0.0413  0.1888
 5141TIP3    H136914   4.012   4.783   2.910 -0.9078  2.1019  0.9695
 5141TIP3    H236915   3.906   4.789   2.802  0.2601 -1.0173 -0.4078
 5142TIP3   OH236916   0.856   5.971   5.467  0.4378 -0.0119  0.1358
 5142TIP3    H136917   0.914   5.895   5.465  1.0584  0.3654  2.3041
 5142TIP3    H236918   0.911   6.044   5.440 -0.7386 -0.6105 -4.2379
 5143TIP3   OH236919   2.014   5.153   1.577 -0.5056 -0.4862 -0.2608
 5143TIP3    H136920   2.000   5.076   1.633  0.1142  0.6059  1.4365
 5143TIP3    H236921   1.945   5.214   1.603 -0.3771 -0.0635 -0.8935
 5144TIP3   OH236922   2.124   5.320  14.439 -0.1958 -0.0314 -0.5678
 5144TIP3    H136923   2.115   5.269  14.520  0.2815 -0.0719 -0.5375
 5144TIP3    H236924   2.218   5.323  14.424 -0.3861 -1.6346 -2.1633
 5145TIP3   OH236925   3.236   6.128  16.874  0.1342  0.2702  0.0782
 5145TIP3    H136926   3.208   6.095  16.789 -1.0979  0.0872  0.5308
 5145TIP3    H236927   3.155   6.163  16.913  0.7141  0.4903  1.0977
 5146TIP3   OH236928   1.096   5.680  15.245  0.2453  0.1319  0.4579
 5146TIP3    H136929   1.138   5.595  15.229  0.8917  0.0362  2.5596
 5146TIP3    H236930   1.159   5.744  15.212  1.5224 -0.0712  2.4047
 5147TIP3   OH236931   4.858   5.341  14.560  0.5821 -0.1141  0.7011
 5147TIP3    H136932   4.911   5.311  14.486 -0.8622 -0.8190 -0.0696
 5147TIP3    H236933   4.777   5.290  14.554 -0.6706  1.7760  1.1721
 5148TIP3   OH236934   0.063   0.002  16.359 -1.3034 -0.6319  0.1719
 5148TIP3    H136935   0.025  -0.019  16.273 -1.5879 -1.7357  0.5576
 5148TIP3    H236936   0.156  -0.018  16.349 -1.0886  0.5607 -0.2925
 5149TIP3   OH236937   0.996   5.677  16.569 -0.1903  0.5173 -0.2571
 5149TIP3    H136938   0.983   5.721  16.653  0.8179 -0.9880  0.7112
 5149TIP3    H236939   0.953   5.593  16.579 -0.4202  0.4965 -1.3970
 5150TIP3   OH236940   0.622   6.537  14.652 -0.7139 -0.3069  0.6358
 5150TIP3    H136941   0.580   6.596  14.589 -0.0907  2.1463  2.4201
 5150TIP3    H236942   0.594   6.450  14.626 -2.4473  0.8430 -1.5304
 5151TIP3   OH236943   4.707   2.430   4.194  0.0971 -0.3117  0.3962
 5151TIP3    H136944   4.644   2.413   4.125 -0.9612  0.1417  1.2353
 5151TIP3    H236945   4.691   2.520   4.220  1.6077  0.0583  0.1055
 5152TIP3   OH236946   2.179   3.852   5.945 -0.2314  0.4103 -0.3735
 5152TIP3    H136947   2.186   3.914   5.872  0.6094 -0.1568 -0.7954
 5152TIP3    H236948   2.094   3.810   5.933  0.1834 -0.1643 -1.4446
 5153TIP3   OH236949   5.177   5.213   1.712  0.3018 -0.0908  0.0248
 5153TIP3    H136950   5.134   5.148   1.768  0.0169  2.5011  2.9158
 5153TIP3    H236951   5.114   5.226   1.640 -0.6345 -1.3491  0.5804
 5154TIP3   OH236952   1.293   1.356  13.486  0.6920  0.2189 -0.3565
 5154TIP3    H136953   1.276   1.283  13.426  1.1109 -0.3059  0.1582
 5154TIP3    H236954   1.337   1.316  13.560 -1.2338  0.6152  1.0372
 5155TIP3   OH236955   0.567   1.660  13.115  0.2978 -0.0452 -0.6754
 5155TIP3    H136956   0.542   1.688  13.027  0.7276  2.2297 -0.1166
 5155TIP3    H236957   0.626   1.729  13.146 -0.3415 -0.4830  1.6321
 5156TIP3   OH236958   5.513   3.122  14.471 -0.1475 -0.5102  0.0256
 5156TIP3    H136959   5.531   3.055  14.536  0.3047  1.2187  1.7228
 5156TIP3    H236960   5.567   3.197  14.497 -1.3580  0.8485 -1.2394
 5157TIP3   OH236961   4.140   0.219  13.367 -0.5541  0.4615  0.4929
 5157TIP3    H136962   4.201   0.245  13.298  1.6006 -0.9472  1.8302
 5157TIP3    H236963   4.127   0.299  13.418  0.2046  0.7534  0.2373
 5158TIP3   OH236964   3.828   3.981   4.495 -0.6082  0.1676  0.3524
 5158TIP3    H136965   3.826   4.034   4.416 -0.3449  0.3531  0.4707
 5158TIP3    H236966   3.822   3.891   4.463 -1.9181  0.2974  0.2034
 5159TIP3   OH236967   6.247   2.443   6.129 -0.1787 -0.0680  0.1871
 5159TIP3    H136968   6.260   2.349   6.141 -1.2148 -0.4847 -1.7723
 5159TIP3    H236969   6.194   2.451   6.050 -1.4084  2.1095  1.1569
 5160TIP3   OH236970   0.426   1.879  10.585 -0.1686  0.2804 -0.6129
 5160TIP3    H136971   0.479   1.820  10.532  0.1016  0.0518 -0.0993
 5160TIP3    H236972   0.425   1.838  10.672 -1.4757  0.1123 -0.7024
 5161TIP3   OH236973   3.398   1.240   2.766 -0.4280  0.2061  1.0452
 5161TIP3    H136974   3.367   1.155   2.797  0.2939  0.8137  3.5788
 5161TIP3    H236975   3.325   1.299   2.782 -0.3602  0.3691  0.7562
 5162TIP3   OH236976   1.976   6.312  12.479 -0.7793 -0.3381  0.2644
 5162TIP3    H136977   1.919   6.239  12.502 -2.0237  0.8446  1.0428
 5162TIP3    H236978   2.036   6.320  12.553 -0.6593 -0.5498  0.1911
 5163TIP3   OH236979   4.418   1.934   3.406 -0.4940 -0.1551 -1.0025
 5163TIP3    H136980   4.327   1.961   3.418 -0.0754  1.2537 -0.9928
 5163TIP3    H236981   4.460   1.952   3.490 -0.0696 -0.3110 -1.1772
 5164TIP3   OH236982   2.431   6.510   5.032 -0.5879  0.2332  0.5043
 5164TIP3    H136983   2.434   6.521   4.937 -0.0637  0.0952  0.4992
 5164TIP3    H236984   2.400   6.420   5.045  0.2790 -0.0813  0.4407
 5165TIP3   OH236985   0.028   0.139   3.561  0.7763 -0.3226  0.0415
 5165TIP3    H136986  -0.064   0.162   3.543  0.8644 -0.5717 -0.7095
 5165TIP3    H236987   0.062   0.109   3.477  1.9554  1.1339 -0.0104
 5166TIP3   OH236988   3.372   6.767   6.424  0.3890  0.3845 -0.0861
 5166TIP3    H136989   3.288   6.796   6.460 -0.3548 -0.4257 -1.1295
 5166TIP3    H236990   3.377   6.674   6.446  0.8577  0.3509 -0.3223
 5167TIP3   OH236991   0.380   4.093   3.653 -0.4450  0.3199 -0.2172
 5167TIP3    H136992   0.464   4.137   3.665  0.1863 -0.1811 -2.5755
 5167TIP3    H236993   0.393   4.005   3.690  0.3517 -0.0293 -1.2901
 5168TIP3   OH236994   0.101   1.227   4.563 -0.3393  0.0917  0.3884
 5168TIP3    H136995   0.096   1.148   4.617  1.9779  1.2505  2.3916
 5168TIP3    H236996   0.193   1.235   4.540 -0.4820  2.3658  0.4577
 5169TIP3   OH236997   6.600   1.696  16.499 -0.2671 -0.4590  0.1103
 5169TIP3    H136998   6.560   1.782  16.484 -0.2150 -0.6733 -1.2593
 5169TIP3    H236999   6.536   1.649  16.553 -0.9054 -0.0419 -0.2747
 5170TIP3   OH237000   2.060   1.854   4.434 -0.3323  0.3818 -0.5602
 5170TIP3    H137001   2.021   1.868   4.520 -0.7956  1.8156 -0.9897
 5170TIP3    H237002   2.013   1.914   4.376  0.6754  0.1866 -1.6031
 5171TIP3   OH237003   0.906   6.457   2.734 -0.3957  0.7880  0.3095
 5171TIP3    H137004   0.819   6.489   2.760 -0.3298  0.1969  1.2508
 5171TIP3    H237005   0.908   6.366   2.764  1.1540  1.2659  1.7120
 5172TIP3   OH237006   6.612   4.836  17.082  0.3388 -0.2766 -0.3389
 5172TIP3    H137007   6.572   4.808  17.164  0.2882  1.6143  0.3051
 5172TIP3    H237008   6.538   4.860  17.026  0.4325 -0.1524 -0.4098
 5173TIP3   OH237009   4.773   1.025  15.053 -0.1598 -0.2731 -0.2681
 5173TIP3    H137010   4.718   1.085  15.003 -1.2645 -2.5870 -1.9140
 5173TIP3    H237011   4.712   0.975  15.106  0.5292 -1.5081 -0.6252
 5174TIP3   OH237012   0.438   0.347   4.602 -0.2493 -0.5167 -0.4801
 5174TIP3    H137013   0.485   0.320   4.681 -0.8201 -0.4764 -0.1248
 5174TIP3    H237014   0.474   0.433   4.581  0.0287 -0.6027 -0.3704
 5175TIP3   OH237015   4.246   2.279  15.382  0.0052 -0.5591  0.3439
 5175TIP3    H137016   4.266   2.284  15.288  0.9276 -1.0255  0.5070
 5175TIP3    H237017   4.308   2.340  15.422  0.5337 -1.3803  0.7809
 5176TIP3   OH237018   3.000   4.770   5.441 -0.0118 -0.1344 -0.0608
 5176TIP3    H137019   2.944   4.693   5.431  0.1116 -0.2879  0.4407
 5176TIP3    H237020   3.089   4.735   5.437  0.0517  0.0983 -0.7678
 5177TIP3   OH237021   2.536   6.292   6.335  0.4644  0.0698 -0.2713
 5177TIP3    H137022   2.524   6.380   6.299 -2.1781  0.4506  1.3911
 5177TIP3    H237023   2.615   6.297   6.388 -0.1179  1.6775  0.4731
 5178TIP3   OH237024   0.047   0.260  12.826  0.3358  0.1691  0.1901
 5178TIP3    H137025   0.105   0.228  12.895  0.8856  1.4493  0.3171
 5178TIP3    H237026   0.036   0.353  12.844 -0.0532  0.3743 -1.0723
 5179TIP3   OH237027   1.986   3.271  15.398 -0.1805 -0.0255  0.3949
 5179TIP3    H137028   1.946   3.242  15.480 -1.2533  1.8746  0.5741
 5179TIP3    H237029   1.915   3.265  15.333  0.0257  0.6721  0.1034
 5180TIP3   OH237030   1.843   4.874   0.364  0.2630  0.4281  1.1051
 5180TIP3    H137031   1.859   4.966   0.343  0.1553 -0.0080 -1.0437
 5180TIP3    H237032   1.750   4.861   0.349  0.5302 -0.3452  0.0365
 5181TIP3   OH237033   2.392   2.166   0.734  0.6753  0.1252  0.4552
 5181TIP3    H137034   2.431   2.082   0.758  1.8922  0.8503  1.0531
 5181TIP3    H237035   2.378   2.210   0.818 -1.3035 -0.0518  0.2435
 5182TIP3   OH237036   5.413   4.807  13.308 -0.8398  0.2773 -0.5819
 5182TIP3    H137037   5.474   4.860  13.360  1.0448 -3.3864  1.1620
 5182TIP3    H237038   5.449   4.810  13.219  2.7535 -2.6719  0.5942
 5183TIP3   OH237039   1.946   6.708   5.053 -0.3170  0.6557 -0.3600
 5183TIP3    H137040   2.033   6.673   5.072 -0.7473 -1.0510 -1.3708
 5183TIP3    H237041   1.910   6.732   5.139 -0.0754 -1.6219  0.4032
 5184TIP3   OH237042   0.582   3.925   5.045 -0.5384 -0.1494 -0.4633
 5184TIP3    H137043   0.577   4.011   5.087 -0.2043 -0.1123 -0.4948
 5184TIP3    H237044   0.676   3.911   5.032 -0.7121  0.4451 -2.4741
 5185TIP3   OH237045   2.844   5.919   5.304 -0.3656  0.0939 -0.4145
 5185TIP3    H137046   2.852   5.954   5.393  0.0285  1.5562 -0.9977
 5185TIP3    H237047   2.891   5.836   5.305 -0.3070  0.1391  0.7197
 5186TIP3   OH237048   2.057   0.785  15.316  0.3040 -0.1441 -0.0612
 5186TIP3    H137049   2.037   0.866  15.363  0.3942  0.2975 -0.7679
 5186TIP3    H237050   1.994   0.721  15.350  0.4187  0.1464  0.7060
 5187TIP3   OH237051   1.070   2.239  16.213  0.1517  0.2310  0.4082
 5187TIP3    H137052   1.153   2.249  16.259  0.6250 -1.1708 -0.1470
 5187TIP3    H237053   1.056   2.324  16.170  0.6399  0.9076  1.5692
 5188TIP3   OH237054   5.512   6.722  14.158  0.0119 -0.8426  0.2912
 5188TIP3    H137055   5.498   6.715  14.253  1.5495 -1.2501  0.4982
 5188TIP3    H237056   5.595   6.768  14.149  0.1538 -1.3102 -0.8616
 5189TIP3   OH237057   1.863   5.962  15.240 -0.0869  0.2601 -0.0068
 5189TIP3    H137058   1.938   5.904  15.233 -1.1619 -0.9319 -2.0423
 5189TIP3    H237059   1.894   6.036  15.293  1.9904 -1.0157  0.5835
 5190TIP3   OH237060   0.266   2.818  12.072  0.6341  0.0850  0.5432
 5190TIP3    H137061   0.235   2.842  12.159  2.6096  0.2320  1.2415
 5190TIP3    H237062   0.350   2.863  12.063  1.2459 -1.2630 -0.7834
 5191TIP3   OH237063   4.844   0.231  16.699 -0.0649  0.2903 -0.3993
 5191TIP3    H137064   4.939   0.235  16.708 -0.0136 -1.4993 -0.0829
 5191TIP3    H237065   4.817   0.323  16.696  1.6306  0.8176 -0.1104
 5192TIP3   OH237066   2.135   4.706  11.509  0.0532  0.0439 -0.4898
 5192TIP3    H137067   2.191   4.629  11.505 -0.0839 -0.0860 -0.0102
 5192TIP3    H237068   2.102   4.717  11.420 -0.4873 -0.8775 -0.4046
 5193TIP3   OH237069   2.941   2.701  15.201  0.3907  0.3506 -0.1607
 5193TIP3    H137070   2.949   2.625  15.143 -0.2559  1.1291 -1.2858
 5193TIP3    H237071   3.027   2.708  15.243 -0.0225 -1.9432  1.1689
 5194TIP3   OH237072   3.183   4.765  11.253  0.7950 -0.2972  0.2351
 5194TIP3    H137073   3.160   4.820  11.179  0.5854 -0.3594  0.2537
 5194TIP3    H237074   3.101   4.751  11.300  1.0562  0.3900  0.9197
 5195TIP3   OH237075   6.757   0.749   4.489 -0.0228 -0.1458 -0.4748
 5195TIP3    H137076   6.693   0.820   4.490  0.0721 -0.0655 -0.1169
 5195TIP3    H237077   6.789   0.743   4.579 -2.1274 -2.5189  0.1881
 5196TIP3   OH237078   3.911   0.318   4.352  0.6238 -0.2346 -0.4980
 5196TIP3    H137079   3.926   0.392   4.293  0.3746 -0.1824 -0.4998
 5196TIP3    H237080   3.997   0.296   4.387  0.9752 -1.0956 -1.8606
 5197TIP3   OH237081   0.083   6.484  12.306 -0.3878  0.3365  0.2912
 5197TIP3    H137082   0.101   6.577  12.298 -2.3146  0.7351  0.4364
 5197TIP3    H237083   0.049   6.458  12.220  0.1214 -0.2307  0.2561
 5198TIP3   OH237084   3.246   4.723  11.965  0.1130 -0.2335  0.2287
 5198TIP3    H137085   3.205   4.755  12.045 -0.9379  0.9923 -0.7909
 5198TIP3    H237086   3.323   4.674  11.996 -0.0851  0.5128  1.9607
 5199TIP3   OH237087   6.747   6.576  13.495 -0.2362  0.0280 -0.2633
 5199TIP3    H137088   6.803   6.538  13.562 -1.7716 -0.1414  0.9427
 5199TIP3    H237089   6.658   6.549  13.519 -0.9206  0.9004 -1.7227
 5200TIP3   OH237090   1.722   4.074  14.532  0.3385 -0.6939 -0.2969
 5200TIP3    H137091   1.739   4.008  14.599 -1.0553 -1.4881 -0.6863
 5200TIP3    H237092   1.802   4.125  14.527  1.1959 -1.9261  0.5134
 5201TIP3   OH237093   3.469   0.359   0.761 -0.3921  0.1920 -0.0290
 5201TIP3    H137094   3.442   0.293   0.697  1.3076  2.0900 -2.8351
 5201TIP3    H237095   3.552   0.325   0.797 -0.7694 -0.3402  0.3426
 5202TIP3   OH237096   3.231   2.152   5.332 -0.8796  0.7124 -0.0189
 5202TIP3    H137097   3.267   2.138   5.420 -0.4088 -0.8872 -0.4613
 5202TIP3    H237098   3.137   2.167   5.347 -1.2519 -2.0262  0.5677
 5203TIP3   OH237099   1.171   6.725  14.912 -0.5955 -0.4003  0.3625
 5203TIP3    H137100   1.163   6.692  14.823  1.1437 -0.2080  0.1173
 5203TIP3    H237101   1.219   6.807  14.903 -0.9025 -0.0882  1.4270
 5204TIP3   OH237102   0.179   1.840  14.937  0.4479 -0.1862  0.2265
 5204TIP3    H137103   0.233   1.767  14.907 -0.7241 -0.5750 -0.9980
 5204TIP3    H237104   0.158   1.888  14.857  1.9912  2.0519  1.1264
 5205TIP3   OH237105   0.005   1.931   5.875  0.3054  0.0562  0.5152
 5205TIP3    H137106  -0.063   1.997   5.860 -0.5712 -1.0190 -0.2801
 5205TIP3    H237107   0.060   1.936   5.797 -0.6982 -1.2575 -0.2990
 5206TIP3   OH237108   1.028   5.599  11.979 -0.0503 -0.2963  0.1214
 5206TIP3    H137109   1.102   5.555  12.022 -1.3171 -1.0535  1.5865
 5206TIP3    H237110   0.987   5.531  11.926  1.2661  0.5383 -2.0090
 5207TIP3   OH237111   4.829   4.171   3.777 -0.2281 -0.3485  0.5062
 5207TIP3    H137112   4.772   4.119   3.721 -0.4486  0.2735  0.1495
 5207TIP3    H237113   4.841   4.253   3.730 -0.4861  0.2150  1.4019
 5208TIP3   OH237114   6.472   3.206  12.195 -0.1044  0.0101 -0.6035
 5208TIP3    H137115   6.456   3.299  12.182 -1.1789  0.1729  1.6579
 5208TIP3    H237116   6.386   3.169  12.217  0.5220 -1.2956 -0.2754
 5209TIP3   OH237117   0.113   6.053  14.488  0.2211  0.2351  0.7201
 5209TIP3    H137118   0.044   5.996  14.454  0.7745 -0.4995  0.7858
 5209TIP3    H237119   0.091   6.140  14.457 -1.0911  0.1168  1.3061
 5210TIP3   OH237120   3.902   5.559   0.508 -0.5576  0.4132  0.5432
 5210TIP3    H137121   3.953   5.478   0.511 -0.2587  0.6142  0.8267
 5210TIP3    H237122   3.858   5.563   0.593 -0.0566  0.8872  0.7807
 5211TIP3   OH237123   4.478   0.973  12.533  0.1683  0.2798 -0.5392
 5211TIP3    H137124   4.418   1.046  12.549 -1.8348 -1.4493  0.1158
 5211TIP3    H237125   4.520   0.958  12.618 -0.6389 -0.3550 -0.2408
 5212TIP3   OH237126   0.325   1.511   5.355  0.0668 -0.3930  0.6795
 5212TIP3    H137127   0.260   1.555   5.301 -1.6648 -1.6322  1.6981
 5212TIP3    H237128   0.274   1.450   5.409  1.9483 -0.6068  2.2782
 5213TIP3   OH237129   5.124   4.218  13.138 -0.2908  0.2040 -0.6593
 5213TIP3    H137130   5.071   4.143  13.167 -1.1292  0.0058 -2.6325
 5213TIP3    H237131   5.214   4.184  13.135 -0.0939  0.3497  2.0458
 5214TIP3   OH237132   1.016   5.310  15.126  0.9162 -0.0870  0.2206
 5214TIP3    H137133   1.063   5.236  15.165  0.6630  0.2020  1.0761
 5214TIP3    H237134   1.082   5.379  15.120  1.2404 -0.4877 -0.8934
 5215TIP3   OH237135   1.525   2.586   3.905  0.2856  0.1880  0.2243
 5215TIP3    H137136   1.512   2.513   3.844 -2.8351  1.9246 -1.3417
 5215TIP3    H237137   1.508   2.548   3.991 -0.5870 -1.1453 -0.5047
 5216TIP3   OH237138   3.288   3.200  14.982  0.2020  0.7860 -0.0639
 5216TIP3    H137139   3.287   3.233  14.893 -2.6215  0.2722 -0.2726
 5216TIP3    H237140   3.230   3.258  15.031  0.5048  0.1556  1.0821
 5217TIP3   OH237141   2.872   3.976   4.005 -0.7709 -0.1113  1.0093
 5217TIP3    H137142   2.886   4.059   3.959  1.9426 -0.6079  0.8589
 5217TIP3    H237143   2.960   3.947   4.028 -1.6704 -3.1207  0.7937
 5218TIP3   OH237144   3.301   1.557  16.392 -0.0529 -0.1188  0.0659
 5218TIP3    H137145   3.328   1.616  16.463 -1.2990  0.4225  0.0981
 5218TIP3    H237146   3.301   1.613  16.314  1.0070 -0.6370 -0.3226
 5219TIP3   OH237147   2.938   6.330  14.732  0.5043 -0.7048 -0.4484
 5219TIP3    H137148   2.956   6.412  14.687  0.1217 -1.0913 -1.3226
 5219TIP3    H237149   2.978   6.340  14.819 -0.6346  0.8856 -0.0811
 5220TIP3   OH237150   5.900   3.781   4.712 -0.1851  0.2032  0.0483
 5220TIP3    H137151   5.907   3.738   4.627  0.1524  1.8696 -0.7744
 5220TIP3    H237152   5.950   3.724   4.771  0.2923 -0.5152 -1.0273
 5221TIP3   OH237153   3.247   1.699   4.311  0.1505 -0.3330  0.0430
 5221TIP3    H137154   3.277   1.781   4.350 -0.4230  0.0235 -0.2630
 5221TIP3    H237155   3.320   1.639   4.324  1.6519  0.9530 -2.0576
 5222TIP3   OH237156   3.704   3.410   5.622 -0.2798  0.0292  0.1906
 5222TIP3    H137157   3.624   3.399   5.674 -0.4359  1.0280  0.1545
 5222TIP3    H237158   3.721   3.322   5.587 -0.4400 -0.5611  1.5331
 5223TIP3   OH237159   6.714   5.291  12.291 -0.2254  0.6065 -0.1565
 5223TIP3    H137160   6.762   5.226  12.342  1.3437 -0.2678 -2.6593
 5223TIP3    H237161   6.622   5.272  12.308  0.2427 -1.3025  0.3394
 5224TIP3   OH237162   1.999   3.327   1.204  0.2239  0.1235  0.6549
 5224TIP3    H137163   1.970   3.332   1.113  2.9247  2.0360 -0.1654
 5224TIP3    H237164   2.063   3.256   1.206 -2.0666 -1.9762  1.7762
 5225TIP3   OH237165   4.996   6.802   0.786 -0.4662 -0.0440  0.4510
 5225TIP3    H137166   5.063   6.763   0.842  1.5768  0.7166 -1.3908
 5225TIP3    H237167   4.928   6.832   0.846  0.2656 -1.9167  2.2605
 5226TIP3   OH237168   1.903   0.168   1.081 -0.5723 -0.5040 -0.0620
 5226TIP3    H137169   1.857   0.214   1.011 -0.1254 -0.6366 -0.4482
 5226TIP3    H237170   1.959   0.105   1.035 -1.0485 -1.3107  0.4556
 5227TIP3   OH237171   2.753   3.911  11.814 -0.2415  0.0370  0.2275
 5227TIP3    H137172   2.661   3.937  11.805 -0.9756 -2.5917 -0.1882
 5227TIP3    H237173   2.793   3.933  11.730 -0.8416 -0.1574 -0.1100
 5228TIP3   OH237174   6.357   5.003  12.835 -0.8653  0.8773 -0.0958
 5228TIP3    H137175   6.299   4.928  12.851 -0.4597  0.5003 -0.3788
 5228TIP3    H237176   6.445   4.965  12.836 -0.6016  1.4972  0.6337
 5229TIP3   OH237177   4.896   4.322  12.479 -0.3030 -0.0570  0.2124
 5229TIP3    H137178   4.891   4.281  12.393  0.0391 -2.6248  1.3804
 5229TIP3    H237179   4.987   4.348  12.489 -0.7884  2.2531 -1.0694
 5230TIP3   OH237180   2.278   2.343   1.991 -0.0296  0.9401  0.7084
 5230TIP3    H137181   2.371   2.361   1.978  0.2360 -2.0326 -2.0819
 5230TIP3    H237182   2.269   2.330   2.085  3.1277 -2.4212  0.6610
 5231TIP3   OH237183   4.021   5.154  14.870 -0.1572  0.3426  0.2560
 5231TIP3    H137184   3.969   5.133  14.947  0.5576  1.9485  1.2073
 5231TIP3    H237185   4.086   5.084  14.864 -2.6578 -1.9395 -1.2151
 5232TIP3   OH237186   6.606   0.311   0.422  0.0352  0.0318 -0.4000
 5232TIP3    H137187   6.603   0.311   0.327 -0.9137 -0.4626 -0.3792
 5232TIP3    H237188   6.525   0.356   0.448  0.1953 -0.0036  0.1736
 5233TIP3   OH237189   5.772   6.453   3.628  0.5426  0.0249 -0.1793
 5233TIP3    H137190   5.779   6.364   3.593 -1.0738 -0.7702  1.4029
 5233TIP3    H237191   5.734   6.505   3.557 -2.8315 -1.5778  0.3727
 5234TIP3   OH237192   4.507   5.229   5.730 -0.4468  0.0599  0.2190
 5234TIP3    H137193   4.571   5.171   5.772  0.1891  0.0296 -0.7670
 5234TIP3    H237194   4.541   5.317   5.745  0.0123  0.0273 -0.5828
 5235TIP3   OH237195   4.589   3.493   1.250  0.3813  0.1417  0.5964
 5235TIP3    H137196   4.574   3.418   1.192 -0.9247  1.4825 -0.8403
 5235TIP3    H237197   4.683   3.508   1.245  0.5385 -0.8798  0.2581
 5236TIP3   OH237198   2.166   6.525  14.249 -0.2036  0.5008 -0.3050
 5236TIP3    H137199   2.182   6.618  14.262 -3.5542  0.9855  0.9571
 5236TIP3    H237200   2.131   6.495  14.334 -1.5438 -1.3153 -1.4630
 5237TIP3   OH237201   3.949   3.440   0.205  0.2974  0.1988 -0.1531
 5237TIP3    H137202   4.007   3.455   0.280  1.3750  2.9298 -1.4643
 5237TIP3    H237203   3.938   3.345   0.202  1.1428 -0.0598  2.7524
 5238TIP3   OH237204   0.760   5.789   4.122  0.8089  0.0365 -0.1098
 5238TIP3    H137205   0.790   5.787   4.031  0.7440 -3.3365 -0.1026
 5238TIP3    H237206   0.814   5.724   4.167 -1.0880 -0.3745  1.6365
 5239TIP3   OH237207   4.600   5.742   0.436 -0.5981 -0.3247  0.0928
 5239TIP3    H137208   4.655   5.780   0.368  0.1285 -0.7939  0.4133
 5239TIP3    H237209   4.620   5.793   0.514 -1.6364  0.3921 -0.1068
 5240TIP3   OH237210   3.355   1.128  14.149 -0.2115 -0.0373 -0.6500
 5240TIP3    H137211   3.360   1.223  14.148 -0.6356 -0.0034  0.2454
 5240TIP3    H237212   3.295   1.107  14.220 -1.9044 -0.8969 -2.2648
 5241TIP3   OH237213   6.196   1.371   2.425  0.2272 -0.2052  0.5795
 5241TIP3    H137214   6.127   1.437   2.421 -2.4108 -2.8218  1.6800
 5241TIP3    H237215   6.229   1.367   2.335 -1.2901  0.8276 -0.0498
 5242TIP3   OH237216   6.295   2.224  14.869  0.0332 -0.1437 -0.0098
 5242TIP3    H137217   6.277   2.196  14.959  1.0713 -1.1784 -0.1163
 5242TIP3    H237218   6.209   2.242  14.832 -0.4882 -0.9266  0.7999
 5243TIP3   OH237219   5.046   6.656  14.077 -0.0221  0.0782 -0.7399
 5243TIP3    H137220   5.029   6.612  13.993  0.6709  0.6762 -1.2020
 5243TIP3    H237221   4.961   6.694  14.101 -0.3535 -0.5424 -0.9040
 5244TIP3   OH237222   1.547   1.183   0.633 -0.2519 -0.5167  0.5789
 5244TIP3    H137223   1.492   1.211   0.559  0.7820 -0.0953 -0.0401
 5244TIP3    H237224   1.568   1.263   0.680  2.4086 -0.2530 -0.9892
 5245TIP3   OH237225   0.108   0.996   0.837  0.2502  0.3214 -0.0724
 5245TIP3    H137226   0.143   0.918   0.794 -1.7699 -1.0982  0.7971
 5245TIP3    H237227   0.021   1.008   0.798  0.1977  1.6498  0.4149
 5246TIP3   OH237228   3.829   4.342  14.326  0.1907 -0.3772  0.2393
 5246TIP3    H137229   3.886   4.416  14.304  1.4569 -1.0440  1.1850
 5246TIP3    H237230   3.741   4.377  14.317  0.7632  1.2662  0.6509
 5247TIP3   OH237231   3.293   5.666   5.185 -0.5009  0.7586  0.1365
 5247TIP3    H137232   3.315   5.752   5.220 -1.7617  1.1639 -0.0179
 5247TIP3    H237233   3.373   5.635   5.145  0.3478  1.2698  1.3904
 5248TIP3   OH237234   4.770   2.425   5.975 -0.2788 -0.3822  0.2988
 5248TIP3    H137235   4.760   2.331   5.989  1.2795 -0.6048 -0.0406
 5248TIP3    H237236   4.865   2.439   5.972 -0.5092  0.9826 -1.0830
 5249TIP3   OH237237   4.437   0.013   3.711 -0.2169 -0.1037  0.2651
 5249TIP3    H137238   4.499  -0.057   3.733 -0.7414 -0.4748  0.5891
 5249TIP3    H237239   4.474   0.054   3.633 -1.0817 -2.2847 -1.3622
 5250TIP3   OH237240   5.065   2.044   0.605  0.8742  0.4051  0.3317
 5250TIP3    H137241   5.041   1.955   0.631  1.4822  0.1784  0.1500
 5250TIP3    H237242   5.092   2.035   0.513 -0.0283  0.9597  0.0052
 5251TIP3   OH237243   2.697   2.456   4.241  0.6477 -0.0160  0.4348
 5251TIP3    H137244   2.701   2.515   4.166  1.1350  0.9943  1.2483
 5251TIP3    H237245   2.777   2.472   4.289  1.0610 -1.7683  0.3721
 5252TIP3   OH237246   6.755   1.204   6.020 -0.4753 -0.5254 -0.6403
 5252TIP3    H137247   6.704   1.197   6.100  0.3933 -1.4375 -0.1624
 5252TIP3    H237248   6.691   1.230   5.953 -1.3262 -0.4436  0.1962
 5253TIP3   OH237249   2.256   2.838   1.814  0.4437  0.2188  0.6867
 5253TIP3    H137250   2.246   2.918   1.866 -0.3624  1.2253 -0.9624
 5253TIP3    H237251   2.195   2.850   1.741  0.9262 -1.5527 -0.0188
 5254TIP3   OH237252   3.227   2.453  15.389  0.2280 -0.2534  0.2926
 5254TIP3    H137253   3.238   2.419  15.301  1.3852  3.0296 -0.9203
 5254TIP3    H237254   3.271   2.390  15.446 -0.9862 -2.6613 -1.3974
 5255TIP3   OH237255   0.147   0.166  10.201 -0.2872 -0.1829 -0.1833
 5255TIP3    H137256   0.217   0.140  10.261 -0.5631 -1.2988 -0.3269
 5255TIP3    H237257   0.146   0.262  10.205 -0.5553 -0.2297  1.9297
 5256TIP3   OH237258   4.357   0.242  12.729 -0.3664 -0.1089  0.2282
 5256TIP3    H137259   4.339   0.182  12.802 -2.1072 -0.8888 -0.8077
 5256TIP3    H237260   4.450   0.228  12.709 -0.0021 -0.2497  1.9555
 5257TIP3   OH237261   0.650   6.235   5.323  0.2756 -0.0772  0.0589
 5257TIP3    H137262   0.668   6.147   5.356 -1.6524 -0.3364  0.4586
 5257TIP3    H237263   0.564   6.228   5.281  0.6090  1.3525 -0.8932
 5258TIP3   OH237264   2.509   2.503   1.485 -0.1430 -0.3675 -0.0865
 5258TIP3    H137265   2.501   2.535   1.575 -1.3153 -0.6084 -0.1077
 5258TIP3    H237266   2.516   2.582   1.432 -2.5934 -0.1326 -0.0929
 5259TIP3   OH237267   1.236   4.142  14.050  0.4650  0.3536 -0.7848
 5259TIP3    H137268   1.309   4.201  14.032  1.0759 -0.5011 -1.1590
 5259TIP3    H237269   1.176   4.155  13.977  0.8955  0.0589 -1.1950
 5260TIP3   OH237270   2.789   3.277  15.528 -0.2389 -0.3890  0.3796
 5260TIP3    H137271   2.695   3.292  15.513 -0.0127  0.8233  0.1272
 5260TIP3    H237272   2.815   3.217  15.458 -0.4283  0.7409 -0.6762
 5261TIP3   OH237273   2.846   4.611   2.594 -0.6452 -0.3752 -0.5919
 5261TIP3    H137274   2.895   4.684   2.631  0.3151 -0.8561 -0.8812
 5261TIP3    H237275   2.770   4.651   2.552 -0.9824  0.2976  0.6449
 5262TIP3   OH237276   6.599   4.117  16.172  0.2507 -0.0536 -0.1609
 5262TIP3    H137277   6.567   4.163  16.249  1.0839  0.3211 -0.0341
 5262TIP3    H237278   6.571   4.027  16.184 -0.3711  0.1830  0.1610
 5263TIP3   OH237279   4.838   2.519   2.261  0.1594  0.6978 -0.4115
 5263TIP3    H137280   4.921   2.508   2.307  0.5592 -1.0204 -1.5058
 5263TIP3    H237281   4.791   2.436   2.275 -0.3406  0.7254 -1.8285
 5264TIP3   OH237282   1.595   0.774  11.856 -0.4951 -0.6785  0.2146
 5264TIP3    H137283   1.536   0.848  11.872 -0.1794 -0.3992  0.1008
 5264TIP3    H237284   1.627   0.788  11.766 -0.4784 -0.9802  0.1740
 5265TIP3   OH237285   0.565   4.383  13.086  0.2598  0.4585  0.3798
 5265TIP3    H137286   0.605   4.419  13.007 -3.0765 -0.1488 -1.6897
 5265TIP3    H237287   0.558   4.289  13.067 -1.5726  0.4867  0.9286
 5266TIP3   OH237288   0.136   0.952  11.109 -0.2886  0.1033 -0.0312
 5266TIP3    H137289   0.223   0.980  11.083 -0.2001  0.3791  0.5420
 5266TIP3    H237290   0.128   0.980  11.200  0.4045 -3.1552  1.0992
 5267TIP3   OH237291   4.454   3.947   2.825 -0.2293  0.5529  0.1232
 5267TIP3    H137292   4.451   3.997   2.907 -0.8763  0.1622  0.3423
 5267TIP3    H237293   4.525   3.987   2.775  1.5939 -0.5320  1.7718
 5268TIP3   OH237294   4.075   2.072  15.378 -0.0473  0.2628 -0.7315
 5268TIP3    H137295   4.089   2.011  15.450 -1.1364  1.3226  0.4130
 5268TIP3    H237296   4.151   2.130  15.379 -0.8962  1.3790  0.7197
 5269TIP3   OH237297   6.545   2.920   2.588 -0.1621 -0.1020  0.6200
 5269TIP3    H137298   6.463   2.923   2.539  0.7517  2.5894 -0.8799
 5269TIP3    H237299   6.593   2.998   2.560  1.4040  0.3192  4.1584
 5270TIP3   OH237300   2.930   5.204  15.657 -0.0944 -0.3481  0.7671
 5270TIP3    H137301   2.906   5.296  15.650 -1.5499 -0.8002 -0.5911
 5270TIP3    H237302   2.847   5.157  15.645  0.8408 -1.8548  0.1415
 5271TIP3   OH237303   5.220   0.407  11.395 -0.8835 -0.7613  0.1472
 5271TIP3    H137304   5.146   0.370  11.348  0.3208  1.3216 -3.6231
 5271TIP3    H237305   5.215   0.501  11.378  2.4549 -0.5556 -0.0110
 5272TIP3   OH237306   6.202   2.681   1.756 -0.4841 -0.0146 -0.4488
 5272TIP3    H137307   6.291   2.682   1.792 -0.7733 -0.8851  0.3358
 5272TIP3    H237308   6.181   2.773   1.742 -0.2805  0.3568  1.4890
 5273TIP3   OH237309   0.113   6.705   6.243  0.0931  0.5010  0.1367
 5273TIP3    H137310   0.122   6.799   6.252  1.2080  0.4451 -0.3352
 5273TIP3    H237311   0.050   6.680   6.310  1.4593  1.2720  1.7241
 5274TIP3   OH237312   0.611   4.001  17.087 -0.4882 -0.5327  0.8001
 5274TIP3    H137313   0.600   4.083  17.039 -0.5631 -1.0181 -0.0121
 5274TIP3    H237314   0.686   4.018  17.145  1.2913 -0.7928 -1.3524
 5275TIP3   OH237315   2.431   1.169   1.221 -0.0752 -0.3282  0.0950
 5275TIP3    H137316   2.493   1.240   1.237 -0.1036 -0.0097 -1.1527
 5275TIP3    H237317   2.370   1.204   1.156  0.1832 -1.6329 -0.8800
 5276TIP3   OH237318   2.751   6.099  15.601 -0.0344 -0.0736  0.3622
 5276TIP3    H137319   2.803   6.163  15.552  0.0453 -0.0961  0.4159
 5276TIP3    H237320   2.790   6.099  15.689  0.0724 -0.3142  0.3161
 5277TIP3   OH237321   0.708   1.338   5.908  0.1942 -0.0361 -0.7983
 5277TIP3    H137322   0.800   1.339   5.935  0.1865  4.1179 -0.6225
 5277TIP3    H237323   0.708   1.290   5.825  2.6035  0.4423 -1.1029
 5278TIP3   OH237324   3.086   5.865   6.057  0.0259  0.0167 -0.0847
 5278TIP3    H137325   3.015   5.922   6.085  0.1631  0.1299  0.0271
 5278TIP3    H237326   3.042   5.786   6.026 -0.2624  0.8274 -1.8072
 5279TIP3   OH237327   0.742   3.575   1.030  0.4418 -0.1336 -0.1871
 5279TIP3    H137328   0.655   3.603   1.061  0.9626 -0.6233  1.8223
 5279TIP3    H237329   0.797   3.579   1.109  2.0458 -0.6173 -1.2753
 5280TIP3   OH237330   4.330   0.125   5.986  0.3803  0.3862  0.1278
 5280TIP3    H137331   4.326   0.039   6.029 -0.4331  0.3791  0.0477
 5280TIP3    H237332   4.303   0.186   6.055  0.0252  0.4790 -0.0973
 5281TIP3   OH237333   0.788   1.722  15.415 -0.0391  0.0592 -0.2904
 5281TIP3    H137334   0.762   1.654  15.352 -0.8634  0.2704 -0.1807
 5281TIP3    H237335   0.881   1.706  15.430  0.6015  1.0488 -2.8575
 5282TIP3   OH237336   0.745   6.696  10.792  0.6666 -0.4784 -0.4227
 5282TIP3    H137337   0.835   6.729  10.799  1.0414 -1.4524 -0.5897
 5282TIP3    H237338   0.755   6.608  10.756 -0.5256  0.3971 -3.0063
 5283TIP3   OH237339   5.323   2.778   2.490 -0.5730 -0.9936  0.5122
 5283TIP3    H137340   5.389   2.820   2.435 -0.8026 -0.1039  0.8916
 5283TIP3    H237341   5.367   2.762   2.574 -0.1803 -2.4845  0.0320
 5284TIP3   OH237342   5.057   3.750   3.434 -0.1991 -0.4349 -0.0830
 5284TIP3    H137343   5.100   3.752   3.520 -0.1041 -0.0730 -0.1404
 5284TIP3    H237344   5.008   3.668   3.434  0.3716 -0.7754  0.0394
 5285TIP3   OH237345   4.049   2.041  14.444  0.1974 -0.1164  0.4523
 5285TIP3    H137346   4.060   1.955  14.402  0.5500  0.4448 -0.6317
 5285TIP3    H237347   3.969   2.033  14.496 -0.2622 -0.8276 -0.3512
 5286TIP3   OH237348   1.664   0.280   1.571  0.3837  0.2138 -0.1835
 5286TIP3    H137349   1.644   0.280   1.664 -1.0841 -1.1973 -0.4785
 5286TIP3    H237350   1.731   0.212   1.560  0.9518  0.7535 -0.0867
 5287TIP3   OH237351   3.027   6.078  12.878 -0.5204 -0.3196  0.1333
 5287TIP3    H137352   3.029   6.163  12.923 -0.3519  0.3132 -1.0422
 5287TIP3    H237353   3.049   6.015  12.946  0.3187  0.6759  0.8162
 5288TIP3   OH237354   5.565   3.016  17.277  0.1146  0.0463  0.2102
 5288TIP3    H137355   5.585   2.934  17.233  1.1015  0.9135 -0.9850
 5288TIP3    H237356   5.645   3.038  17.325 -0.0518  0.4513  0.3065
 5289TIP3   OH237357   0.285   1.512  15.847  0.3233  0.8842 -0.3440
 5289TIP3    H137358   0.271   1.514  15.752  1.0393 -0.8184 -0.5028
 5289TIP3    H237359   0.282   1.420  15.870  0.3380  1.2746  1.2786
 5290TIP3   OH237360   4.770   2.949  16.557  0.5644  0.0964 -0.5287
 5290TIP3    H137361   4.845   2.890  16.566  0.2785 -0.5443 -2.1665
 5290TIP3    H237362   4.809   3.036  16.551  1.0842 -0.0800  0.1962
 5291TIP3   OH237363   6.637   1.001   0.850  0.3584 -0.6941 -0.2199
 5291TIP3    H137364   6.555   0.956   0.831 -1.2105  1.9144  0.0772
 5291TIP3    H237365   6.641   1.006   0.946 -0.2360  1.0242 -0.2592
 5292TIP3   OH237366   0.178   6.730  15.123 -0.7128  0.4270  0.2752
 5292TIP3    H137367   0.183   6.815  15.167 -1.6903  0.3813  0.4889
 5292TIP3    H237368   0.225   6.743  15.040 -0.3489  1.0017  0.5689
 5293TIP3   OH237369   1.021   3.394  13.110  0.3577  0.5790 -0.0559
 5293TIP3    H137370   1.108   3.377  13.073 -0.4396 -0.1937 -1.6503
 5293TIP3    H237371   0.990   3.471  13.062  0.6783  1.6604  1.4412
 5294TIP3   OH237372   3.033   1.255   2.315  0.1693 -0.0614 -0.6515
 5294TIP3    H137373   2.994   1.179   2.358 -1.4633  1.3506  0.4204
 5294TIP3    H237374   2.998   1.330   2.363  1.9989  1.3683 -1.4907
 5295TIP3   OH237375   3.917   6.506  12.946 -0.2505 -0.1685  0.1850
 5295TIP3    H137376   3.906   6.477  13.036  0.5103 -0.2280  0.2658
 5295TIP3    H237377   3.831   6.537  12.919 -0.5625 -0.4928  0.8100
 5296TIP3   OH237378   2.957   0.926  11.737 -0.3990 -0.1448  0.1708
 5296TIP3    H137379   2.939   0.957  11.826 -0.2408 -1.9879  0.8597
 5296TIP3    H237380   2.910   0.843  11.730  2.3791 -1.7588 -0.2635
 5297TIP3   OH237381   0.961   1.420   5.731  0.1412 -0.4802  0.1933
 5297TIP3    H137382   1.049   1.401   5.701  1.4578  2.5239  1.9518
 5297TIP3    H237383   0.968   1.418   5.827 -1.4504  0.7772  0.3540
 5298TIP3   OH237384   1.776   3.004   4.351  0.2965 -0.6731 -0.2756
 5298TIP3    H137385   1.730   2.992   4.268  0.4106 -2.0013 -0.1574
 5298TIP3    H237386   1.825   3.086   4.339  1.5135 -1.6228 -2.0835
 5299TIP3   OH237387   3.361   6.726  11.872 -0.1719  0.4161  0.2207
 5299TIP3    H137388   3.345   6.638  11.838  1.7879  0.2963 -0.4533
 5299TIP3    H237389   3.367   6.714  11.967  4.6994 -1.0247 -0.1235
 5300TIP3   OH237390   2.117   3.812  11.992 -0.0316 -0.1786 -0.7883
 5300TIP3    H137391   2.111   3.757  11.914 -3.2499 -0.4778 -0.3987
 5300TIP3    H237392   2.086   3.898  11.963  0.0333  0.0638 -0.1508
 5301TIP3   OH237393   2.281   1.054   0.259 -0.0245 -0.5093 -0.5527
 5301TIP3    H137394   2.351   1.100   0.306 -0.8634  0.2383 -0.0272
 5301TIP3    H237395   2.222   1.123   0.230  0.2637 -0.9919 -2.3833
 5302TIP3   OH237396   1.667   6.765   0.407 -0.0200 -0.3301  0.0133
 5302TIP3    H137397   1.673   6.689   0.465  0.1535  0.3970  0.9594
 5302TIP3    H237398   1.638   6.729   0.323 -2.3004 -1.1388  1.0992
 5303TIP3   OH237399   1.913   4.615   1.388 -0.2773  0.0757 -0.1883
 5303TIP3    H137400   1.911   4.641   1.480 -3.0410  0.5350 -0.3216
 5303TIP3    H237401   1.853   4.540   1.383 -0.6543  0.4584 -1.7305
 5304TIP3   OH237402   2.653   0.745   6.434 -0.1562 -0.9409 -0.4499
 5304TIP3    H137403   2.727   0.716   6.381  1.0605 -1.1942  1.3373
 5304TIP3    H237404   2.655   0.841   6.428  0.2316 -0.9537 -0.5076
 5305TIP3   OH237405   6.002   2.577  15.202  0.0863  0.0925 -0.1386
 5305TIP3    H137406   6.053   2.558  15.281  0.0201  1.3473  0.2120
 5305TIP3    H237407   6.016   2.500  15.146  1.1669 -0.2424  0.5623
 5306TIP3   OH237408   1.256   5.107   2.593  0.0612 -0.0266 -0.1899
 5306TIP3    H137409   1.274   5.164   2.518  4.0135  0.7772  1.2254
 5306TIP3    H237410   1.253   5.019   2.556 -0.0508  0.5606 -1.5880
 5307TIP3   OH237411   0.566   1.131  11.552 -0.2614  0.2066 -0.2577
 5307TIP3    H137412   0.515   1.156  11.629  0.8759  2.2922 -0.1608
 5307TIP3    H237413   0.657   1.132  11.581  0.1365  0.4697 -1.4775
 5308TIP3   OH237414   6.472   4.560  15.781  0.0304 -0.0407  0.2374
 5308TIP3    H137415   6.508   4.546  15.869 -1.1533 -3.3700  0.2613
 5308TIP3    H237416   6.542   4.603  15.733  2.3363 -2.1590  1.5942
 5309TIP3   OH237417   1.745   2.402   4.519  0.3734 -0.0825 -0.0830
 5309TIP3    H137418   1.787   2.488   4.521  1.1828 -0.3654 -2.4886
 5309TIP3    H237419   1.673   2.408   4.582  0.5174  2.3020 -0.1113
 5310TIP3   OH237420   4.731   4.287   0.795 -0.4811  0.1226  0.1054
 5310TIP3    H137421   4.759   4.379   0.797 -0.2448  0.0561 -0.1952
 5310TIP3    H237422   4.801   4.242   0.748 -0.6421 -0.1984  0.1773
 5311TIP3   OH237423   1.293   6.682   3.749  0.4272  0.2019 -0.0182
 5311TIP3    H137424   1.297   6.594   3.786  0.4294  0.6727  1.1192
 5311TIP3    H237425   1.235   6.673   3.674  0.9788 -0.9135 -0.3261
 5312TIP3   OH237426   1.262   4.271  12.835  0.4333 -0.1287 -1.0358
 5312TIP3    H137427   1.239   4.196  12.780 -0.1882  0.3908 -1.4957
 5312TIP3    H237428   1.335   4.240  12.889 -1.6063 -1.9749  0.7848
 5313TIP3   OH237429   1.573   0.498   2.273  0.2485  0.5884 -0.0503
 5313TIP3    H137430   1.663   0.490   2.242 -0.2160  0.5150 -1.4103
 5313TIP3    H237431   1.546   0.585   2.246 -0.2978  0.3768 -0.1903
 5314TIP3   OH237432   5.279   2.433   4.420 -0.4931  0.0143 -0.1492
 5314TIP3    H137433   5.239   2.444   4.506  1.6023 -1.8673  1.1264
 5314TIP3    H237434   5.288   2.338   4.409 -0.3875  0.2480 -2.2826
 5315TIP3   OH237435   2.510   1.171   0.363  0.0031  0.4482 -0.0932
 5315TIP3    H137436   2.568   1.211   0.297 -1.1428  0.7486 -0.9429
 5315TIP3    H237437   2.527   1.220   0.443 -0.1991  1.5653 -0.7268
 5316TIP3   OH237438   0.234   3.069  12.741  0.3869  0.0616 -0.1694
 5316TIP3    H137439   0.197   3.105  12.661 -0.4406 -0.6542 -0.1197
 5316TIP3    H237440   0.326   3.053  12.720 -0.1128 -1.2798 -1.3814
 5317TIP3   OH237441   1.483   0.911  17.279 -0.6128 -0.0977  0.0713
 5317TIP3    H137442   1.569   0.945  17.303 -0.8884  0.0216  0.9159
 5317TIP3    H237443   1.482   0.821  17.313 -0.9302  0.0016  0.3272
 5318TIP3   OH237444   1.298   3.734  12.879  0.4181  0.3801  0.3729
 5318TIP3    H137445   1.243   3.792  12.932 -0.0655 -0.4793  0.8244
 5318TIP3    H237446   1.237   3.688  12.822  0.6002 -0.9728  1.2519
 5319TIP3   OH237447   5.848   0.239   5.984 -0.2433 -0.1423  0.4874
 5319TIP3    H137448   5.939   0.219   5.962  0.3296  0.1831  2.4647
 5319TIP3    H237449   5.837   0.205   6.072 -2.3185 -0.9454 -0.0664
 5320TIP3   OH237450   4.656   0.519  11.073  0.2597 -0.5579  0.0184
 5320TIP3    H137451   4.639   0.612  11.059 -0.0790 -0.6228 -0.0014
 5320TIP3    H237452   4.714   0.516  11.149  0.9966 -0.2794 -0.5237
 5321TIP3   OH237453   5.284   2.175   0.043 -0.5718  0.0414  0.7229
 5321TIP3    H137454   5.309   2.190   0.134 -0.3596  1.6656  0.4211
 5321TIP3    H237455   5.190   2.197   0.040 -0.7952 -0.8972  0.7380
 5322TIP3   OH237456   5.760   5.329   5.682  0.0584  0.7500  0.5967
 5322TIP3    H137457   5.742   5.407   5.631 -0.0743  0.2906 -0.0650
 5322TIP3    H237458   5.708   5.260   5.640 -1.3225  0.7063  2.3087
 5323TIP3   OH237459   6.049   1.936  16.889 -0.7742  0.1743 -0.7036
 5323TIP3    H137460   6.042   2.016  16.837  0.2031  1.1471  0.6082
 5323TIP3    H237461   5.989   1.950  16.962 -0.6041 -0.3014 -0.4704
 5324TIP3   OH237462   4.265   2.509  12.144 -0.2063  0.3289  0.4494
 5324TIP3    H137463   4.323   2.577  12.178  1.1637 -0.8488  0.4839
 5324TIP3    H237464   4.221   2.551  12.070 -0.6025  1.7760  1.4748
 5325TIP3   OH237465   6.457   1.733   3.928 -0.1502 -0.0211 -0.7866
 5325TIP3    H137466   6.544   1.737   3.968 -0.1421  0.2970 -0.8399
 5325TIP3    H237467   6.470   1.680   3.849 -0.1851 -0.7344 -0.3250
 5326TIP3   OH237468   1.176   5.102  16.700  1.1798  0.0653  0.4960
 5326TIP3    H137469   1.222   5.137  16.776  1.7920  0.7221 -0.1743
 5326TIP3    H237470   1.241   5.046  16.656  0.6983 -0.6518  0.6777
 5327TIP3   OH237471   2.758   3.772   0.686 -0.1784  0.2039  0.5842
 5327TIP3    H137472   2.723   3.684   0.695 -1.0936  0.4661 -0.3640
 5327TIP3    H237473   2.833   3.774   0.745 -0.8934 -0.8154  1.5441
 5328TIP3   OH237474   1.743   2.981   4.844  0.3623 -0.8445 -0.4089
 5328TIP3    H137475   1.746   3.042   4.770 -0.9568 -1.0505 -0.6497
 5328TIP3    H237476   1.717   2.898   4.805  1.6445 -1.4452 -0.0019
 5329TIP3   OH237477   5.140   2.305   1.341  0.0230  0.0189  0.3596
 5329TIP3    H137478   5.174   2.304   1.251  0.8746 -0.5548  0.6803
 5329TIP3    H237479   5.109   2.216   1.355  2.4372 -0.6642  1.5762
 5330TIP3   OH237480   5.001   3.110  12.826 -0.5214 -0.0382 -0.2223
 5330TIP3    H137481   5.093   3.134  12.835 -1.2248  1.2694  5.3691
 5330TIP3    H237482   4.994   3.025  12.868 -2.0635  0.4558  0.5727
 5331TIP3   OH237483   5.571   4.197  14.476 -0.2376  0.4814 -0.2852
 5331TIP3    H137484   5.632   4.225  14.544  1.2411 -0.3608 -1.2556
 5331TIP3    H237485   5.577   4.102  14.475 -0.6556  0.4588 -1.2361
 5332TIP3   OH237486   3.380   2.352   4.291  0.3110 -0.9384 -0.1382
 5332TIP3    H137487   3.319   2.394   4.230 -0.2608 -0.6105  0.6538
 5332TIP3    H237488   3.366   2.258   4.278 -2.4665 -0.8898  2.0986
 5333TIP3   OH237489   3.921   1.441  14.881 -0.8118  0.1148  0.4764
 5333TIP3    H137490   3.826   1.446  14.885 -1.0183 -1.9077 -0.9952
 5333TIP3    H237491   3.939   1.379  14.810  1.6120  0.8424  0.3836
 5334TIP3   OH237492   2.960   3.177   2.847 -0.0019 -0.2462  0.8589
 5334TIP3    H137493   2.878   3.134   2.868 -0.4800  1.4014  2.5283
 5334TIP3    H237494   2.935   3.253   2.795  0.5607 -0.2642  0.5492
 5335TIP3   OH237495   0.638   4.485  14.387 -0.3576  0.2274  0.0153
 5335TIP3    H137496   0.565   4.451  14.334 -1.7004  1.0781  1.2588
 5335TIP3    H237497   0.628   4.440  14.471 -0.3471  1.4540  0.6804
 5336TIP3   OH237498   0.341   0.765  13.631  0.2279  0.3026 -0.5667
 5336TIP3    H137499   0.252   0.750  13.598  0.2886  1.1242 -1.1190
 5336TIP3    H237500   0.397   0.719  13.568  0.2831  1.0322 -1.0513
 5337TIP3   OH237501   5.730   4.402  11.087 -0.5017 -0.3836  0.3400
 5337TIP3    H137502   5.817   4.371  11.062 -0.3158 -0.9222  1.5809
 5337TIP3    H237503   5.707   4.467  11.021  0.7595 -0.3949 -0.1226
 5338TIP3   OH237504   1.583   5.294  13.345 -0.0425 -0.2540 -0.1961
 5338TIP3    H137505   1.560   5.239  13.270  0.3525  1.1369 -1.3632
 5338TIP3    H237506   1.593   5.233  13.418  0.3018 -1.7175 -1.4477
 5339TIP3   OH237507   2.500   5.020  15.704 -0.2513  0.3096  0.2316
 5339TIP3    H137508   2.413   5.053  15.725 -0.2268  0.1633  0.5552
 5339TIP3    H237509   2.519   4.954  15.771 -1.2601 -2.0704 -1.7482
 5340TIP3   OH237510   6.173   3.398   0.382 -0.2469 -0.0756  0.1935
 5340TIP3    H137511   6.236   3.383   0.452 -0.7398 -0.9179  0.4676
 5340TIP3    H237512   6.225   3.407   0.303  0.4203  2.1836  0.8351
 5341TIP3   OH237513   0.172   1.814  14.325  0.9079 -0.6114 -0.3890
 5341TIP3    H137514   0.206   1.885  14.271  0.7068 -0.3190 -0.1359
 5341TIP3    H237515   0.085   1.844  14.351  0.8974 -0.8668 -0.1256
 5342TIP3   OH237516   0.417   2.520   4.550 -0.2778 -0.3142  0.3106
 5342TIP3    H137517   0.397   2.613   4.565  0.5443 -0.6010  3.5334
 5342TIP3    H237518   0.511   2.513   4.567 -0.5335 -1.8938  1.1542
 5343TIP3   OH237519   3.185   0.814   2.119  0.0162 -0.2892  0.1520
 5343TIP3    H137520   3.119   0.763   2.071  0.8662  0.3410 -1.7050
 5343TIP3    H237521   3.269   0.776   2.092  0.5976  1.3179 -0.3048
 5344TIP3   OH237522   0.234   2.312   2.583  0.2639  0.3651 -0.5450
 5344TIP3    H137523   0.301   2.323   2.650 -1.3808  2.1009  0.8960
 5344TIP3    H237524   0.248   2.224   2.548  1.9265 -0.0857  1.2035
 5345TIP3   OH237525   3.743   6.383  14.626 -0.3786  0.6657  0.1817
 5345TIP3    H137526   3.812   6.370  14.561 -0.0250 -1.3720  0.9350
 5345TIP3    H237527   3.670   6.329  14.594 -0.2250 -0.2958  1.4333
 5346TIP3   OH237528   1.428   6.406  14.329  0.0833 -0.2829  0.1069
 5346TIP3    H137529   1.450   6.315  14.353 -1.3839 -0.4039  1.0874
 5346TIP3    H237530   1.484   6.459  14.385  0.2182 -0.5830  0.2618
 5347TIP3   OH237531   4.866   1.980  12.372 -0.3801 -0.1594  0.1988
 5347TIP3    H137532   4.806   1.913  12.404  1.8107 -2.1015  0.3844
 5347TIP3    H237533   4.914   2.009  12.450 -0.9231  1.2214  0.0257
 5348TIP3   OH237534   1.001   5.639  14.904 -0.1809  0.0206 -0.0053
 5348TIP3    H137535   0.993   5.731  14.881 -1.8374 -0.4410 -1.3942
 5348TIP3    H237536   1.015   5.639  14.999 -1.1906  1.6517  0.1622
 5349TIP3   OH237537   5.734   0.883   2.334 -0.4652 -0.2344  0.2923
 5349TIP3    H137538   5.723   0.878   2.429 -0.0196  0.0138  0.3589
 5349TIP3    H237539   5.670   0.820   2.299 -2.7396  1.8360  0.5947
 5350TIP3   OH237540   1.709   1.421  15.922  0.1816 -0.6960  0.0048
 5350TIP3    H137541   1.654   1.464  15.856 -2.6126 -3.2731  0.5452
 5350TIP3    H237542   1.693   1.470  16.003 -1.2964 -1.3894  0.1422
 5351TIP3   OH237543   1.017   2.671  11.672 -0.0516  0.4172  0.0717
 5351TIP3    H137544   1.053   2.754  11.640  1.1498 -0.9448 -2.1947
 5351TIP3    H237545   1.074   2.646  11.744  1.0279  0.3945 -0.7744
 5352TIP3   OH237546   0.407   1.126   3.540 -0.0020  0.0872  0.2713
 5352TIP3    H137547   0.335   1.073   3.505 -0.9592  0.5683  1.4825
 5352TIP3    H237548   0.473   1.125   3.470 -0.7189 -1.2601 -0.4188
 5353TIP3   OH237549   4.885   1.443  15.856 -0.2927 -0.2328 -0.0672
 5353TIP3    H137550   4.959   1.423  15.798 -0.6709  1.3977 -1.1497
 5353TIP3    H237551   4.870   1.362  15.904  1.1211 -1.1033 -1.0404
 5354TIP3   OH237552   3.281   5.831   3.507  0.4115  0.0246 -0.0710
 5354TIP3    H137553   3.253   5.853   3.418  0.2885 -1.7214 -0.4780
 5354TIP3    H237554   3.375   5.848   3.507  0.3613  0.3113 -0.4488
 5355TIP3   OH237555   3.189   4.590  12.233 -0.0192  0.0371 -0.1514
 5355TIP3    H137556   3.194   4.595  12.328  0.7326 -1.9384 -0.0520
 5355TIP3    H237557   3.097   4.573  12.215  0.1704 -1.6893  0.3798
 5356TIP3   OH237558   4.226   3.733   1.329 -0.4055  0.4039  0.3908
 5356TIP3    H137559   4.202   3.700   1.243 -0.4165  1.5085 -0.0394
 5356TIP3    H237560   4.155   3.794   1.352 -1.8898 -1.9891  2.4352
 5357TIP3   OH237561   3.816   0.039   6.001  0.3143  0.1861  0.2927
 5357TIP3    H137562   3.778  -0.047   6.020  0.5038 -0.2977 -1.3541
 5357TIP3    H237563   3.891   0.046   6.060 -0.4763 -0.2029  1.3625
 5358TIP3   OH237564   3.784   0.103  12.044 -0.1009 -0.3236 -0.0548
 5358TIP3    H137565   3.722   0.071  12.109 -0.1514 -0.8551 -0.3619
 5358TIP3    H237566   3.800   0.028  11.987  1.2345 -0.3471  0.3263
 5359TIP3   OH237567   2.165   4.649  14.599  0.0890 -0.3698 -0.8121
 5359TIP3    H137568   2.118   4.680  14.521  1.3485  0.5143 -1.2170
 5359TIP3    H237569   2.255   4.677  14.587  0.2179  0.1584  1.1842
 5360TIP3   OH237570   2.224   3.943  11.241  0.2218 -0.7394  0.1345
 5360TIP3    H137571   2.284   3.920  11.171 -0.5496 -0.2229 -0.7044
 5360TIP3    H237572   2.180   4.022  11.211 -0.6176 -0.8978  0.8933
 5361TIP3   OH237573   2.515   1.556   4.917 -0.4165  0.1799 -0.8048
 5361TIP3    H137574   2.460   1.478   4.909  0.3366 -0.4036 -0.4659
 5361TIP3    H237575   2.604   1.522   4.912 -0.0537  0.8072  1.1290
 5362TIP3   OH237576   1.322   2.453   1.270  0.5206 -0.0692 -0.1167
 5362TIP3    H137577   1.251   2.390   1.257 -0.1780  0.8277 -0.6958
 5362TIP3    H237578   1.339   2.488   1.182  1.2852  0.1394  0.1124
 5363TIP3   OH237579   1.088   3.712  16.414 -0.4921 -0.2417  0.1985
 5363TIP3    H137580   1.071   3.799  16.449  0.9634  0.8258 -1.6565
 5363TIP3    H237581   1.169   3.684  16.457 -0.3293 -0.1949 -0.0789
 5364TIP3   OH237582   3.801   0.421   6.393 -0.2179 -0.5118 -0.0034
 5364TIP3    H137583   3.811   0.332   6.427 -2.5540 -1.8655 -2.6287
 5364TIP3    H237584   3.728   0.457   6.443 -1.0575 -1.0640 -0.8279
 5365TIP3   OH237585   4.073   0.712   1.926  0.0872 -0.3073 -0.0519
 5365TIP3    H137586   4.056   0.744   2.015  2.4228 -1.5271  0.8794
 5365TIP3    H237587   3.986   0.695   1.890 -0.9307  0.9386  1.7298
 5366TIP3   OH237588   6.451   1.663   2.276 -0.0548  0.0926  0.1414
 5366TIP3    H137589   6.391   1.686   2.204 -1.9468 -0.9904  1.3217
 5366TIP3    H237590   6.405   1.593   2.323  0.9931  1.0369  2.6174
 5367TIP3   OH237591   4.153   3.189  12.283  0.6335 -0.0338  0.5163
 5367TIP3    H137592   4.152   3.120  12.349  1.1290 -0.2925  0.2559
 5367TIP3    H237593   4.063   3.196  12.253  0.2196  0.7426  1.9080
 5368TIP3   OH237594   5.353   5.090   0.742  0.1072  0.3088  0.5227
 5368TIP3    H137595   5.303   5.155   0.693  1.1322  0.0065 -0.9756
 5368TIP3    H237596   5.402   5.042   0.675  1.5008 -0.1665  1.8397
 5369TIP3   OH237597   0.888   2.326   2.193  0.0641  0.5950 -0.1925
 5369TIP3    H137598   0.898   2.231   2.195 -0.3874  0.5756  1.6170
 5369TIP3    H237599   0.841   2.347   2.274  0.5039  2.3999 -0.3945
 5370TIP3   OH237600   3.526   0.684   5.145  0.2351  0.6714 -0.1757
 5370TIP3    H137601   3.583   0.661   5.072 -0.9622  0.6957 -1.1376
 5370TIP3    H237602   3.441   0.646   5.122  0.5879 -2.1356  2.6937
 5371TIP3   OH237603   2.656   4.924  11.559  0.1832 -0.4312  0.0533
 5371TIP3    H137604   2.730   4.963  11.513 -1.8278  0.6389 -2.3958
 5371TIP3    H237605   2.652   4.970  11.643  1.7099  0.1338 -0.1690
 5372TIP3   OH237606   1.550   3.383   2.943 -0.1825  0.0008  0.6215
 5372TIP3    H137607   1.471   3.422   2.980  0.9301  0.3129  2.7768
 5372TIP3    H237608   1.584   3.449   2.883 -0.6559  0.5659  0.9691
 5373TIP3   OH237609   4.312   4.080   4.294  0.1427  0.4544 -0.2650
 5373TIP3    H137610   4.344   4.169   4.276  1.3627 -0.1497 -1.1999
 5373TIP3    H237611   4.303   4.040   4.207 -0.3184 -0.3603  0.1546
 5374TIP3   OH237612   2.210   3.945  15.920 -0.4587  0.4887 -0.6940
 5374TIP3    H137613   2.210   4.036  15.950  1.0210 -0.1959  1.5069
 5374TIP3    H237614   2.279   3.941  15.854  0.9606  0.5139  0.7509
 5375TIP3   OH237615   1.744   3.935  13.543  0.0123 -0.3394  0.3423
 5375TIP3    H137616   1.692   3.973  13.472 -0.1087 -1.3318 -0.1007
 5375TIP3    H237617   1.813   3.999  13.559 -1.1394  0.8439  0.7110
 5376TIP3   OH237618   4.294   3.148  14.528  0.0298  0.3484 -0.2438
 5376TIP3    H137619   4.282   3.214  14.460 -0.4682  0.3129 -0.1970
 5376TIP3    H237620   4.380   3.110  14.511 -0.6429 -0.5736 -1.6367
 5377TIP3   OH237621   5.087   5.543   6.200 -0.5818 -0.4008 -0.4406
 5377TIP3    H137622   5.073   5.449   6.190 -0.9662 -0.5395  1.2639
 5377TIP3    H237623   5.137   5.552   6.281 -0.3726  0.8553 -0.6843
 5378TIP3   OH237624   2.055   4.349   4.889  0.0835  0.0609 -0.1941
 5378TIP3    H137625   2.150   4.357   4.883  0.0243 -0.0689 -1.4501
 5378TIP3    H237626   2.040   4.285   4.959  1.0045 -2.0991 -1.9181
 5379TIP3   OH237627   1.311   2.045   0.258 -0.1155 -0.1092 -0.7197
 5379TIP3    H137628   1.338   1.960   0.223  1.4823  0.0542  0.0548
 5379TIP3    H237629   1.394   2.093   0.270 -0.8935  1.0434  0.1529
 5380TIP3   OH237630   0.922   1.186  11.028 -0.1017  0.0838 -0.0087
 5380TIP3    H137631   0.985   1.203  10.958  0.2448  1.4674  0.6177
 5380TIP3    H237632   0.976   1.176  11.107 -0.4346 -2.2058 -0.0470
 5381TIP3   OH237633   6.250   2.498   1.541  0.3353  0.5694 -0.0087
 5381TIP3    H137634   6.182   2.537   1.596 -0.7172  1.1992 -1.7109
 5381TIP3    H237635   6.328   2.551   1.558 -0.5020  2.0185 -0.6105
 5382TIP3   OH237636   2.316   0.016   5.418  0.0236 -0.2432  0.2638
 5382TIP3    H137637   2.336   0.065   5.498 -0.0421 -0.7971  0.6207
 5382TIP3    H237638   2.386  -0.048   5.410 -0.3733 -0.6886  0.2881
 5383TIP3   OH237639   1.717   4.760  16.725 -0.4578  0.4411 -0.3960
 5383TIP3    H137640   1.743   4.823  16.657 -1.6241  0.6329 -0.6857
 5383TIP3    H237641   1.675   4.689  16.676 -1.1197  0.4861  0.0974
 5384TIP3   OH237642   4.715   1.504  11.494 -0.2329  0.5422  0.3002
 5384TIP3    H137643   4.765   1.562  11.436  0.5901  1.0969  1.5308
 5384TIP3    H237644   4.780   1.472  11.556 -1.0129 -0.4145  0.6240
 5385TIP3   OH237645   1.520   2.442  12.589 -0.3472 -0.2891 -0.1506
 5385TIP3    H137646   1.432   2.479  12.594  0.1453  0.9485 -0.3172
 5385TIP3    H237647   1.577   2.518  12.574  0.7078 -1.1127 -0.3989
 5386TIP3   OH237648   3.055   3.764   2.689 -0.4695 -0.0604  0.2193
 5386TIP3    H137649   3.051   3.669   2.675  2.2170 -0.0540 -0.7691
 5386TIP3    H237650   3.045   3.801   2.602  1.7152  0.4496  0.1745
 5387TIP3   OH237651   6.443   5.067  16.819 -0.6144 -0.2220  0.2751
 5387TIP3    H137652   6.534   5.091  16.805 -0.9654  0.5123 -0.8732
 5387TIP3    H237653   6.430   4.990  16.762 -1.2247  0.8890 -1.1289
 5388TIP3   OH237654   3.730   2.695  11.703 -0.3497  0.0689 -0.4111
 5388TIP3    H137655   3.697   2.722  11.618  0.2182  2.0719 -0.0100
 5388TIP3    H237656   3.655   2.653  11.745 -0.1635 -2.5728 -2.5354
 5389TIP3   OH237657   2.200   6.152  15.886  0.8147 -0.6219  0.4091
 5389TIP3    H137658   2.110   6.121  15.874  1.0252 -0.7357 -0.9369
 5389TIP3    H237659   2.224   6.190  15.802  2.4992 -1.7837  0.3411
 5390TIP3   OH237660   6.133   3.431  13.487  0.4808  0.3231  0.1609
 5390TIP3    H137661   6.076   3.357  13.509  0.3581  0.1963 -0.5853
 5390TIP3    H237662   6.200   3.430  13.556  1.6369 -1.7186 -0.9270
 5391TIP3   OH237663   4.435   2.558  16.351 -0.5934 -0.4924 -0.1124
 5391TIP3    H137664   4.508   2.615  16.374 -1.2228  0.5916 -0.7702
 5391TIP3    H237665   4.400   2.530  16.436  0.2747 -0.6413  0.2055
 5392TIP3   OH237666   0.326   3.119  15.196 -0.1395  0.0782  0.1739
 5392TIP3    H137667   0.343   3.035  15.239  0.9323  0.1283 -0.1511
 5392TIP3    H237668   0.274   3.096  15.119  1.6660 -0.5110 -0.9053
 5393TIP3   OH237669   1.627   3.434   3.536 -0.2876 -0.4935 -0.1644
 5393TIP3    H137670   1.601   3.517   3.575 -0.7038 -0.0882 -1.2762
 5393TIP3    H237671   1.707   3.455   3.487 -0.1652 -0.8337 -0.1105
 5394TIP3   OH237672   1.289   0.768   6.100  0.0947 -0.5649 -0.2438
 5394TIP3    H137673   1.201   0.751   6.066 -1.3740  1.2718  2.4745
 5394TIP3    H237674   1.300   0.703   6.170  1.4580 -1.6577 -1.4500
 5395TIP3   OH237675   1.330   3.286  15.969 -0.6207 -0.1921  0.0523
 5395TIP3    H137676   1.422   3.278  15.995 -0.4798 -0.1237 -0.4036
 5395TIP3    H237677   1.313   3.207  15.917 -0.3016  0.6400 -1.3478
 5396TIP3   OH237678   1.715   6.321  17.072 -0.3253  0.5153  0.1789
 5396TIP3    H137679   1.721   6.416  17.083 -2.0984  0.6463  0.1626
 5396TIP3    H237680   1.799   6.296  17.033  0.2080  2.0510  0.3064
 5397TIP3   OH237681   4.295   1.116   3.374 -0.1399 -0.5457 -0.1800
 5397TIP3    H137682   4.365   1.094   3.313  0.6166  0.6579  0.2413
 5397TIP3    H237683   4.271   1.032   3.413  0.0816 -1.1719 -1.3585
 5398TIP3   OH237684   3.045   1.563  15.287 -0.0941 -0.5701 -0.3547
 5398TIP3    H137685   2.979   1.632  15.282  1.4623  1.0241  0.4995
 5398TIP3    H237686   3.029   1.508  15.210 -2.1100  0.0497 -0.3954
 5399TIP3   OH237687   3.537   1.227   1.045 -0.1191  0.8169 -0.4316
 5399TIP3    H137688   3.516   1.308   1.091 -3.0557  0.1343 -0.4613
 5399TIP3    H237689   3.507   1.243   0.955 -2.6443 -0.9537  0.0274
 5400TIP3   OH237690   3.238   0.997  11.943  0.0485 -0.7261  0.2979
 5400TIP3    H137691   3.209   0.986  11.852  0.1362  0.3245  0.1382
 5400TIP3    H237692   3.158   0.985  11.995  0.1333 -2.0506  0.1362
 5401TIP3   OH237693   6.360   5.144  10.679 -0.8331 -0.4378  0.2510
 5401TIP3    H137694   6.335   5.235  10.659 -2.0452 -0.5714  1.1358
 5401TIP3    H237695   6.454   5.149  10.696 -0.9298  0.6986  0.5199
 5402TIP3   OH237696   0.403   3.183  15.471 -0.1850  0.1219 -0.1068
 5402TIP3    H137697   0.402   3.131  15.390 -3.0325 -0.7212  0.4345
 5402TIP3    H237698   0.329   3.243  15.462 -0.6328 -0.0944  1.9279
 5403TIP3   OH237699   4.844   0.905  10.702 -0.5634 -0.3503 -0.7412
 5403TIP3    H137700   4.799   0.896  10.618 -3.5386  3.1751  0.3545
 5403TIP3    H237701   4.787   0.861  10.765  0.5227 -1.0287 -0.2279
 5404TIP3   OH237702   3.606   4.340  17.146 -0.2977  0.2417 -0.5232
 5404TIP3    H137703   3.623   4.427  17.110 -2.0741  0.1805 -1.5749
 5404TIP3    H237704   3.551   4.356  17.222  1.4336  0.1961  0.7531
 5405TIP3   OH237705   5.916   6.330  11.227  0.0952 -0.2572  0.5610
 5405TIP3    H137706   5.872   6.288  11.154  0.4846 -0.5847  0.5136
 5405TIP3    H237707   6.006   6.343  11.197  0.1404  0.0231  0.8129
 5406TIP3   OH237708   4.130   2.662   1.060  0.0086  0.0237  0.3323
 5406TIP3    H137709   4.152   2.671   1.153 -0.4703 -0.4722  0.4909
 5406TIP3    H237710   4.039   2.689   1.053 -0.0277 -0.1682  0.0407
 5407TIP3   OH237711   5.133   5.847   2.328  0.4234  0.1931  0.4515
 5407TIP3    H137712   5.179   5.788   2.269 -0.6717  0.4156 -0.6450
 5407TIP3    H237713   5.202   5.883   2.385  1.5369  0.2116 -0.8865
 5408TIP3   OH237714   0.310   6.680   0.870 -0.0189  0.1607  0.0145
 5408TIP3    H137715   0.229   6.630   0.876  0.3004 -0.3359  0.2283
 5408TIP3    H237716   0.378   6.614   0.860  0.4967  0.5209  1.1138
 5409TIP3   OH237717   6.119   2.158   2.842  0.6421  0.3719  0.3268
 5409TIP3    H137718   6.035   2.168   2.886  0.7335 -1.5322  0.9509
 5409TIP3    H237719   6.134   2.243   2.800 -1.5322  0.7620  0.2991
 5410TIP3   OH237720   3.586   0.080  11.071 -0.0570 -0.1504  0.0125
 5410TIP3    H137721   3.634   0.008  11.029  1.3463  2.0158 -2.2943
 5410TIP3    H237722   3.510   0.095  11.014 -1.7952 -1.4749  1.9169
 5411TIP3   OH237723   2.381   4.133   1.775 -0.1841  0.2537 -0.5906
 5411TIP3    H137724   2.384   4.213   1.722  0.0957  0.8140  0.2606
 5411TIP3    H237725   2.472   4.118   1.801  0.0143 -1.2988 -2.1582
 5412TIP3   OH237726   0.315   3.475   2.097 -0.0924  0.3931 -0.9029
 5412TIP3    H137727   0.323   3.477   2.193 -1.1568 -0.4344 -0.7877
 5412TIP3    H237728   0.405   3.460   2.066  0.2468  0.5750 -0.0299
 5413TIP3   OH237729   1.251   6.310  17.221  0.3536 -0.1807  0.1503
 5413TIP3    H137730   1.205   6.305  17.305 -1.5429 -1.8395 -0.9303
 5413TIP3    H237731   1.185   6.286  17.156  1.6973  1.3838 -1.8755
 5414TIP3   OH237732   5.397   2.217   0.289 -0.5219 -0.3234  0.3261
 5414TIP3    H137733   5.388   2.131   0.330  1.6920 -1.5486 -1.5916
 5414TIP3    H237734   5.463   2.262   0.342  0.2378 -0.8154 -0.1920
 5415TIP3   OH237735   0.549   1.318   1.291  0.3100  0.5956  0.6691
 5415TIP3    H137736   0.589   1.340   1.207 -0.1106  0.0677  0.3283
 5415TIP3    H237737   0.565   1.225   1.301 -0.8717  0.3656  0.5009
 5416TIP3   OH237738   1.096   4.488   2.877 -0.0908 -0.4646 -0.1548
 5416TIP3    H137739   1.134   4.567   2.838 -3.4152  1.1113 -0.3508
 5416TIP3    H237740   1.110   4.420   2.811  0.9719  0.4238 -0.8688
 5417TIP3   OH237741   4.396   0.134   0.046  0.0910  0.0395  0.1654
 5417TIP3    H137742   4.482   0.106   0.079  0.1372 -0.8041 -0.6483
 5417TIP3    H237743   4.333   0.081   0.096  0.1678 -1.3642 -1.1653
 5418TIP3   OH237744   6.054   0.487  12.734 -0.8387  0.3327  0.3166
 5418TIP3    H137745   6.058   0.430  12.657  0.0392 -1.1940  1.4609
 5418TIP3    H237746   6.127   0.548  12.723  0.9034 -1.5484  1.1994
 5419TIP3   OH237747   3.948   0.080   1.080 -0.2885  0.0309  0.8090
 5419TIP3    H137748   3.995  -0.001   1.062 -1.0682 -0.7185  2.1339
 5419TIP3    H237749   3.865   0.071   1.032 -0.4129  0.0067  1.0282
 5420TIP3   OH237750   4.756   0.055   0.947  0.3711 -0.0862  0.3079
 5420TIP3    H137751   4.815   0.116   0.991  1.9716  0.9539 -3.0518
 5420TIP3    H237752   4.668   0.084   0.970  1.1482  1.1412  1.7789
 5421TIP3   OH237753   1.240   1.123  12.939 -0.2067  0.0600 -0.7538
 5421TIP3    H137754   1.288   1.205  12.929 -1.0200  0.5533 -0.6179
 5421TIP3    H237755   1.181   1.138  13.013 -1.5282 -0.0791 -1.7519
 5422TIP3   OH237756   1.849   5.317  16.039 -0.5581  0.2875 -0.2602
 5422TIP3    H137757   1.856   5.409  16.066 -2.8485  0.4552 -0.1227
 5422TIP3    H237758   1.831   5.321  15.945 -0.3832 -0.0280 -0.3059
 5423TIP3   OH237759   5.375   2.901   5.136 -0.2852 -0.2560  0.3720
 5423TIP3    H137760   5.322   2.925   5.212  0.5007  0.7935  0.5963
 5423TIP3    H237761   5.371   2.805   5.134  0.2284 -0.3326  2.1341
 5424TIP3   OH237762   6.292   0.639   3.354 -0.3807  0.7742  0.7387
 5424TIP3    H137763   6.310   0.593   3.437  0.5915  1.9311  1.1844
 5424TIP3    H237764   6.256   0.572   3.297  0.0329 -0.3058  1.7280
 5425TIP3   OH237765   3.260   5.385   1.233 -0.1169  0.1472  0.5613
 5425TIP3    H137766   3.311   5.338   1.299  0.1028  1.7387  1.5526
 5425TIP3    H237767   3.174   5.399   1.274 -1.3576 -2.3971 -1.0405
 5426TIP3   OH237768   4.791   0.066  12.191  0.5432  0.8620  0.4111
 5426TIP3    H137769   4.714   0.123  12.186  0.8453  1.6128  3.2003
 5426TIP3    H237770   4.790   0.016  12.110 -0.6442  3.7013 -1.3885
 5427TIP3   OH237771   2.941   1.972   4.428  0.2975  0.5301  0.2185
 5427TIP3    H137772   3.032   2.001   4.442 -0.1245  2.0728 -0.1293
 5427TIP3    H237773   2.911   1.944   4.514  1.9172 -2.4509 -0.1182
 5428TIP3   OH237774   1.562   2.130  12.264  0.0260  0.2036 -0.2822
 5428TIP3    H137775   1.579   2.217  12.228 -0.1130  0.0376 -0.7485
 5428TIP3    H237776   1.646   2.085  12.260 -0.1588 -0.0720 -1.1022
 5429TIP3   OH237777   4.300   6.473   1.216 -0.4833 -0.3027 -0.1532
 5429TIP3    H137778   4.286   6.555   1.170  2.0396 -0.0249 -0.5263
 5429TIP3    H237779   4.273   6.405   1.153  2.7498  0.0793 -2.0818
 5430TIP3   OH237780   0.030   4.584  13.379 -0.2631  0.1734 -0.1148
 5430TIP3    H137781   0.034   4.675  13.350  0.3771 -0.7250 -3.0397
 5430TIP3    H237782   0.112   4.546  13.349 -1.5027 -1.9232 -0.9472
 5431TIP3   OH237783   4.074   6.424   4.132 -0.1220  0.2339 -0.1719
 5431TIP3    H137784   4.041   6.475   4.058 -1.0968 -1.4983 -0.9603
 5431TIP3    H237785   4.040   6.470   4.209  0.3775  1.6867 -0.7854
 5432TIP3   OH237786   1.777   3.540   5.730  0.5176  0.2347  0.0089
 5432TIP3    H137787   1.717   3.553   5.804 -0.5619 -0.1284 -0.7972
 5432TIP3    H237788   1.840   3.612   5.738 -0.0878  0.6839  0.8037
 5433TIP3   OH237789   3.549   5.329  16.929 -0.1559  0.7414 -0.4286
 5433TIP3    H137790   3.558   5.416  16.890 -0.1148  1.2702  0.7443
 5433TIP3    H237791   3.459   5.302  16.907  0.1526  0.6628 -1.6192
 5434TIP3   OH237792   6.378   1.465  10.403  0.1942 -0.5858  0.5063
 5434TIP3    H137793   6.443   1.519  10.358 -0.0565 -0.9376 -0.2786
 5434TIP3    H237794   6.321   1.528  10.448  1.0211 -0.2728  1.1306
 5435TIP3   OH237795   0.016   4.130   5.946  0.0950  0.1138  0.0784
 5435TIP3    H137796   0.091   4.164   5.897 -0.6239 -0.5676 -1.5224
 5435TIP3    H237797   0.029   4.162   6.036  2.2280  0.0876 -0.2050
 5436TIP3   OH237798   2.658   2.742  12.000 -0.4464 -0.3448  0.0540
 5436TIP3    H137799   2.648   2.677  12.070 -0.1316 -0.6595 -0.1919
 5436TIP3    H237800   2.708   2.696  11.932 -1.6611 -0.3849 -0.8306
 5437TIP3   OH237801   3.278   3.323   3.405 -0.1259  0.2582  0.1187
 5437TIP3    H137802   3.241   3.364   3.327  1.4477 -0.3365 -0.9600
 5437TIP3    H237803   3.247   3.232   3.401 -0.8806  0.4748  0.7511
 5438TIP3   OH237804   2.606   2.017   2.427  0.2930 -0.4033  0.2659
 5438TIP3    H137805   2.578   2.054   2.511 -0.9733  0.0005 -0.3182
 5438TIP3    H237806   2.641   1.931   2.449 -2.5536 -1.4660  0.9114
 5439TIP3   OH237807   3.605   5.299   5.706 -0.2834  0.4503  0.6149
 5439TIP3    H137808   3.696   5.323   5.691 -0.7859  2.3244  0.4262
 5439TIP3    H237809   3.589   5.324   5.797 -0.2346 -1.1567  1.0830
 5440TIP3   OH237810   0.415   0.106   0.418 -0.5818  0.8540 -0.3602
 5440TIP3    H137811   0.399   0.012   0.427  1.3875  0.2977 -2.3070
 5440TIP3    H237812   0.483   0.125   0.482 -1.8924  1.2407  0.9455
 5441TIP3   OH237813   2.433   2.743  12.158  0.3776  0.0532  0.0947
 5441TIP3    H137814   2.451   2.791  12.077 -0.0258 -1.2403 -0.7784
 5441TIP3    H237815   2.512   2.754  12.211  0.5914  1.0282 -0.4103
 5442TIP3   OH237816   4.422   6.699   0.878 -0.1051 -0.5605 -0.1667
 5442TIP3    H137817   4.472   6.647   0.815 -0.4532  1.2575 -1.9913
 5442TIP3    H237818   4.483   6.767   0.906 -0.7779  0.1755 -0.4942
 5443TIP3   OH237819   2.505   1.694   1.023  0.0410 -0.0602  0.1495
 5443TIP3    H137820   2.477   1.766   0.967  1.2608  1.4394  1.4263
 5443TIP3    H237821   2.476   1.615   0.977 -2.4996  1.2552 -0.6384
 5444TIP3   OH237822   1.958   1.766   4.960 -0.4589  0.3153 -0.0170
 5444TIP3    H137823   1.942   1.841   5.016  1.1285 -1.2003  2.5575
 5444TIP3    H237824   1.873   1.725   4.949 -0.6143 -0.0580  2.3464
 5445TIP3   OH237825   1.435   3.821   2.900  0.7040 -0.8653 -0.8653
 5445TIP3    H137826   1.411   3.752   2.962 -1.1245  1.9535  1.7049
 5445TIP3    H237827   1.361   3.826   2.840  0.3096 -0.3562 -0.3383
 5446TIP3   OH237828   0.911   2.725   1.913 -0.3464  0.6813 -0.4011
 5446TIP3    H137829   0.932   2.816   1.933 -0.2138  0.3905  0.8387
 5446TIP3    H237830   0.862   2.729   1.830 -0.5415  1.8892 -0.2396
 5447TIP3   OH237831   2.806   4.648   0.302  0.5489 -0.3226  0.3513
 5447TIP3    H137832   2.896   4.670   0.276  0.3176  0.1755 -0.0504
 5447TIP3    H237833   2.757   4.654   0.220 -0.1776  1.1602  0.8766
 5448TIP3   OH237834   5.581   3.559   4.626 -0.2207 -0.1632  0.3013
 5448TIP3    H137835   5.567   3.549   4.532 -1.0860  0.1100  0.3987
 5448TIP3    H237836   5.510   3.509   4.666  2.2677 -3.4550  0.8515
 5449TIP3   OH237837   2.226   2.579  12.178  0.2137 -0.4613 -0.4015
 5449TIP3    H137838   2.228   2.503  12.119  1.8682 -1.0034  0.3002
 5449TIP3    H237839   2.292   2.638  12.142 -1.2194  0.7653 -1.0650
 5450TIP3   OH237840   0.036   5.672   3.104 -0.0719  0.2553  0.2922
 5450TIP3    H137841   0.131   5.682   3.117  0.3822 -2.1379 -0.8569
 5450TIP3    H237842   0.029   5.613   3.029 -2.4695 -2.1347  2.3119
 5451TIP3   OH237843   6.777   0.740   5.569  0.5918  0.1387 -0.1381
 5451TIP3    H137844   6.740   0.689   5.497  0.5557 -1.5413  1.0398
 5451TIP3    H237845   6.863   0.768   5.538 -0.4106  1.5141 -1.7523
 5452TIP3   OH237846   2.305   4.919  12.818 -0.1421  0.1696 -0.4412
 5452TIP3    H137847   2.255   4.988  12.861 -2.2218  0.0855 -2.6424
 5452TIP3    H237848   2.259   4.839  12.840  0.2119 -0.1336 -0.7935
 5453TIP3   OH237849   1.920   6.214  15.443  0.3139 -0.2675 -0.3525
 5453TIP3    H137850   1.977   6.270  15.389  0.8374  0.7079  1.1907
 5453TIP3    H237851   1.853   6.274  15.477  1.3206 -0.4013  1.9434
 5454TIP3   OH237852   4.416   5.848   5.179 -0.5401  0.3209 -0.2864
 5454TIP3    H137853   4.488   5.791   5.206 -1.5031 -0.8461 -0.1251
 5454TIP3    H237854   4.459   5.928   5.150  0.7385  0.1969  1.1755
 5455TIP3   OH237855   0.857   1.855  10.809 -0.0654 -0.7945  0.3348
 5455TIP3    H137856   0.831   1.822  10.895  1.5061  2.4300  2.1104
 5455TIP3    H237857   0.785   1.914  10.784  0.6753  0.2411  0.6234
 5456TIP3   OH237858   6.670   5.582  12.395  0.1716  0.5617 -0.5986
 5456TIP3    H137859   6.607   5.510  12.398  0.0695  0.6907  0.4729
 5456TIP3    H237860   6.748   5.544  12.354  0.1465 -0.1826  0.0333
 5457TIP3   OH237861   1.631   6.557  14.145 -0.2834  0.2955  0.0996
 5457TIP3    H137862   1.575   6.486  14.178  0.0955 -0.6445 -1.2755
 5457TIP3    H237863   1.606   6.633  14.198 -3.1251 -0.0187 -0.6850
 5458TIP3   OH237864   2.815   4.448  16.447 -0.5371 -0.2254  0.0698
 5458TIP3    H137865   2.771   4.457  16.532  0.5777 -1.6917  0.8351
 5458TIP3    H237866   2.746   4.420  16.387 -0.9757 -1.0002  0.9112
 5459TIP3   OH237867   1.397   1.289  11.371  0.0488  0.4196  0.2075
 5459TIP3    H137868   1.454   1.339  11.429 -0.3965 -0.1318  1.1337
 5459TIP3    H237869   1.440   1.204  11.361  1.2908  1.2894 -2.1339
 5460TIP3   OH237870   0.331   0.646  17.036 -0.7503  0.1047  0.3980
 5460TIP3    H137871   0.304   0.563  17.074 -0.4711 -0.9593 -1.6101
 5460TIP3    H237872   0.307   0.639  16.943 -0.6100  2.2164  0.1601
 5461TIP3   OH237873   6.809   5.950  16.906  0.2104 -0.5425 -0.0464
 5461TIP3    H137874   6.856   5.958  16.989  0.3901 -0.3074 -0.1724
 5461TIP3    H237875   6.753   6.028  16.903 -0.4272 -0.9825  0.2566
 5462TIP3   OH237876   1.474   0.140   4.202  0.5986 -0.2818 -0.2063
 5462TIP3    H137877   1.393   0.183   4.176 -0.0137 -1.4716 -0.2655
 5462TIP3    H237878   1.457   0.107   4.290  0.4407 -1.9783 -0.8537
 5463TIP3   OH237879   3.274   6.612   4.780  0.4212  0.3484 -0.3883
 5463TIP3    H137880   3.236   6.660   4.854  0.0899 -0.6489  0.0984
 5463TIP3    H237881   3.325   6.542   4.820  1.8379  0.9822 -1.0773
 5464TIP3   OH237882   5.150   5.268   5.561 -0.1104  0.3064  0.7221
 5464TIP3    H137883   5.199   5.330   5.507 -0.5888  0.3265  0.3112
 5464TIP3    H237884   5.080   5.236   5.504 -0.6155  0.3198  1.3248
 5465TIP3   OH237885   5.052   0.735   5.424  0.0150 -0.3349  0.3679
 5465TIP3    H137886   5.140   0.697   5.430  0.9083  1.4574 -0.7316
 5465TIP3    H237887   5.054   0.808   5.485 -0.5291  0.0370 -0.0560
 5466TIP3   OH237888   5.336   5.001  13.864  0.2418 -0.5499 -0.6643
 5466TIP3    H137889   5.430   4.994  13.847 -0.0589 -2.2076 -1.6831
 5466TIP3    H237890   5.328   4.995  13.960  1.4054  2.6940 -0.2923
 5467TIP3   OH237891   3.042   0.913  12.506  0.2299 -0.1327  0.0755
 5467TIP3    H137892   2.952   0.930  12.478 -0.3239 -0.6803  1.4529
 5467TIP3    H237893   3.092   0.908  12.425 -1.0318 -0.1308 -0.7227
 5468TIP3   OH237894   3.131   6.066  12.082  0.2988  0.0378  0.5601
 5468TIP3    H137895   3.060   6.073  12.146 -1.2267 -2.3330 -0.8308
 5468TIP3    H237896   3.118   6.139  12.023 -1.5813 -0.9353 -0.2490
 5469TIP3   OH237897   1.244   6.781  14.308  0.0805  0.0479 -0.6862
 5469TIP3    H137898   1.211   6.692  14.314 -1.8735  0.7035 -1.5182
 5469TIP3    H237899   1.338   6.773  14.327 -0.4342 -1.9008  1.2134
 5470TIP3   OH237900   5.638   2.610   0.557  0.5551 -0.5843 -0.6273
 5470TIP3    H137901   5.640   2.702   0.531  2.5047 -1.1432 -2.6077
 5470TIP3    H237902   5.675   2.608   0.644  0.3257  0.5206 -0.4966
 5471TIP3   OH237903   1.292   3.518  11.253 -0.4826 -0.5648 -0.1862
 5471TIP3    H137904   1.211   3.483  11.216 -1.0685 -0.4368  0.9488
 5471TIP3    H237905   1.362   3.473  11.206 -1.2133 -2.0274  0.0962
 5472TIP3   OH237906   3.673   5.897  15.374 -0.0465  0.2997  0.1938
 5472TIP3    H137907   3.713   5.870  15.457  0.5143  2.1397  0.5303
 5472TIP3    H237908   3.612   5.967  15.398  0.4493  1.1592 -1.0021
 5473TIP3   OH237909   1.099   2.771  17.204 -0.2840  0.0941 -0.1688
 5473TIP3    H137910   1.146   2.713  17.144  2.0433  0.3921  1.2852
 5473TIP3    H237911   1.101   2.725  17.289 -1.0056  0.9638  0.3308
 5474TIP3   OH237912   0.952   3.703   1.665 -0.3104 -0.0444 -0.3040
 5474TIP3    H137913   0.916   3.782   1.705 -0.3501  0.2884 -0.9923
 5474TIP3    H237914   1.028   3.733   1.614 -0.3160 -0.4445 -0.5581
 5475TIP3   OH237915   6.224   5.833  13.942  0.0300  0.1055  0.0466
 5475TIP3    H137916   6.232   5.810  14.035  0.9579  1.2027  0.2506
 5475TIP3    H237917   6.223   5.749  13.897  0.4926 -0.4131  0.9867
 5476TIP3   OH237918   0.621   1.367  14.102  0.3320 -0.2880 -0.0461
 5476TIP3    H137919   0.543   1.348  14.051  0.8571  0.2068 -1.0600
 5476TIP3    H237920   0.635   1.289  14.156 -2.0814  0.4728  1.7679
 5477TIP3   OH237921   0.343   6.480   3.449 -0.0156  0.3448  0.7855
 5477TIP3    H137922   0.282   6.409   3.469  0.2593  0.5094  2.2897
 5477TIP3    H237923   0.430   6.442   3.459  0.1323  0.5666  0.3685
 5478TIP3   OH237924   1.841   5.899  17.094  0.2766  0.2457 -0.4206
 5478TIP3    H137925   1.882   5.831  17.147  0.7218  0.2912 -0.6973
 5478TIP3    H237926   1.779   5.853  17.037  0.1267  0.1448 -0.1730
 5479TIP3   OH237927   0.811   3.278  10.834  0.3200 -0.2656  0.1303
 5479TIP3    H137928   0.904   3.291  10.815  0.3998  0.7927  1.1687
 5479TIP3    H237929   0.807   3.265  10.928 -0.6844  0.6890  0.2274
 5480TIP3   OH237930   0.862   6.320  17.171  0.2943  0.4371  0.3504
 5480TIP3    H137931   0.820   6.369  17.242  1.0662  1.3724  0.1584
 5480TIP3    H237932   0.840   6.228  17.190 -1.7897  0.8894  0.2964
 5481TIP3   OH237933   5.962   0.548   0.545 -0.4331  0.2035 -0.1879
 5481TIP3    H137934   5.920   0.472   0.584  0.2264  0.5002  1.1219
 5481TIP3    H237935   6.046   0.515   0.513 -0.3182  0.3008  0.0169
 5482TIP3   OH237936   6.018   2.411  17.214  0.3384 -0.3849 -0.0790
 5482TIP3    H137937   6.023   2.334  17.271  1.0242 -0.8664 -0.7661
 5482TIP3    H237938   6.053   2.380  17.130  1.2897  0.8658 -0.1524
 5483TIP3   OH237939   5.646   3.107   4.448 -0.0718 -0.1724  0.0550
 5483TIP3    H137940   5.561   3.067   4.465  0.3711 -1.2688 -0.2381
 5483TIP3    H237941   5.677   3.065   4.368  1.2520 -0.6182  0.7805
 5484TIP3   OH237942   5.171   1.001  13.634 -0.2022 -0.2349 -0.1366
 5484TIP3    H137943   5.256   1.016  13.674 -0.9052 -1.2280  1.8029
 5484TIP3    H237944   5.187   1.003  13.540  1.5277  1.9508  0.1983
 5485TIP3   OH237945   5.556   4.574   0.812  0.2911 -0.4187  0.1699
 5485TIP3    H137946   5.504   4.652   0.829  0.2311 -0.2934 -0.5763
 5485TIP3    H237947   5.608   4.596   0.735  0.4054 -1.0466  0.0646
 5486TIP3   OH237948   5.117   5.998   5.203 -0.1115 -0.5282 -0.2342
 5486TIP3    H137949   5.175   5.923   5.218 -0.4806 -0.7304  0.1928
 5486TIP3    H237950   5.147   6.035   5.120  0.0231 -1.1920 -0.4865
 5487TIP3   OH237951   3.549   0.999   0.610  0.4115  0.1477  0.0898
 5487TIP3    H137952   3.541   1.033   0.521 -1.8267  1.1117  0.6219
 5487TIP3    H237953   3.615   1.054   0.651  0.4476  0.6068 -0.5791
 5488TIP3   OH237954   6.767   5.848   1.603  0.4596  0.1046 -0.4478
 5488TIP3    H137955   6.836   5.906   1.636 -1.0825  0.8966  1.4056
 5488TIP3    H237956   6.700   5.848   1.671 -0.7801 -1.7512 -1.6218
 5489TIP3   OH237957   0.275   4.709  14.048 -0.2396  0.6276 -0.1000
 5489TIP3    H137958   0.335   4.754  14.107 -1.0322  2.2051 -0.4637
 5489TIP3    H237959   0.327   4.639  14.009  0.5742  0.2040  1.6947
 5490TIP3   OH237960   3.155   3.535  15.346 -0.3123  0.2956  0.0650
 5490TIP3    H137961   3.175   3.596  15.275 -0.4619 -2.1315 -2.1375
 5490TIP3    H237962   3.201   3.571  15.422 -0.2629  3.0286 -1.2023
 5491TIP3   OH237963   0.116   2.403  16.177  0.3548 -0.4237  0.1236
 5491TIP3    H137964   0.075   2.419  16.262  1.3626 -1.3572  0.7948
 5491TIP3    H237965   0.208   2.390  16.198  0.6651 -0.2987 -1.1624
 5492TIP3   OH237966   3.712   1.082  16.882  0.2472  0.2019  0.4574
 5492TIP3    H137967   3.758   1.018  16.828  2.0982  0.6192  1.4834
 5492TIP3    H237968   3.666   1.031  16.948 -2.4662 -0.3517 -1.7454
 5493TIP3   OH237969   0.905   0.595   2.015  0.1264 -0.0558  0.4335
 5493TIP3    H137970   0.879   0.552   1.933 -0.4320  0.8161  0.1489
 5493TIP3    H237971   0.873   0.536   2.083  0.8242 -0.9229  0.0323
 5494TIP3   OH237972   5.022   5.791   1.179  0.2328  0.0164  0.1917
 5494TIP3    H137973   5.088   5.747   1.125  0.4819 -1.1505  1.4319
 5494TIP3    H237974   4.997   5.868   1.127  1.9534  0.0286 -0.6741
 5495TIP3   OH237975   0.010   0.558  16.932  0.0027  0.1418  0.1892
 5495TIP3    H137976   0.016   0.509  17.014  1.5332  1.0123  0.6257
 5495TIP3    H237977  -0.075   0.602  16.937 -0.3782 -0.6452  0.8201
 5496TIP3   OH237978   3.123   3.904   1.695  0.1360 -0.4820  0.2062
 5496TIP3    H137979   3.128   3.847   1.618  1.9411  0.2352 -0.2505
 5496TIP3    H237980   3.102   3.845   1.767 -0.4201 -1.3500 -0.6558
 5497TIP3   OH237981   2.923   5.356   2.534 -0.8262  0.3649  0.0398
 5497TIP3    H137982   2.989   5.426   2.541 -0.9044  0.5625 -1.1822
 5497TIP3    H237983   2.865   5.371   2.609  1.0934 -0.4431  1.7476
 5498TIP3   OH237984   4.609   6.557  12.272  0.2379 -0.1294  0.5303
 5498TIP3    H137985   4.586   6.497  12.202  1.5801 -0.7627  0.6213
 5498TIP3    H237986   4.596   6.644  12.234 -1.0751 -0.4603  0.1915
 5499TIP3   OH237987   1.956   3.529   1.942 -0.0232  0.1683  0.4296
 5499TIP3    H137988   1.891   3.551   2.009 -0.3736 -1.5383  0.6739
 5499TIP3    H237989   1.922   3.569   1.862 -1.5740 -0.9922  0.4865
 5500TIP3   OH237990   5.991   4.356   5.472  0.2966 -0.3140  0.1208
 5500TIP3    H137991   6.054   4.288   5.446  2.4225  1.1959  1.1432
 5500TIP3    H237992   6.000   4.361   5.567 -1.0681  0.2331  0.2218
 5501TIP3   OH237993   2.932   6.396   1.843  0.0303  0.2878  0.7171
 5501TIP3    H137994   3.024   6.408   1.866  0.1562  1.2296 -0.2099
 5501TIP3    H237995   2.891   6.480   1.865 -0.7305 -0.3275  1.6783
 5502TIP3   OH237996   1.907   5.041   6.103 -0.0144 -0.0419  0.7866
 5502TIP3    H137997   1.949   4.973   6.049  3.4518  2.2448  0.3878
 5502TIP3    H237998   1.901   5.116   6.045 -3.4131  0.1641  1.3522
 5503TIP3   OH237999   1.420   5.215   1.704 -0.1387 -0.4125 -0.1672
 5503TIP3    H138000   1.401   5.309   1.701 -0.9096 -0.4986  1.3343
 5503TIP3    H238001   1.456   5.195   1.618 -0.3033  1.1894 -0.6291
 5504TIP3   OH238002   4.694   6.491  14.569  0.0777  0.8234  0.1147
 5504TIP3    H138003   4.661   6.581  14.566 -0.7159  0.5347 -0.2602
 5504TIP3    H238004   4.696   6.464  14.477 -1.3541 -0.1150  0.3438
 5505TIP3   OH238005   3.002   5.008   3.123 -0.1218  0.2030 -0.3382
 5505TIP3    H138006   2.955   4.927   3.105  0.0225  0.0454 -0.0079
 5505TIP3    H238007   3.082   5.001   3.070  0.0893 -0.0588  0.0149
 5506TIP3   OH238008   2.831   5.846   1.018 -0.2526 -0.6123  0.1395
 5506TIP3    H138009   2.875   5.811   1.096 -2.3095  1.6311  2.4008
 5506TIP3    H238010   2.860   5.937   1.014 -1.9171 -0.0961 -0.3894
 5507TIP3   OH238011   5.397   3.533   2.240  0.1983 -0.4010  0.8781
 5507TIP3    H138012   5.465   3.594   2.269  0.0854 -0.0442  0.4033
 5507TIP3    H238013   5.340   3.585   2.183 -0.5955 -0.6501  1.4414
 5508TIP3   OH238014   2.862   0.700   2.461 -0.1217  0.0288  0.0122
 5508TIP3    H138015   2.917   0.624   2.441  1.1734  1.1711 -0.8595
 5508TIP3    H238016   2.804   0.708   2.385 -1.0678 -0.7961  0.6441
 5509TIP3   OH238017   4.996   6.662  14.549  0.2514 -0.2510  0.0833
 5509TIP3    H138018   4.932   6.697  14.611 -1.6906 -1.9563 -0.8941
 5509TIP3    H238019   5.038   6.591  14.597 -0.2224 -0.6201 -0.0398
 5510TIP3   OH238020   1.399   0.075   1.743 -0.1892 -0.1237  0.2665
 5510TIP3    H138021   1.377   0.055   1.834 -1.1170 -0.0092  0.0705
 5510TIP3    H238022   1.461   0.148   1.750  0.8421 -1.0325  0.8510
 5511TIP3   OH238023   5.911   6.769   0.390  0.0375  0.4234  0.4104
 5511TIP3    H138024   5.921   6.690   0.442 -2.9272 -1.8432 -2.2553
 5511TIP3    H238025   5.849   6.823   0.439 -0.5118 -0.3876  0.6097
 5512TIP3   OH238026   4.162   1.268  16.793  0.1174  0.1798  0.4557
 5512TIP3    H138027   4.230   1.260  16.860 -1.7876  0.9814  2.5889
 5512TIP3    H238028   4.127   1.179  16.784 -0.6124  0.3415  1.6331
 5513TIP3   OH238029   5.776   4.211  16.111  0.0062  0.2480 -0.8943
 5513TIP3    H138030   5.802   4.293  16.153  1.2530  0.2202 -1.5893
 5513TIP3    H238031   5.715   4.238  16.042 -0.3205  0.4965 -0.5082
 5514TIP3   OH238032   3.258   2.832  16.478 -0.4643  1.2193  0.1153
 5514TIP3    H138033   3.346   2.865  16.457  0.0362  1.8934  3.0942
 5514TIP3    H238034   3.200   2.876  16.415  1.2794  0.7844 -1.8794
 5515TIP3   OH238035   2.070   6.158  11.825  0.7892 -0.3280  0.1438
 5515TIP3    H138036   2.057   6.245  11.786 -1.0924 -0.7252 -0.1561
 5515TIP3    H238037   2.154   6.128  11.790  1.1357  1.0896 -0.2718
 5516TIP3   OH238038   2.161   2.419   5.813  0.2032  0.0175  0.5302
 5516TIP3    H138039   2.126   2.427   5.902  0.0127 -0.3707  0.4926
 5516TIP3    H238040   2.251   2.450   5.820  1.0891 -2.6054  1.4639
 5517TIP3   OH238041   3.967   6.696   0.898  0.4950  0.3988  0.5479
 5517TIP3    H138042   4.057   6.663   0.898  0.9916  1.6851 -1.1120
 5517TIP3    H238043   3.931   6.667   0.814  0.3791  2.5011 -0.1579
 5518TIP3   OH238044   5.950   3.247  13.576 -0.1382 -0.1334  0.0329
 5518TIP3    H138045   5.872   3.285  13.536  0.7319 -0.2051 -1.7992
 5518TIP3    H238046   5.953   3.284  13.664 -1.0930  1.4818 -0.5941
 5519TIP3   OH238047   0.473   4.691  16.310  0.1200  0.2629 -0.2544
 5519TIP3    H138048   0.458   4.697  16.404  1.0420  2.0901 -0.1869
 5519TIP3    H238049   0.387   4.676  16.272 -0.6350  1.9291  0.7267
 5520TIP3   OH238050   2.225   3.209  14.549 -0.2151 -0.4573 -0.3655
 5520TIP3    H138051   2.217   3.244  14.638 -0.2184 -1.2971 -0.0321
 5520TIP3    H238052   2.227   3.286  14.493  1.0803  0.1189  0.4572
 5521TIP3   OH238053   2.382   6.250  13.865  0.3767  0.1192  0.0168
 5521TIP3    H138054   2.374   6.342  13.892 -1.1336  0.5406 -1.7516
 5521TIP3    H238055   2.452   6.215  13.920 -1.5953  1.3018  3.4572
 5522TIP3   OH238056   4.355   5.242   0.966  0.5613  0.2275  0.0832
 5522TIP3    H138057   4.413   5.200   0.903  2.6965  1.1212  1.4232
 5522TIP3    H238058   4.396   5.226   1.051 -1.2947  0.6498  1.0853
 5523TIP3   OH238059   1.613   4.252   6.033  0.5806  0.2728 -0.4778
 5523TIP3    H138060   1.517   4.251   6.034  0.5360  2.1767 -0.9237
 5523TIP3    H238061   1.638   4.230   6.123 -0.2984  0.7498 -0.1113
 5524TIP3   OH238062   2.661   1.782  14.445  0.0157  0.2508 -0.3732
 5524TIP3    H138063   2.707   1.705  14.411  1.5459  0.8648  0.2235
 5524TIP3    H238064   2.659   1.769  14.540  0.1092  0.8455 -0.2855
 5525TIP3   OH238065   1.148   4.485   1.504  0.3379 -0.1329  0.7044
 5525TIP3    H138066   1.072   4.429   1.486  0.5164  0.2123 -1.2230
 5525TIP3    H238067   1.110   4.565   1.541 -0.1039 -0.5666  1.2056
 5526TIP3   OH238068   2.164   4.860  13.402 -0.0545  0.3593  0.1024
 5526TIP3    H138069   2.246   4.902  13.428 -1.2489  2.6788  0.2442
 5526TIP3    H238070   2.158   4.876  13.308  0.1367 -0.6871 -0.0899
 5527TIP3   OH238071   2.931   4.371  11.396 -0.3646  0.3505  0.2183
 5527TIP3    H138072   2.959   4.397  11.309 -0.8708  1.0157  0.2483
 5527TIP3    H238073   2.837   4.357  11.387 -0.1418 -1.2566  0.2586
 5528TIP3   OH238074   0.202   2.566   6.606 -0.3171  0.1704 -0.2247
 5528TIP3    H138075   0.116   2.551   6.567  0.0255 -1.0458 -0.5666
 5528TIP3    H238076   0.218   2.488   6.660  1.0042 -0.1248 -1.0056
 5529TIP3   OH238077   5.375   2.259  16.003  0.4393  0.2308  0.0681
 5529TIP3    H138078   5.426   2.271  15.923  0.8678  0.8924  0.4301
 5529TIP3    H238079   5.287   2.236  15.973  0.4791  0.9501 -0.6067
 5530TIP3   OH238080   0.957   3.848   0.621 -0.1638 -0.1749  0.0752
 5530TIP3    H138081   0.909   3.905   0.561  0.3700 -0.2554 -0.4389
 5530TIP3    H238082   0.898   3.836   0.695 -0.7592  0.0769 -0.3504
 5531TIP3   OH238083   4.747   2.319   0.132  0.0877  0.5291 -0.4917
 5531TIP3    H138084   4.682   2.347   0.068  0.1290  1.9392  0.0532
 5531TIP3    H238085   4.826   2.369   0.109  0.1919  0.8142  0.4600
 5532TIP3   OH238086   2.179   3.990  16.254  0.8385  0.6921 -0.5259
 5532TIP3    H138087   2.109   4.054  16.244  0.0715 -0.5018 -3.3300
 5532TIP3    H238088   2.159   3.922  16.190  3.1797 -0.9510  0.4021
 5533TIP3   OH238089   5.036   6.610   4.539 -0.7094 -0.6242  0.0625
 5533TIP3    H138090   5.084   6.555   4.600 -1.6215  0.7295  2.0747
 5533TIP3    H238091   4.971   6.552   4.500 -0.4241 -1.4173  0.7637
 5534TIP3   OH238092   6.333   0.005  11.670  0.3221  0.5090  0.2325
 5534TIP3    H138093   6.376  -0.036  11.745 -3.5230 -2.7236  0.8309
 5534TIP3    H238094   6.352  -0.054  11.597 -0.6984  0.5456 -0.0716
 5535TIP3   OH238095   4.217   5.759  16.039  0.1959 -0.0080 -0.0922
 5535TIP3    H138096   4.199   5.721  16.125  0.2064  0.8809  0.3079
 5535TIP3    H238097   4.205   5.687  15.978 -0.5697 -0.4573  0.5823
 5536TIP3   OH238098   3.139   1.184  17.257  0.2313 -0.1338 -0.1050
 5536TIP3    H138099   3.050   1.187  17.291  0.5494  1.0886  0.6752
 5536TIP3    H238100   3.130   1.165  17.164 -0.8485  0.1351 -0.0545
 5537TIP3   OH238101   1.820   4.116  11.946  0.3758 -0.3670  0.1279
 5537TIP3    H138102   1.780   4.029  11.945 -2.6307  0.9632 -1.3783
 5537TIP3    H238103   1.763   4.168  12.003  0.5113  1.3130 -1.2121
 5538TIP3   OH238104   3.125   2.956   1.243  0.0498  0.3755  0.4569
 5538TIP3    H138105   3.204   2.954   1.296  1.1294  1.4128 -1.0956
 5538TIP3    H238106   3.059   2.996   1.300  1.3744  2.1266  0.7959
 5539TIP3   OH238107   1.547   3.734   2.273  0.0285 -0.3106  0.3794
 5539TIP3    H138108   1.513   3.665   2.330  0.0522 -2.9580 -2.6974
 5539TIP3    H238109   1.500   3.813   2.301 -1.1352 -1.8496  2.9561
 5540TIP3   OH238110   5.672   6.421   0.327 -0.2613  0.1359 -0.0547
 5540TIP3    H138111   5.732   6.463   0.266 -1.0913 -0.1484 -1.0761
 5540TIP3    H238112   5.585   6.436   0.290 -0.7390 -0.4859  0.7838
 5541TIP3   OH238113   3.571   2.712   1.762  0.0812  0.0094 -0.5135
 5541TIP3    H138114   3.504   2.661   1.807  0.5461 -0.2985 -0.1672
 5541TIP3    H238115   3.559   2.802   1.793  2.1344 -0.6341  2.3254
 5542TIP3   OH238116   3.906   4.913  15.505 -0.1791  0.5570 -0.5304
 5542TIP3    H138117   3.841   4.858  15.462 -0.4725  0.5105 -0.0392
 5542TIP3    H238118   3.897   4.891  15.598  0.7254  0.3566 -0.4889
 5543TIP3   OH238119   1.356   4.305  15.973 -0.1939 -0.1456  0.4354
 5543TIP3    H138120   1.421   4.290  15.904 -0.1630  0.1505  0.4010
 5543TIP3    H238121   1.408   4.306  16.054 -0.3746 -1.6859  0.5883
 5544TIP3   OH238122   2.819   2.057  16.832 -0.2990 -0.5166  0.3055
 5544TIP3    H138123   2.905   2.048  16.791  0.3632  1.1943  1.2506
 5544TIP3    H238124   2.773   2.121  16.779 -0.0614  0.4407  1.2394
 5545TIP3   OH238125   1.175   6.315   1.892 -0.3326  0.0072  0.3803
 5545TIP3    H138126   1.121   6.244   1.858 -1.0758 -0.2778  2.0965
 5545TIP3    H238127   1.152   6.321   1.985 -0.0830  2.3070  0.3458
 5546TIP3   OH238128   5.630   0.686   2.024  0.0578 -0.2359  0.0037
 5546TIP3    H138129   5.726   0.680   2.023  0.1058  0.2459  1.0399
 5546TIP3    H238130   5.601   0.595   2.033  0.3729 -0.5221 -1.5774
 5547TIP3   OH238131   6.519   2.343   6.179 -0.2235 -0.2136 -0.2133
 5547TIP3    H138132   6.564   2.261   6.201 -0.1598 -0.3521 -0.8445
 5547TIP3    H238133   6.524   2.396   6.259  0.2630 -0.5871  0.0031
 5548TIP3   OH238134   6.418   3.684  13.564  0.3709 -0.6495  0.2881
 5548TIP3    H138135   6.432   3.636  13.646  1.8917  0.4254  0.6782
 5548TIP3    H238136   6.475   3.761  13.571 -2.3669  1.4622 -0.1609
 5549TIP3   OH238137   5.822   1.680   0.807  0.1066  0.1712  0.7087
 5549TIP3    H138138   5.798   1.613   0.871 -0.8300  0.4155  0.6117
 5549TIP3    H238139   5.881   1.635   0.746 -1.2882 -0.8478  0.0721
 5550TIP3   OH238140   0.599   5.890   0.797 -0.1292  0.1081  0.2123
 5550TIP3    H138141   0.507   5.908   0.778 -0.9894 -2.5037  1.6915
 5550TIP3    H238142   0.631   5.844   0.719  0.1453  1.6565 -0.6049
 5551TIP3   OH238143   1.439   5.887  12.081 -0.4144  0.3973 -0.0248
 5551TIP3    H138144   1.460   5.867  11.990 -0.3657 -0.5046  0.1806
 5551TIP3    H238145   1.395   5.808  12.114  3.5296 -1.1103  2.0294
 5552TIP3   OH238146   1.000   5.591   3.108  0.0147  0.1212  0.1464
 5552TIP3    H138147   1.077   5.635   3.072 -0.7562  1.0387 -0.4119
 5552TIP3    H238148   0.951   5.661   3.152 -0.5187 -0.4498  0.4680
 5553TIP3   OH238149   1.033   5.777   6.486  0.2661  0.3854 -0.0917
 5553TIP3    H138150   1.121   5.807   6.464  0.5483  0.6222  1.3278
 5553TIP3    H238151   1.045   5.719   6.561 -0.6183 -0.8254 -0.8591
 5554TIP3   OH238152   0.632   2.361   5.714 -0.6359  0.2588 -0.2390
 5554TIP3    H138153   0.609   2.454   5.722  0.1766  0.4996 -0.5226
 5554TIP3    H238154   0.584   2.317   5.784 -1.9954  0.7145 -0.8778
 5555TIP3   OH238155   0.910   1.954   5.080  0.0956 -0.0903 -0.4507
 5555TIP3    H138156   0.854   1.950   5.157 -0.3012 -2.3764 -0.8496
 5555TIP3    H238157   0.866   2.015   5.021 -1.2218 -0.7718 -0.1731
 5556TIP3   OH238158   5.291   1.502  16.774  0.5632 -0.4366 -0.9163
 5556TIP3    H138159   5.326   1.590  16.791 -0.2152 -0.2039 -0.4964
 5556TIP3    H238160   5.366   1.444  16.787  0.3676 -0.1356  1.9621
 5557TIP3   OH238161   4.387   0.975  13.985 -0.0876 -0.7832  0.4369
 5557TIP3    H138162   4.468   0.925  13.978  0.2167 -0.2839  0.3975
 5557TIP3    H238163   4.319   0.913  13.957  0.6567 -0.1626 -3.0182
 5558TIP3   OH238164   3.058   4.696   1.308  0.9498 -0.0135 -0.4344
 5558TIP3    H138165   3.057   4.607   1.273  2.4270 -0.3058  0.2362
 5558TIP3    H238166   3.045   4.752   1.231  0.3297 -0.7920 -0.8989
 5559TIP3   OH238167   1.039   0.695  15.411 -0.1621 -0.0107 -0.0588
 5559TIP3    H138168   0.981   0.758  15.454 -0.0528 -0.5102  0.8470
 5559TIP3    H238169   0.987   0.657  15.340  0.4635  2.6427 -1.9949
 5560TIP3   OH238170   5.088   5.248  17.013  0.6285 -0.1225 -0.2067
 5560TIP3    H138171   5.172   5.267  17.054  0.6413 -1.9938  0.6628
 5560TIP3    H238172   5.029   5.232  17.086 -0.4159  0.8347 -0.8177
 5561TIP3   OH238173   1.395   3.950  13.200  0.5940  0.0061 -0.1945
 5561TIP3    H138174   1.410   3.869  13.248  0.0217  0.9834  1.7204
 5561TIP3    H238175   1.301   3.968  13.211  0.6799  0.8340 -0.7224
 5562TIP3   OH238176   4.429   1.098  16.445  0.1798  0.3146  0.3523
 5562TIP3    H138177   4.388   1.175  16.404 -0.5269 -0.1663  0.1570
 5562TIP3    H238178   4.383   1.023  16.408  0.5753 -0.1926  0.8779
 5563TIP3   OH238179   2.160   4.542  12.608 -0.5006 -0.0503  0.1207
 5563TIP3    H138180   2.133   4.547  12.516 -0.3146 -0.3993  0.0461
 5563TIP3    H238181   2.185   4.451  12.620 -0.3657  0.0351  0.4741
 5564TIP3   OH238182   3.623   2.795   0.944 -0.1528  0.4621  0.3299
 5564TIP3    H138183   3.694   2.808   0.882 -0.0677  0.7579  0.4880
 5564TIP3    H238184   3.564   2.869   0.930  1.0356  1.8066  2.1806
 5565TIP3   OH238185   3.031   4.089   5.676 -0.4375  0.2488  0.7065
 5565TIP3    H138186   2.971   4.049   5.740 -0.4716 -1.1201 -0.1652
 5565TIP3    H238187   3.075   4.015   5.635  1.3418  1.2226  0.8324
 5566TIP3   OH238188   5.206   3.153  11.110  0.6025  0.3822 -0.7447
 5566TIP3    H138189   5.113   3.164  11.090  0.6717 -1.3677 -2.1980
 5566TIP3    H238190   5.207   3.119  11.200 -0.3193 -1.5872 -1.4341
 5567TIP3   OH238191   3.649   2.287   0.734  0.4836  0.1371 -0.1514
 5567TIP3    H138192   3.635   2.377   0.764  1.2552  0.5227 -0.9344
 5567TIP3    H238193   3.694   2.296   0.650  1.9774 -1.0203  0.5134
 5568TIP3   OH238194   0.547   0.595  13.098 -0.3758 -0.8186  0.3236
 5568TIP3    H138195   0.566   0.685  13.123 -2.6866  0.1669 -1.3757
 5568TIP3    H238196   0.625   0.566  13.051  0.4825  0.1753  1.1157
 5569TIP3   OH238197   6.769   3.232  13.349  0.0434 -0.0325 -0.4838
 5569TIP3    H138198   6.758   3.166  13.281 -1.3870  0.1882 -0.4797
 5569TIP3    H238199   6.864   3.239  13.361  0.3329  0.3490 -2.8771
 5570TIP3   OH238200   5.190   4.040   0.553  0.2586  0.0304  0.1168
 5570TIP3    H138201   5.224   4.045   0.464 -0.7468  4.0579 -0.1459
 5570TIP3    H238202   5.252   4.091   0.606 -0.0288 -0.9224  1.3995
 5571TIP3   OH238203   3.639   3.641   2.376  0.1396 -0.2674  0.3619
 5571TIP3    H138204   3.565   3.653   2.436  0.3252  0.9704  0.3595
 5571TIP3    H238205   3.708   3.699   2.410  0.8359 -0.8315 -0.0723
 5572TIP3   OH238206   3.064   0.443  13.868  0.6306 -0.0774  0.5114
 5572TIP3    H138207   3.095   0.529  13.897  2.2163 -0.7978  1.0377
 5572TIP3    H238208   3.025   0.404  13.945 -0.4287  0.2987  0.1799
 5573TIP3   OH238209   3.765   1.944  12.675 -0.0396 -0.6302  0.1311
 5573TIP3    H138210   3.836   1.987  12.723 -0.6792  0.7026 -0.0840
 5573TIP3    H238211   3.771   1.982  12.587 -2.4338  1.2156  0.7244
 5574TIP3   OH238212   4.210   3.271   4.234  0.0338  0.0853 -0.1109
 5574TIP3    H138213   4.224   3.186   4.191 -1.3860 -0.1772 -0.0858
 5574TIP3    H238214   4.295   3.293   4.272  0.2103 -1.7585  0.6274
 5575TIP3   OH238215   4.568   3.023  14.520 -0.5430 -0.3607  0.2963
 5575TIP3    H138216   4.585   2.971  14.441 -0.2940  0.3830 -0.1534
 5575TIP3    H238217   4.586   2.964  14.593  0.3537 -0.7138 -0.2034
 5576TIP3   OH238218   2.153   4.144   3.794  0.0407  0.2182 -0.1981
 5576TIP3    H138219   2.229   4.091   3.768 -1.4654 -2.2867  0.3433
 5576TIP3    H238220   2.149   4.135   3.889  0.7767  2.7955  0.1237
 5577TIP3   OH238221   2.762   2.592   3.795  0.0521 -0.5860 -0.2926
 5577TIP3    H138222   2.771   2.545   3.712 -1.9235 -0.0034 -0.8669
 5577TIP3    H238223   2.706   2.667   3.774 -0.8922 -0.7092  1.6594
 5578TIP3   OH238224   2.608   4.806   0.393  0.0342  0.0831 -0.1659
 5578TIP3    H138225   2.540   4.742   0.374 -0.2991 -0.3868  2.4306
 5578TIP3    H238226   2.686   4.754   0.412 -0.1694  0.4205  1.6901
 5579TIP3   OH238227   2.332   2.176   3.532  0.2002 -0.3743 -0.5318
 5579TIP3    H138228   2.356   2.262   3.568  0.0797 -0.9116  0.8597
 5579TIP3    H238229   2.236   2.176   3.532  0.1961 -0.8537  0.3280
 5580TIP3   OH238230   5.197   0.985   3.682 -0.2020  0.6928 -0.4281
 5580TIP3    H138231   5.190   1.063   3.736 -1.9203  0.1466  0.1591
 5580TIP3    H238232   5.272   0.937   3.718  0.1028  1.4680 -0.0253
 5581TIP3   OH238233   5.697   3.973  14.608  0.3973  0.0625  0.4967
 5581TIP3    H138234   5.784   4.008  14.587  0.6667 -0.5361  0.5872
 5581TIP3    H238235   5.673   3.920  14.532 -0.0303  0.4877  0.3355
 5582TIP3   OH238236   2.474   3.191  12.051  0.2657  0.0131  0.2710
 5582TIP3    H138237   2.437   3.248  11.983  1.0372  0.4316  0.1962
 5582TIP3    H238238   2.498   3.250  12.122  0.4978 -0.2967  0.4516
 5583TIP3   OH238239   6.137   0.143   4.119 -0.1502 -0.2146  0.5297
 5583TIP3    H138240   6.090   0.209   4.171  0.7613  1.0705 -0.2586
 5583TIP3    H238241   6.088   0.063   4.134 -2.4071  1.0172  0.0163
 5584TIP3   OH238242   3.705   6.800  13.764  0.6396  0.1105  0.2848
 5584TIP3    H138243   3.659   6.736  13.709  0.7630 -0.7006  1.1271
 5584TIP3    H238244   3.795   6.797  13.733  0.3409  0.9710 -0.6895
 5585TIP3   OH238245   5.967   3.561   0.370  0.4775 -0.6695 -0.4194
 5585TIP3    H138246   6.047   3.512   0.390 -1.1064 -1.8086  3.6996
 5585TIP3    H238247   5.921   3.567   0.454 -2.2465  2.7732 -2.0135
 5586TIP3   OH238248   3.650   5.718   2.735 -0.2705  0.6701 -0.0839
 5586TIP3    H138249   3.695   5.795   2.700  2.2915 -1.1499 -0.9607
 5586TIP3    H238250   3.701   5.693   2.812  0.3308 -1.4683 -1.1278
 5587TIP3   OH238251   4.709   6.623   5.710 -0.2658  0.1212  0.1760
 5587TIP3    H138252   4.697   6.583   5.624 -0.8134 -1.2210  0.8497
 5587TIP3    H238253   4.622   6.655   5.734 -0.0027  0.9652  0.0059
 5588TIP3   OH238254   6.030   0.163   4.484  0.3201 -0.0072  0.0645
 5588TIP3    H138255   6.027   0.227   4.413 -1.4186  0.4072  0.4781
 5588TIP3    H238256   6.103   0.105   4.462  0.1038  0.4051 -1.8101
 5589TIP3   OH238257   4.903   1.075   5.159 -0.0548  0.5424 -0.4874
 5589TIP3    H138258   4.946   0.990   5.162 -1.2310 -0.0149  2.7104
 5589TIP3    H238259   4.938   1.123   5.234 -3.4605  0.7962  1.0231
 5590TIP3   OH238260   2.245   5.017  13.713  0.0524 -0.0284 -0.1280
 5590TIP3    H138261   2.237   4.924  13.735 -0.3147 -0.5418 -2.3650
 5590TIP3    H238262   2.157   5.051  13.722  0.0017 -0.1149 -0.2996
 5591TIP3   OH238263   3.128   5.833   4.582 -0.3923 -0.6478  1.1026
 5591TIP3    H138264   3.104   5.836   4.489 -0.7755  0.1347  1.2225
 5591TIP3    H238265   3.187   5.907   4.594 -1.2816 -0.0402  1.7393
 5592TIP3   OH238266   6.390   5.010   2.370 -0.1128 -0.3156 -0.0624
 5592TIP3    H138267   6.470   4.982   2.413 -0.9010 -3.4462 -0.4829
 5592TIP3    H238268   6.319   4.969   2.420 -1.4043  1.4146 -0.4010
 5593TIP3   OH238269   6.453   3.716  12.571  0.0947  0.8571 -0.1906
 5593TIP3    H138270   6.379   3.692  12.516  1.2532  0.6242 -1.6673
 5593TIP3    H238271   6.443   3.661  12.649 -0.5729 -0.0794 -0.9284
 5594TIP3   OH238272   0.684   3.346   3.938  0.2354  0.0755 -0.4799
 5594TIP3    H138273   0.590   3.356   3.954 -0.0185  0.3306 -2.1008
 5594TIP3    H238274   0.726   3.388   4.013 -0.9440 -1.9102  1.3554
 5595TIP3   OH238275   4.184   5.806   5.348 -0.0203  0.3313 -0.3421
 5595TIP3    H138276   4.238   5.837   5.276 -1.0982 -0.4609 -1.5278
 5595TIP3    H238277   4.245   5.784   5.418  1.0796  0.5434 -1.2387
 5596TIP3   OH238278   6.115   4.802   3.998 -0.6876  0.3921  0.4848
 5596TIP3    H138279   6.079   4.890   3.992 -1.8581 -0.1465 -0.9047
 5596TIP3    H238280   6.209   4.814   4.008 -1.1818  1.8369  4.0878
 5597TIP3   OH238281   4.241   5.197  13.942  0.0788  0.5799  0.5981
 5597TIP3    H138282   4.236   5.284  13.903  0.2797  0.0902 -0.5340
 5597TIP3    H238283   4.257   5.138  13.869 -2.1639 -0.6777  1.0585
 5598TIP3   OH238284   5.253   5.856  13.842 -0.0856 -0.5294 -0.4924
 5598TIP3    H138285   5.309   5.899  13.778 -0.2520 -2.4011 -1.9049
 5598TIP3    H238286   5.267   5.763  13.829 -2.4264 -1.0063  0.1086
 5599TIP3   OH238287   1.608   6.394   7.028  0.1142  0.6850  0.2791
 5599TIP3    H138288   1.654   6.320   7.068 -0.3718  0.3727  0.2568
 5599TIP3    H238289   1.533   6.408   7.085 -1.0126 -0.2565 -0.9618
 5600TIP3   OH238290   5.855   5.951   2.883 -0.4843 -0.1123 -0.2893
 5600TIP3    H138291   5.874   5.883   2.818 -1.5331 -0.0735 -0.6455
 5600TIP3    H238292   5.765   5.933   2.910 -0.1765  0.0955  0.8893
 5601TIP3   OH238293   0.821   5.987  11.307  0.4077 -0.4485  0.1120
 5601TIP3    H138294   0.785   5.909  11.266  1.7224 -0.8017 -0.4017
 5601TIP3    H238295   0.914   5.986  11.283  0.5178  1.0627  0.4128
 5602TIP3   OH238296   4.493   3.568  12.836  0.8658 -0.9749 -0.5307
 5602TIP3    H138297   4.484   3.472  12.838 -1.4274 -0.7867 -0.8471
 5602TIP3    H238298   4.557   3.587  12.904  1.2173 -2.7163 -0.3321
 5603TIP3   OH238299   6.707   5.916   1.337  0.3373  0.1894  0.4084
 5603TIP3    H138300   6.782   5.973   1.321  1.1961 -1.1037 -0.2739
 5603TIP3    H238301   6.718   5.887   1.427  1.3992 -1.0672 -0.1207
 5604TIP3   OH238302   6.315   5.356   5.729  0.1127  0.5244 -0.4126
 5604TIP3    H138303   6.335   5.315   5.813  1.8857  1.1092 -0.5312
 5604TIP3    H238304   6.220   5.371   5.731 -0.4042 -2.4742  0.1169
 5605TIP3   OH238305   4.152   2.391   0.929  0.5060  0.2632 -0.1518
 5605TIP3    H138306   4.116   2.376   0.842  0.3416  2.1862 -0.4293
 5605TIP3    H238307   4.161   2.486   0.935  0.9435  0.1109  1.7604
 5606TIP3   OH238308   2.712   0.562  12.851  0.4862  0.2964 -0.3048
 5606TIP3    H138309   2.736   0.634  12.908 -1.0710  1.6222 -1.2727
 5606TIP3    H238310   2.746   0.484  12.895 -1.1751  1.1983  2.6947
 5607TIP3   OH238311   5.934   4.084  16.318 -0.6287 -0.0552  0.2136
 5607TIP3    H138312   5.913   4.135  16.240 -0.8216  0.2000  0.4295
 5607TIP3    H238313   6.029   4.094  16.329 -0.2520 -1.8135 -1.1756
 5608TIP3   OH238314   0.519   4.514   1.145 -0.6733 -0.0254  0.0643
 5608TIP3    H138315   0.604   4.484   1.113 -0.0083  1.5358  0.3060
 5608TIP3    H238316   0.458   4.445   1.120 -0.2424  1.2358 -4.8910
 5609TIP3   OH238317   3.833   6.249   4.908  0.3024 -0.2492  0.3052
 5609TIP3    H138318   3.763   6.184   4.901  0.7795 -0.6421 -1.0320
 5609TIP3    H238319   3.843   6.282   4.819  1.4541  0.1862  0.5915
 5610TIP3   OH238320   6.371   1.539  11.818 -0.3873  0.0739 -0.6212
 5610TIP3    H138321   6.454   1.554  11.864 -1.5197  1.2055  1.0921
 5610TIP3    H238322   6.384   1.579  11.732  0.9612 -0.0370 -0.4814
 5611TIP3   OH238323   1.550   0.568  10.972  0.2925  0.4016 -0.5647
 5611TIP3    H138324   1.612   0.511  11.019  0.7968  1.0689 -0.4119
 5611TIP3    H238325   1.572   0.557  10.880  1.7817  1.9277 -0.4148
 5612TIP3   OH238326   5.999   0.887  13.356 -0.0895 -0.2469 -0.0907
 5612TIP3    H138327   5.903   0.887  13.360 -0.1191  1.3731 -0.6115
 5612TIP3    H238328   6.022   0.975  13.329  1.5573 -0.6834 -0.1627
 5613TIP3   OH238329   6.008   0.563   0.214  0.1986  0.0056  0.2846
 5613TIP3    H138330   6.035   0.575   0.123 -1.7171 -1.1745 -0.4711
 5613TIP3    H238331   6.085   0.528   0.258  0.9589  0.0389 -1.0164
 5614TIP3   OH238332   1.641   5.137   5.867 -0.5306 -0.5688 -0.3330
 5614TIP3    H138333   1.657   5.045   5.886  0.1197 -0.4580 -0.3436
 5614TIP3    H238334   1.640   5.180   5.952  2.9387  0.0180 -0.5082
 5615TIP3   OH238335   5.128   2.655   0.673 -0.7362  0.1305  0.3494
 5615TIP3    H138336   5.048   2.626   0.629 -1.2357 -0.5970  1.7057
 5615TIP3    H238337   5.107   2.742   0.706 -0.2360  0.8337 -1.1414
 5616TIP3   OH238338   5.407   0.814  14.347 -0.1494  0.0216  0.5519
 5616TIP3    H138339   5.448   0.816  14.260 -1.4209 -0.6798 -0.0661
 5616TIP3    H238340   5.469   0.767  14.402 -0.6316 -2.0520 -0.6506
 5617TIP3   OH238341   2.694   3.318   5.382 -0.5539 -0.2364 -0.5563
 5617TIP3    H138342   2.627   3.296   5.318 -2.6508 -0.2393  1.5618
 5617TIP3    H238343   2.713   3.237   5.428 -0.3399  0.1223  0.0038
 5618TIP3   OH238344   3.901   5.578   1.518 -0.2452  0.0953  0.4548
 5618TIP3    H138345   3.848   5.604   1.443 -2.0944 -0.7282  1.4314
 5618TIP3    H238346   3.899   5.483   1.517 -1.0248  0.0679  2.0182
 5619TIP3   OH238347   6.056   6.082  16.699  0.5142  0.2658 -0.2857
 5619TIP3    H138348   6.088   6.169  16.724 -0.9913  1.1928 -1.4372
 5619TIP3    H238349   6.111   6.057  16.625  0.7123  0.4020 -0.1868
 5620TIP3   OH238350   1.340   3.770  17.175  0.0411 -0.0475 -0.3595
 5620TIP3    H138351   1.254   3.754  17.214  0.4771  1.5090  1.2836
 5620TIP3    H238352   1.321   3.809  17.090 -0.8881 -0.2210 -0.2368
 5621TIP3   OH238353   6.469   6.703  12.908  0.6734 -0.2178  0.0788
 5621TIP3    H138354   6.489   6.613  12.933  0.7313 -0.0749  0.5373
 5621TIP3    H238355   6.438   6.696  12.817 -3.1127 -1.1876  1.3629
 5622TIP3   OH238356   0.645   3.352   3.385  0.7503  0.3198 -0.3877
 5622TIP3    H138357   0.728   3.323   3.422 -0.9730 -0.5467  2.9873
 5622TIP3    H238358   0.649   3.448   3.388  1.0220  0.2662  1.2126
 5623TIP3   OH238359   4.854   6.525   1.363 -0.0834 -0.2816  0.6104
 5623TIP3    H138360   4.762   6.498   1.364  0.3320 -1.7001  1.0274
 5623TIP3    H238361   4.851   6.618   1.341 -1.4871 -0.8596 -1.7994
 5624TIP3   OH238362   4.408   6.177  16.780 -0.3823  0.4122 -0.1947
 5624TIP3    H138363   4.482   6.169  16.841 -1.2357  0.1635  0.8324
 5624TIP3    H238364   4.333   6.196  16.837 -1.5567 -1.7393 -0.9926
 5625TIP3   OH238365   2.116   3.561   5.777  0.1659 -0.3043  0.5139
 5625TIP3    H138366   2.209   3.550   5.797  0.0932  2.0607  2.2975
 5625TIP3    H238367   2.071   3.507   5.843  0.2487 -1.6871 -0.5336
 5626TIP3   OH238368   1.313   2.301  12.928 -0.1283 -0.4032 -0.5527
 5626TIP3    H138369   1.340   2.381  12.973  1.3410 -1.8866  1.2840
 5626TIP3    H238370   1.271   2.332  12.848 -1.2113  2.2511  0.9638
 5627TIP3   OH238371   0.770   0.047  15.539 -0.5405 -0.7402  0.4403
 5627TIP3    H138372   0.755  -0.011  15.465 -1.7735 -0.0891  0.1690
 5627TIP3    H238373   0.865   0.041  15.555 -0.4988 -2.0743 -0.1804
 5628TIP3   OH238374   1.202   6.084  16.059  0.4844 -0.7209  0.2674
 5628TIP3    H138375   1.213   6.126  16.144  1.1963  1.0547 -0.6771
 5628TIP3    H238376   1.152   6.148  16.007 -1.8838 -2.6859  0.0014
 5629TIP3   OH238377   6.817   3.686  12.621 -0.2429 -0.2919  0.5326
 5629TIP3    H138378   6.758   3.612  12.629  0.6716 -1.4148 -2.4448
 5629TIP3    H238379   6.774   3.745  12.560  0.4638  0.1802  0.4803
 5630TIP3   OH238380   6.211   1.057   3.252  0.2574 -0.6720  0.6599
 5630TIP3    H138381   6.261   0.985   3.213  0.5097 -0.8095  1.2350
 5630TIP3    H238382   6.173   1.020   3.331 -1.0721 -0.6722  0.0319
 5631TIP3   OH238383   4.089   1.142  15.531 -0.1819  0.0176  0.2032
 5631TIP3    H138384   4.126   1.178  15.451  1.5616 -2.4207 -0.1337
 5631TIP3    H238385   4.032   1.072  15.502 -0.3677 -0.1939  1.0527
 5632TIP3   OH238386   6.378   4.817   2.159 -0.5731 -0.0446  0.3917
 5632TIP3    H138387   6.361   4.873   2.235 -0.2341 -1.3246  1.4115
 5632TIP3    H238388   6.446   4.756   2.188  1.6427  1.2638 -1.8236
 5633TIP3   OH238389   4.050   0.038  14.331 -0.3772 -0.1454  0.0747
 5633TIP3    H138390   4.068   0.131  14.317 -0.3502 -0.1518  0.0663
 5633TIP3    H238391   4.037   0.002  14.243  0.8559 -0.4028 -0.0106
 5634TIP3   OH238392   2.860   4.254  17.152  0.0002 -0.3479  0.6754
 5634TIP3    H138393   2.792   4.200  17.111  0.1998  0.8312 -1.2561
 5634TIP3    H238394   2.813   4.303  17.220 -0.5353 -1.5751  1.2091
 5635TIP3   OH238395   6.093   4.001  16.672 -0.4616  0.0636  0.0362
 5635TIP3    H138396   6.026   3.932  16.666  0.5893 -1.0982  1.4447
 5635TIP3    H238397   6.060   4.059  16.741 -0.8593  0.4342 -0.4638
 5636TIP3   OH238398   6.059   3.708  12.234 -0.8673 -0.3663 -0.3236
 5636TIP3    H138399   5.976   3.660  12.232  0.6268 -3.0421 -0.8276
 5636TIP3    H238400   6.111   3.668  12.164  0.4603  2.0261 -0.7611
 5637TIP3   OH238401   3.603   0.339   3.872 -0.0862 -0.2902 -0.1795
 5637TIP3    H138402   3.606   0.433   3.890  0.4282 -0.1961 -0.6972
 5637TIP3    H238403   3.557   0.301   3.946 -1.8324  0.5780 -0.8022
 5638TIP3   OH238404   3.667   3.987   6.584 -0.1567 -0.1823  0.2567
 5638TIP3    H138405   3.580   4.026   6.582  0.0419  0.2649  0.2043
 5638TIP3    H238406   3.724   4.056   6.618  0.2542 -0.3124 -0.1584
 5639TIP3   OH238407   0.441   2.648   4.977 -0.0804 -0.0514 -0.0302
 5639TIP3    H138408   0.471   2.558   4.990 -1.4267 -0.5054  0.0237
 5639TIP3    H238409   0.365   2.656   5.033 -1.9587  0.0632 -2.5101
 5640TIP3   OH238410   5.633   5.071  13.123  0.0432  0.4243  0.5617
 5640TIP3    H138411   5.614   5.164  13.115 -1.5870 -0.0687 -1.4627
 5640TIP3    H238412   5.696   5.052  13.054  2.4134  0.5235  2.6208
 5641TIP3   OH238413   2.520   1.098   2.209 -0.4070  0.0811  0.2959
 5641TIP3    H138414   2.525   1.070   2.301  0.9444 -0.1438  0.1717
 5641TIP3    H238415   2.612   1.105   2.182 -0.7990 -1.4560 -1.5229
 5642TIP3   OH238416   6.107   2.620  14.610  0.4961 -0.1893 -0.0591
 5642TIP3    H138417   6.049   2.693  14.590 -0.3549  0.0774  3.1149
 5642TIP3    H238418   6.049   2.543  14.610  0.7757 -0.4010 -0.2114
 5643TIP3   OH238419   6.265   4.819   4.814 -0.0437  0.4894  0.0478
 5643TIP3    H138420   6.327   4.772   4.870  0.7174 -1.4426 -2.3042
 5643TIP3    H238421   6.185   4.766   4.816  0.3347 -0.1795 -1.4631
 5644TIP3   OH238422   0.141   5.808  12.931  0.5512  0.3363  0.2632
 5644TIP3    H138423   0.081   5.866  12.979  1.3247  1.7359 -0.4239
 5644TIP3    H238424   0.167   5.742  12.996 -0.0680  0.9582  1.1608
 5645TIP3   OH238425   6.500   5.066  12.056  0.1110 -0.5309  0.3183
 5645TIP3    H138426   6.552   5.005  12.003  0.5372  0.7789 -0.7850
 5645TIP3    H238427   6.558   5.088  12.129  1.0585  0.7803 -0.8073
 5646TIP3   OH238428   4.033   6.339  15.166 -0.3836 -0.2079 -0.5261
 5646TIP3    H138429   3.939   6.334  15.188 -0.2690  0.6077  0.1956
 5646TIP3    H238430   4.040   6.298  15.080 -1.8491  2.1701 -1.8364
 5647TIP3   OH238431   3.916   3.058   5.018 -0.4931 -0.2712  0.2313
 5647TIP3    H138432   3.989   3.011   4.979 -0.4267  0.7437 -0.8731
 5647TIP3    H238433   3.952   3.143   5.043 -0.5300 -0.8948  2.5254
 5648TIP3   OH238434   5.528   0.098  15.224  0.2801 -0.1949 -0.4806
 5648TIP3    H138435   5.499   0.068  15.137  0.4670  1.0542 -0.9864
 5648TIP3    H238436   5.453   0.084  15.280 -1.4753  3.2510 -1.8357
 5649TIP3   OH238437   1.221   3.765  15.791 -0.0009 -0.5198 -0.0720
 5649TIP3    H138438   1.304   3.730  15.758 -0.2533 -0.9718 -0.2447
 5649TIP3    H238439   1.163   3.764  15.714 -0.9096 -2.5823  0.5839
 5650TIP3   OH238440   4.294   3.211   1.274  0.5508 -0.4878 -0.5804
 5650TIP3    H138441   4.298   3.201   1.179 -1.2575  2.1065 -0.9951
 5650TIP3    H238442   4.210   3.253   1.290 -0.4648 -3.4112  2.4483
 5651TIP3   OH238443   5.849   2.229  14.529  0.5976 -0.2727 -0.6853
 5651TIP3    H138444   5.786   2.159  14.550  0.9747 -0.2129  0.7143
 5651TIP3    H238445   5.910   2.189  14.468  1.8722 -1.7763  1.4748
 5652TIP3   OH238446   0.348   4.725   2.674 -1.2726  0.7623  0.0725
 5652TIP3    H138447   0.294   4.662   2.625 -0.3464  0.6947 -0.8753
 5652TIP3    H238448   0.314   4.811   2.647 -0.8256  0.7230 -0.6233
 5653TIP3   OH238449   4.312   4.651   3.698  0.6779 -0.5012 -0.1516
 5653TIP3    H138450   4.257   4.694   3.634  0.7420 -0.5355 -0.2291
 5653TIP3    H238451   4.371   4.720   3.730  1.0559 -0.6237 -0.5750
 5654TIP3   OH238452   1.434   6.608   5.583  0.2652  0.0749 -0.4151
 5654TIP3    H138453   1.477   6.672   5.526 -0.4020  1.1749  0.2990
 5654TIP3    H238454   1.341   6.613   5.559  0.2347 -0.7630 -0.4856
 5655TIP3   OH238455   5.659   6.642  12.626 -0.2910  0.2061 -0.0498
 5655TIP3    H138456   5.636   6.575  12.562 -1.1605  0.3702  0.0810
 5655TIP3    H238457   5.751   6.625  12.646 -0.4936 -0.9358 -0.0288
 5656TIP3   OH238458   0.893   6.023  16.023 -0.1583  0.6475  0.0769
 5656TIP3    H138459   0.987   6.035  16.039 -0.0407 -0.1819  0.0235
 5656TIP3    H238460   0.857   6.112  16.025  1.0396  1.2622 -2.5080
 5657TIP3   OH238461   1.452   3.885   4.184  0.0803 -0.0628  0.0335
 5657TIP3    H138462   1.542   3.911   4.165  0.4466 -0.1065  1.6171
 5657TIP3    H238463   1.445   3.796   4.150  0.4556  0.1503 -0.6051
 5658TIP3   OH238464   2.475   3.371  16.165 -0.4634 -0.0426  0.2412
 5658TIP3    H138465   2.401   3.422  16.199 -0.6523  0.2940 -0.6460
 5658TIP3    H238466   2.447   3.345  16.077  0.7517  0.6765 -0.3716
 5659TIP3   OH238467   0.331   4.619  11.914  0.3966 -0.2386 -0.3192
 5659TIP3    H138468   0.310   4.533  11.950  0.2622 -0.1667 -0.2255
 5659TIP3    H238469   0.295   4.618  11.825 -2.1266  0.7473  0.6566
 5660TIP3   OH238470   0.412   4.542   2.098 -0.4311  0.4490 -0.1706
 5660TIP3    H138471   0.455   4.557   2.015  0.3977 -2.7121 -0.3677
 5660TIP3    H238472   0.423   4.625   2.146  0.1335  1.8808 -2.6823
 5661TIP3   OH238473   3.927   6.307  17.057  0.7959 -0.1685  0.0899
 5661TIP3    H138474   3.870   6.263  16.994 -0.3867  0.8682  0.3938
 5661TIP3    H238475   3.875   6.310  17.138  1.2208  0.9374  0.3330
 5662TIP3   OH238476   3.397   3.650   4.492  0.3143  0.2710  0.4330
 5662TIP3    H138477   3.366   3.576   4.440 -0.1171  1.4973 -1.0743
 5662TIP3    H238478   3.316   3.694   4.520  0.6192  1.1857 -0.1426
 5663TIP3   OH238479   2.832   2.003   6.836  0.2801  0.3098 -0.6186
 5663TIP3    H138480   2.753   1.952   6.818  0.6288 -0.8436  1.0304
 5663TIP3    H238481   2.799   2.087   6.869 -0.2595 -0.3540  0.5577
 5664TIP3   OH238482   5.815   3.433  12.794 -0.0688  0.3266  0.3104
 5664TIP3    H138483   5.734   3.410  12.748  0.6808  0.8468 -1.3116
 5664TIP3    H238484   5.882   3.376  12.756  0.4167  0.2021  1.3312
 5665TIP3   OH238485   3.983   2.833  16.572 -0.1430 -0.5732 -0.7060
 5665TIP3    H138486   4.072   2.867  16.587 -1.1055  1.2930  1.0956
 5665TIP3    H238487   3.988   2.790  16.487  2.1888  0.5564 -1.1931
 5666TIP3   OH238488   4.540   6.490   3.611 -0.3658  0.5116  0.8775
 5666TIP3    H138489   4.621   6.531   3.639  0.0826  0.8733 -0.8794
 5666TIP3    H238490   4.520   6.426   3.680  1.8230 -0.1302  0.9585
 5667TIP3   OH238491   3.997   1.790   4.405  0.5384 -0.8942  0.2617
 5667TIP3    H138492   4.032   1.793   4.316 -0.3941 -1.1698 -0.1200
 5667TIP3    H238493   4.037   1.712   4.444 -0.0851 -1.5279 -0.3581
 5668TIP3   OH238494   3.694   3.389  13.694  0.5866  0.1955 -0.0439
 5668TIP3    H138495   3.773   3.342  13.720  1.1118  1.0753 -0.0256
 5668TIP3    H238496   3.712   3.419  13.605 -0.3232 -0.8914 -0.6124
 5669TIP3   OH238497   6.525   1.492   5.497  0.0722 -0.0251  0.6485
 5669TIP3    H138498   6.515   1.489   5.592 -0.9838  0.0556  0.5460
 5669TIP3    H238499   6.580   1.569   5.480 -0.9047  0.7733  1.0972
 5670TIP3   OH238500   4.273   2.315  13.819 -0.1441  0.3737 -0.0908
 5670TIP3    H138501   4.289   2.399  13.777  1.2976  1.7481  3.0424
 5670TIP3    H238502   4.204   2.332  13.883 -1.6053 -1.4437 -1.1029
 5671TIP3   OH238503   0.440   0.909   3.050 -0.4126  0.2743 -0.2735
 5671TIP3    H138504   0.421   0.820   3.020 -0.3214  0.3345 -0.5120
 5671TIP3    H238505   0.355   0.945   3.076 -0.2735 -0.3398  1.0780
 5672TIP3   OH238506   0.834   0.287   6.437  0.1506  0.4549  0.0123
 5672TIP3    H138507   0.779   0.209   6.433  0.3792  0.2541  0.7776
 5672TIP3    H238508   0.897   0.268   6.507 -1.1177  2.1854  1.6665
 5673TIP3   OH238509   2.457   5.207  16.179  0.7988 -0.0408 -0.0786
 5673TIP3    H138510   2.454   5.232  16.086 -1.2483  1.2082  0.2779
 5673TIP3    H238511   2.479   5.288  16.224  0.7882 -0.4117  0.5918
 5674TIP3   OH238512   5.281   1.814  13.782 -0.5753  0.4674 -0.5960
 5674TIP3    H138513   5.325   1.730  13.796 -1.1386  0.0528 -1.2930
 5674TIP3    H238514   5.294   1.862  13.864  0.2415 -0.0721 -0.4087
 5675TIP3   OH238515   0.127   5.963   3.306  0.1303 -0.1957  0.8769
 5675TIP3    H138516   0.147   6.024   3.377  0.0923  1.1027 -0.1889
 5675TIP3    H238517   0.186   5.889   3.320  0.7419  0.4413  1.7500
 5676TIP3   OH238518   0.364   1.864  15.433 -0.2096  0.4445 -0.3061
 5676TIP3    H138519   0.286   1.919  15.433 -0.3956  0.1819 -0.6733
 5676TIP3    H238520   0.330   1.775  15.448  0.1884  0.5734  1.5427
 5677TIP3   OH238521   5.088   2.627  17.002 -0.0016  0.4305 -0.2574
 5677TIP3    H138522   5.029   2.563  16.963  0.9525  0.4854 -1.8102
 5677TIP3    H238523   5.093   2.602  17.094 -1.0410 -0.6444 -0.4883
 5678TIP3   OH238524   5.209   3.327  15.958 -0.1155 -0.0717  0.0311
 5678TIP3    H138525   5.286   3.271  15.956  0.4855  0.7578 -0.5811
 5678TIP3    H238526   5.228   3.396  15.894 -1.0388  0.5569  0.4234
 5679TIP3   OH238527   6.711   4.254   6.837  0.5164 -0.5350 -0.0864
 5679TIP3    H138528   6.690   4.204   6.915  1.4597  0.7236  0.9984
 5679TIP3    H238529   6.630   4.252   6.785 -0.0776 -1.4826  0.8456
 5680TIP3   OH238530   1.342   3.911   1.712  0.3156  0.1666 -0.4876
 5680TIP3    H138531   1.274   3.911   1.645 -0.9175  1.7425  0.7025
 5680TIP3    H238532   1.372   3.820   1.716 -1.5789 -0.5178 -1.2065
 5681TIP3   OH238533   2.810   3.920  13.094 -0.6064  0.6119 -0.0068
 5681TIP3    H138534   2.895   3.889  13.065 -1.1841 -1.4433  0.4474
 5681TIP3    H238535   2.826   3.959  13.180 -0.2327 -0.3288  0.3502
 5682TIP3   OH238536   3.548   0.115   2.267 -0.0172 -0.2730 -0.2026
 5682TIP3    H138537   3.541   0.202   2.307  1.2236 -0.5627  0.6952
 5682TIP3    H238538   3.529   0.129   2.174  1.0792  1.1318 -0.2325
 5683TIP3   OH238539   2.194   2.839   6.440 -0.0622 -0.1077 -0.5999
 5683TIP3    H138540   2.186   2.745   6.457  2.9965 -0.4430 -0.7923
 5683TIP3    H238541   2.111   2.863   6.399 -1.3705 -2.4572  0.5886
 5684TIP3   OH238542   5.028   4.149  14.091 -0.1467 -0.0215  0.1252
 5684TIP3    H138543   5.061   4.078  14.145 -0.4915 -1.5380 -1.6293
 5684TIP3    H238544   4.958   4.189  14.143  0.3616 -0.6541  1.3023
 5685TIP3   OH238545   3.064   2.479   0.254  0.1029 -0.5254  0.0366
 5685TIP3    H138546   3.154   2.496   0.283  0.3012 -0.2148 -0.7311
 5685TIP3    H238547   3.072   2.468   0.159 -0.5142 -1.6103  0.1046
 5686TIP3   OH238548   6.450   0.671  15.101 -0.0892 -0.1068 -0.7979
 5686TIP3    H138549   6.521   0.691  15.041 -0.2711  2.0946 -0.3264
 5686TIP3    H238550   6.493   0.653  15.185 -0.0267  0.3970 -0.7192
 5687TIP3   OH238551   4.270   3.943   6.294 -0.2683  0.3193 -0.0884
 5687TIP3    H138552   4.221   3.917   6.216 -0.4704  0.2884  0.0497
 5687TIP3    H238553   4.356   3.967   6.261  0.8653 -3.2450  0.0835
 5688TIP3   OH238554   3.446   1.041  10.132 -0.2868 -0.2610 -0.5449
 5688TIP3    H138555   3.452   1.106  10.062  0.5786 -1.3672 -1.5145
 5688TIP3    H238556   3.536   1.010  10.144 -0.4980 -0.3785  0.7724
 5689TIP3   OH238557   0.046   0.928  12.336 -0.5681  0.2840  0.8272
 5689TIP3    H138558   0.085   1.011  12.307  0.7119 -0.9242 -0.9585
 5689TIP3    H238559   0.102   0.900  12.409  0.2678 -0.0660  0.0555
 5690TIP3   OH238560   0.819   6.315  11.223 -0.1375 -0.3285  0.1950
 5690TIP3    H138561   0.850   6.271  11.302 -0.3625 -2.5783 -0.9433
 5690TIP3    H238562   0.727   6.291  11.216  0.1791 -1.1853 -1.4023
 5691TIP3   OH238563   5.118   4.917  10.652 -0.0763  0.5979  0.6726
 5691TIP3    H138564   5.166   4.899  10.571  0.8871 -0.0235  1.3613
 5691TIP3    H238565   5.083   4.831  10.678 -0.4460  0.8099  0.8770
 5692TIP3   OH238566   1.118   3.833  13.551  0.0758 -0.3826  0.5041
 5692TIP3    H138567   1.135   3.740  13.538 -0.5135 -0.7135  1.9886
 5692TIP3    H238568   1.181   3.860  13.618 -0.7344 -0.0529  1.1372
 5693TIP3   OH238569   1.086   0.111  11.535 -0.0692  0.0118 -0.4348
 5693TIP3    H138570   1.108   0.203  11.546  1.5022 -0.5044  0.8324
 5693TIP3    H238571   1.127   0.086  11.452  0.9414  0.0286  0.0525
 5694TIP3   OH238572   4.030   1.660   2.369 -0.3677 -0.5672  0.6491
 5694TIP3    H138573   4.109   1.634   2.417  0.5560 -0.8462 -0.9885
 5694TIP3    H238574   4.009   1.584   2.315 -1.0431 -0.0441  0.1741
 5695TIP3   OH238575   3.624   0.469  11.469  0.5146  0.2397 -0.0504
 5695TIP3    H138576   3.578   0.475  11.385  1.3856 -0.8028 -0.6092
 5695TIP3    H238577   3.555   0.445  11.532 -0.4182  2.4799 -0.1761
 5696TIP3   OH238578   4.031   0.768   5.093  0.1221  0.9270 -0.2549
 5696TIP3    H138579   4.102   0.789   5.153  2.3715  1.3622 -2.9853
 5696TIP3    H238580   4.005   0.679   5.117  1.0949  1.0332  1.2381
 5697TIP3   OH238581   5.694   4.693   4.225 -0.4282  0.3885 -0.0225
 5697TIP3    H138582   5.738   4.743   4.294 -0.1948 -1.0713  0.9096
 5697TIP3    H238583   5.765   4.654   4.175 -0.6225  0.1170 -0.0882
 5698TIP3   OH238584   1.103   2.576   2.474  0.1301 -0.1056 -1.0544
 5698TIP3    H138585   1.190   2.611   2.455  0.1014  1.4625  1.4422
 5698TIP3    H238586   1.120   2.497   2.525  0.1141  1.1928  1.0191
 5699TIP3   OH238587   5.120   2.992   2.329  0.3719 -0.2237  0.2993
 5699TIP3    H138588   5.126   3.065   2.390 -2.1242  1.5532 -1.5073
 5699TIP3    H238589   5.206   2.987   2.288  0.9683  0.8302  1.4146
 5700TIP3   OH238590   2.580   6.585   2.702  0.0687  0.6182 -0.1256
 5700TIP3    H138591   2.489   6.592   2.731  0.0152  1.6319 -0.5558
 5700TIP3    H238592   2.576   6.589   2.607  0.3482 -1.7437 -0.2787
 5701TIP3   OH238593   2.535   1.470   2.653 -0.2301  0.0871 -0.5344
 5701TIP3    H138594   2.479   1.510   2.720 -0.4823 -0.5090 -0.3882
 5701TIP3    H238595   2.509   1.378   2.652 -0.4596  0.1521 -1.6770
 5702TIP3   OH238596   6.472   3.876  12.858  0.0871  0.3958  0.1371
 5702TIP3    H138597   6.419   3.801  12.831 -0.4341  0.7293  0.2249
 5702TIP3    H238598   6.466   3.937  12.785  0.6355  0.2885  0.0017
 5703TIP3   OH238599   0.360   2.908   0.465  0.3941 -0.3806 -0.4939
 5703TIP3    H138600   0.354   2.828   0.517  1.9341 -0.3602 -0.2698
 5703TIP3    H238601   0.282   2.906   0.410 -0.1272 -1.4999  0.2540
 5704TIP3   OH238602   5.688   3.306  14.519  0.4774 -0.5228  0.1973
 5704TIP3    H138603   5.708   3.343  14.606  1.5868 -2.6531  0.9016
 5704TIP3    H238604   5.712   3.375  14.458  0.5204  0.6965  1.5488
 5705TIP3   OH238605   2.019   2.870  13.967  0.2737  0.2527  0.4893
 5705TIP3    H138606   2.002   2.895  14.058 -0.8345  0.3937  0.2450
 5705TIP3    H238607   2.109   2.838  13.968 -0.5372 -2.0768  2.1270
 5706TIP3   OH238608   1.044   4.585   5.646  0.1923 -0.0336  0.1182
 5706TIP3    H138609   1.113   4.556   5.705  3.2601  2.1709 -2.2038
 5706TIP3    H238610   1.003   4.660   5.689  1.4655  0.6812  0.0910
 5707TIP3   OH238611   0.343   1.984  14.138 -0.3174 -0.4021  0.6742
 5707TIP3    H138612   0.299   2.068  14.121 -1.7474 -1.3933 -0.6932
 5707TIP3    H238613   0.361   1.949  14.051  2.0159 -0.6498  1.2321
 5708TIP3   OH238614   2.777   3.620   6.745 -0.3106  0.4501  0.9510
 5708TIP3    H138615   2.825   3.693   6.705 -0.5825  0.9684  1.5604
 5708TIP3    H238616   2.843   3.571   6.793 -0.3621  1.0873  1.6801
 5709TIP3   OH238617   5.670   3.812  14.372 -0.5236 -0.2967  0.4316
 5709TIP3    H138618   5.575   3.808  14.365 -0.4135 -2.2976 -0.4518
 5709TIP3    H238619   5.697   3.874  14.304 -1.1338 -0.4314  0.0670
 5710TIP3   OH238620   1.811   0.545  13.387  0.7294 -0.0986  0.0506
 5710TIP3    H138621   1.897   0.584  13.367  0.0311  0.8428 -1.2023
 5710TIP3    H238622   1.781   0.510  13.303 -1.0497  1.5102 -0.0243
 5711TIP3   OH238623   2.447   4.425   2.743 -0.4799  0.7065 -0.7039
 5711TIP3    H138624   2.493   4.405   2.824 -1.0764  0.6020 -0.3891
 5711TIP3    H238625   2.368   4.370   2.746  1.8064 -2.9923 -3.5751
 5712TIP3   OH238626   1.458   1.908  15.437 -0.8854 -0.3019 -0.6395
 5712TIP3    H138627   1.362   1.914  15.443 -0.9443  0.5878 -2.2152
 5712TIP3    H238628   1.477   1.919  15.344  0.7075 -1.2224 -0.4410
 5713TIP3   OH238629   3.656   5.289   1.275  0.5510  0.0062  0.1458
 5713TIP3    H138630   3.619   5.204   1.299  1.9669 -0.6142  0.1509
 5713TIP3    H238631   3.591   5.352   1.306 -0.4152 -1.0537  0.3302
 5714TIP3   OH238632   5.534   5.993   4.060  0.5593 -0.4404 -0.4096
 5714TIP3    H138633   5.581   6.056   4.004  0.2198  2.4252  2.3557
 5714TIP3    H238634   5.603   5.949   4.109  0.5916  1.1773  1.0334
 5715TIP3   OH238635   5.442   4.324   3.573  0.0794 -0.6905  0.8559
 5715TIP3    H138636   5.480   4.395   3.521  0.1254  0.1082  1.9538
 5715TIP3    H238637   5.453   4.246   3.519  1.0601 -0.0530  0.1166
 5716TIP3   OH238638   3.478   6.456   0.586 -0.1271 -0.1090  0.3593
 5716TIP3    H138639   3.460   6.364   0.567  0.2348 -0.0871 -0.1055
 5716TIP3    H238640   3.423   6.477   0.662  0.9519 -1.1290  1.4337
 5717TIP3   OH238641   1.175   4.157   2.397 -0.2864 -0.0633 -0.2161
 5717TIP3    H138642   1.105   4.107   2.440 -0.7827 -0.2166 -1.1950
 5717TIP3    H238643   1.135   4.190   2.317  0.6766  0.1054 -0.6320
 5718TIP3   OH238644   0.638   5.165  15.530 -0.5898  0.0876 -1.2481
 5718TIP3    H138645   0.625   5.087  15.584  0.4869  2.4172  2.5260
 5718TIP3    H238646   0.729   5.158  15.500  0.2320  0.9435  0.9524
 5719TIP3   OH238647   6.260   4.731  10.695 -0.2931 -0.1147 -0.6131
 5719TIP3    H138648   6.190   4.721  10.759  0.2368 -0.8297 -0.1431
 5719TIP3    H238649   6.341   4.718  10.744  0.2660  2.0562 -0.8675
 5720TIP3   OH238650   1.639   6.508   3.932  0.7790  0.2932  0.0212
 5720TIP3    H138651   1.556   6.519   3.886  0.1940 -0.1338  0.9945
 5720TIP3    H238652   1.663   6.597   3.960  0.9062  0.4876 -0.6827
 5721TIP3   OH238653   3.699   3.042   4.814  0.4462 -0.3894 -0.7149
 5721TIP3    H138654   3.671   3.100   4.885  0.1749 -1.4642  0.0756
 5721TIP3    H238655   3.794   3.036   4.825  0.6340  0.8843 -1.5649
 5722TIP3   OH238656   3.054   4.589  15.139  0.1849  0.7051 -0.6410
 5722TIP3    H138657   2.971   4.630  15.166 -0.1910 -0.8194  0.6302
 5722TIP3    H238658   3.098   4.569  15.222  1.2038  0.2797 -1.2845
 5723TIP3   OH238659   2.337   5.187   4.389  0.0550  0.1155 -0.1552
 5723TIP3    H138660   2.261   5.185   4.447  0.5874  2.4161  0.6558
 5723TIP3    H238661   2.302   5.213   4.304 -0.4258 -1.3173 -0.4072
 5724TIP3   OH238662   2.711   1.298   5.878  0.2712 -0.0419 -0.2036
 5724TIP3    H138663   2.620   1.324   5.884  1.3304  3.9726 -0.1813
 5724TIP3    H238664   2.738   1.283   5.969 -0.5169 -2.0486 -0.2668
 5725TIP3   OH238665   1.636   0.565  15.650 -0.6448  0.6289  0.3023
 5725TIP3    H138666   1.559   0.514  15.674 -0.3629  0.0959  0.0730
 5725TIP3    H238667   1.694   0.557  15.726  0.5425 -1.6308 -0.7904
 5726TIP3   OH238668   6.207   1.067   0.330 -0.4365 -0.5880 -0.0886
 5726TIP3    H138669   6.168   1.125   0.395  0.9717  0.3473 -0.0507
 5726TIP3    H238670   6.163   1.089   0.248  0.6361  1.1152 -0.2296
 5727TIP3   OH238671   1.545   1.172   2.155 -0.2143 -0.1922 -0.1521
 5727TIP3    H138672   1.590   1.107   2.101 -1.5149 -1.4250  0.2099
 5727TIP3    H238673   1.463   1.190   2.107 -0.6899 -0.1846  0.6611
 5728TIP3   OH238674   1.844   2.454   0.972  0.1448 -0.1214  0.1266
 5728TIP3    H138675   1.906   2.382   0.962 -0.0912 -0.4533  1.0427
 5728TIP3    H238676   1.760   2.418   0.942  0.3116  0.2182 -0.7737
 5729TIP3   OH238677   3.677   4.799  10.893 -0.1103  0.3387 -0.5832
 5729TIP3    H138678   3.612   4.798  10.963 -0.3145  0.5927 -0.7665
 5729TIP3    H238679   3.759   4.822  10.936 -0.1523  0.0628 -0.3584
 5730TIP3   OH238680   3.965   2.144   2.550  0.3257  0.2263 -0.2351
 5730TIP3    H138681   4.013   2.176   2.627  2.8327 -0.3471 -1.4895
 5730TIP3    H238682   3.999   2.056   2.536 -1.4799 -0.3796 -0.9182
 5731TIP3   OH238683   4.075   3.278  16.294 -0.0056 -0.6173 -0.0202
 5731TIP3    H138684   4.156   3.279  16.243 -0.2596 -1.9134 -0.4730
 5731TIP3    H238685   4.101   3.245  16.380  0.0920 -0.2062  0.1086
 5732TIP3   OH238686   2.097   1.750  15.747 -0.6152 -0.1431 -0.2756
 5732TIP3    H138687   2.061   1.676  15.796  0.1765 -0.7890 -0.6623
 5732TIP3    H238688   2.069   1.827  15.796 -1.2993 -0.7067  0.2249
 5733TIP3   OH238689   0.253   1.523  10.825  0.3754  0.2894  0.0876
 5733TIP3    H138690   0.207   1.545  10.744  1.0801  1.5506  0.0196
 5733TIP3    H238691   0.346   1.521  10.800  0.3765 -2.3397  0.1950
 5734TIP3   OH238692   2.111   6.790  17.030 -0.1311 -0.0005  0.2799
 5734TIP3    H138693   2.129   6.864  16.973  0.1888 -1.0240 -0.9741
 5734TIP3    H238694   2.138   6.713  16.979 -0.1727 -0.9585  1.6650
 5735TIP3   OH238695   2.573   0.629  13.637  0.1456  0.1285 -0.3128
 5735TIP3    H138696   2.509   0.575  13.684 -0.1013 -1.0961 -2.0048
 5735TIP3    H238697   2.590   0.702  13.695  0.6433 -1.8799  2.1542
 5736TIP3   OH238698   1.168   1.233  11.494  0.0497 -0.5656 -1.0945
 5736TIP3    H138699   1.156   1.308  11.553 -0.3138 -0.7107 -0.9836
 5736TIP3    H238700   1.258   1.242  11.463  0.0797 -0.2025 -0.9130
 5737TIP3   OH238701   4.610   6.784   3.175 -0.1014  0.4857  0.6170
 5737TIP3    H138702   4.617   6.868   3.130 -0.5847  0.2948  0.1782
 5737TIP3    H238703   4.555   6.731   3.117  0.1987 -0.1284  0.8898
 5738TIP3   OH238704   0.301   4.746   0.481  0.0807 -0.7553 -0.1429
 5738TIP3    H138705   0.350   4.664   0.489  1.7315  0.3444  1.5464
 5738TIP3    H238706   0.212   4.724   0.509  0.5228 -1.9728  0.3281
 5739TIP3   OH238707   5.412   5.653  16.307  0.0724 -0.4228  0.3040
 5739TIP3    H138708   5.446   5.638  16.219 -0.4315  0.9170 -0.1264
 5739TIP3    H238709   5.356   5.730  16.299  1.4930  0.8599  2.1723
 5740TIP3   OH238710   3.132   2.310  16.581 -0.5096  0.2089 -0.3221
 5740TIP3    H138711   3.205   2.372  16.572  0.2743 -1.0867 -3.3884
 5740TIP3    H238712   3.135   2.258  16.501 -2.1435 -2.7554  1.4803
 5741TIP3   OH238713   5.395   2.703  10.567  0.0349  0.0633  0.2517
 5741TIP3    H138714   5.438   2.736  10.647  0.0000  1.8942 -0.4470
 5741TIP3    H238715   5.411   2.609  10.568 -0.6453 -0.0633  2.8286
 5742TIP3   OH238716   4.424   3.920   0.648  0.1634 -0.5690 -0.6766
 5742TIP3    H138717   4.399   4.000   0.694  0.1059 -0.3085 -1.1534
 5742TIP3    H238718   4.380   3.850   0.695  0.4298 -0.3474 -0.0906
 5743TIP3   OH238719   1.240   0.017  10.525  0.2773 -0.0942 -0.2124
 5743TIP3    H138720   1.303  -0.017  10.589  1.2564  1.2089 -0.4527
 5743TIP3    H238721   1.186   0.078  10.576  0.7987  0.6397 -0.5238
 5744TIP3   OH238722   0.606   5.649  16.328  0.0483 -0.4018  0.4310
 5744TIP3    H138723   0.562   5.590  16.267 -1.1699 -0.1910  1.0792
 5744TIP3    H238724   0.589   5.737  16.294 -0.5236 -0.2917  0.9881
 5745TIP3   OH238725   5.744   1.283  11.507  0.3846 -0.2154 -0.2491
 5745TIP3    H138726   5.739   1.271  11.412 -0.8172  1.6945 -0.4611
 5745TIP3    H238727   5.835   1.307  11.523  0.1825  1.3050 -1.1929
 5746TIP3   OH238728   5.515   5.003   0.457  0.5635  0.0969 -0.0945
 5746TIP3    H138729   5.522   4.956   0.374  0.7465 -1.2137  0.6617
 5746TIP3    H238730   5.510   5.096   0.431 -0.7278 -0.3775 -1.6351
 5747TIP3   OH238731   3.818   2.683   2.223 -0.1351 -0.2389  0.1612
 5747TIP3    H138732   3.792   2.693   2.132  2.3776 -2.2597 -0.8312
 5747TIP3    H238733   3.848   2.770   2.249 -1.8978  0.6128 -0.5656
 5748TIP3   OH238734   1.686   4.612  16.063 -0.4194 -0.1501 -0.3988
 5748TIP3    H138735   1.624   4.637  15.995 -0.2201  0.2216 -0.4410
 5748TIP3    H238736   1.772   4.627  16.025 -0.3090  0.6950  0.1631
 5749TIP3   OH238737   5.783   2.927   0.328  0.1188 -0.8140 -0.6375
 5749TIP3    H138738   5.844   2.880   0.270  2.6663 -0.1655  1.4428
 5749TIP3    H238739   5.822   3.014   0.339 -0.5191 -0.7937  1.7489
 5750TIP3   OH238740   2.794   4.794   2.120  0.5201 -0.0519 -0.0993
 5750TIP3    H138741   2.889   4.795   2.135  0.5915  0.9498 -0.5682
 5750TIP3    H238742   2.758   4.847   2.192  0.3971  0.2579 -0.3842
 5751TIP3   OH238743   0.863   3.250   5.574 -0.4377  0.0913  0.1020
 5751TIP3    H138744   0.847   3.191   5.648 -1.5039  0.5929  0.2868
 5751TIP3    H238745   0.780   3.251   5.526  0.2652 -0.2589 -1.1257
 5752TIP3   OH238746   3.498   4.614  11.068 -0.2452  0.5461  0.0269
 5752TIP3    H138747   3.563   4.604  11.137  0.6434  2.5251 -0.4849
 5752TIP3    H238748   3.503   4.531  11.019 -0.2879 -0.5234  1.7720
 5753TIP3   OH238749   4.208   6.303  14.025  0.2578 -0.0583  0.4911
 5753TIP3    H138750   4.194   6.389  14.065 -2.7733 -0.5691  0.6666
 5753TIP3    H238751   4.154   6.244  14.076  0.4135 -1.6420 -1.1301
 5754TIP3   OH238752   0.951   6.174  14.492  0.1071 -0.1642 -0.1156
 5754TIP3    H138753   0.875   6.193  14.437  0.0008  0.2512  0.1773
 5754TIP3    H238754   1.019   6.149  14.430 -0.0305  0.2488 -0.4313
 5755TIP3   OH238755   6.265   3.034  12.227  0.1382  0.9142 -0.5584
 5755TIP3    H138756   6.176   3.062  12.251 -0.2164 -0.2401 -0.5010
 5755TIP3    H238757   6.267   2.941  12.249  0.4806  0.2783 -3.1177
 5756TIP3   OH238758   2.559   6.360   4.538 -0.3282  0.0092  0.4480
 5756TIP3    H138759   2.630   6.416   4.505 -0.6100  0.3307  0.3961
 5756TIP3    H238760   2.482   6.416   4.541 -0.3893 -0.1108  1.3307
 5757TIP3   OH238761   3.215   0.332  13.531 -0.2949  0.1623 -0.3233
 5757TIP3    H138762   3.268   0.391  13.477 -0.2309 -0.1508 -0.6034
 5757TIP3    H238763   3.168   0.390  13.591  2.2798  0.2680  1.6421
 5758TIP3   OH238764   1.776   4.797   3.904  0.1264  0.2105  0.5242
 5758TIP3    H138765   1.691   4.765   3.935  0.8835 -1.9599  0.4106
 5758TIP3    H238766   1.783   4.764   3.815  1.3169 -0.0772  0.7133
 5759TIP3   OH238767   2.206   3.466   2.848  0.4344  0.2176 -0.3406
 5759TIP3    H138768   2.273   3.406   2.880  0.3668  0.4531  0.2593
 5759TIP3    H238769   2.211   3.541   2.908 -0.2037  0.3362 -0.4326
 5760TIP3   OH238770   5.123   1.453  12.957  0.2300 -0.1853 -0.3828
 5760TIP3    H138771   5.112   1.510  13.033 -2.1791 -2.9483  1.4757
 5760TIP3    H238772   5.098   1.507  12.882 -0.1300  1.7457  1.0966
 5761TIP3   OH238773   0.525   0.519   5.338 -0.4976  0.1797 -0.4546
 5761TIP3    H138774   0.573   0.474   5.269 -2.2019 -2.1561 -0.1737
 5761TIP3    H238775   0.592   0.545   5.401  0.6702 -0.8076 -1.2558
 5762TIP3   OH238776   6.291   5.558  12.637 -0.3213  0.0174 -0.1053
 5762TIP3    H138777   6.367   5.511  12.603 -0.2070  1.9222 -2.6484
 5762TIP3    H238778   6.327   5.641  12.670 -0.8597 -0.5156  1.8870
 5763TIP3   OH238779   2.666   5.517   2.649 -0.1675  0.5406  0.4572
 5763TIP3    H138780   2.754   5.555   2.659 -0.5851  1.2917  1.3865
 5763TIP3    H238781   2.608   5.581   2.690 -1.0868 -0.2396  0.3832
 5764TIP3   OH238782   5.110   1.921  12.220 -0.2595 -0.0836 -0.7974
 5764TIP3    H138783   5.094   1.965  12.136 -1.1781  0.9858 -0.0822
 5764TIP3    H238784   5.024   1.890  12.248  0.1546 -1.0435 -0.5803
 5765TIP3   OH238785   2.651   5.583  17.167 -1.0189  0.5790 -0.7940
 5765TIP3    H138786   2.585   5.515  17.181 -1.1389  0.5992 -1.2571
 5765TIP3    H238787   2.652   5.632  17.250 -0.5088 -0.3475 -0.2433
 5766TIP3   OH238788   1.782   3.738  13.325 -0.6886 -0.4536 -0.1873
 5766TIP3    H138789   1.818   3.824  13.346  1.0566 -0.8802 -1.3339
 5766TIP3    H238790   1.689   3.754  13.309 -0.1568  1.4322 -1.5489
 5767TIP3   OH238791   0.014   3.697   0.844  0.2387 -0.8766 -0.5845
 5767TIP3    H138792   0.009   3.619   0.790 -0.2924 -1.2050 -0.0635
 5767TIP3    H238793  -0.057   3.753   0.812 -0.5619 -1.3938  0.2790
 5768TIP3   OH238794   2.513   0.282  13.029  0.7287  0.0997  0.4184
 5768TIP3    H138795   2.498   0.199  13.074 -1.8979 -0.5096 -1.5092
 5768TIP3    H238796   2.483   0.348  13.090  2.1197 -0.3858  1.6587
 5769TIP3   OH238797   3.741   4.133  16.359  0.2363  0.3088  0.8041
 5769TIP3    H138798   3.813   4.193  16.341  0.1999 -0.6345 -3.0423
 5769TIP3    H238799   3.662   4.183  16.339 -0.0124  0.2735  1.6784
 5770TIP3   OH238800   0.740   0.811  15.825  0.7917  0.4468 -0.3003
 5770TIP3    H138801   0.694   0.748  15.881 -0.8238  2.5526  0.8133
 5770TIP3    H238802   0.730   0.776  15.737 -1.8732  0.1904  0.0746
 5771TIP3   OH238803   0.082   6.429   2.024 -0.7490  0.0912  0.4856
 5771TIP3    H138804   0.021   6.367   1.985 -0.3728 -2.6928  4.0148
 5771TIP3    H238805   0.031   6.475   2.091 -0.6846  2.7217 -1.2231
 5772TIP3   OH238806   4.405   6.122   3.989 -0.4510  0.3333  0.4605
 5772TIP3    H138807   4.390   6.184   4.060 -2.7918  1.3166 -0.8583
 5772TIP3    H238808   4.359   6.043   4.015  1.6395 -0.5363  1.6416
 5773TIP3   OH238809   5.392   5.797  12.035  0.2686 -0.0182  0.0316
 5773TIP3    H138810   5.339   5.809  12.114  1.0369  0.3179  0.5010
 5773TIP3    H238811   5.395   5.884  11.996  0.1637 -0.1171 -0.1925
 5774TIP3   OH238812   6.331   1.421  11.013 -0.6443 -0.5351 -1.0031
 5774TIP3    H138813   6.274   1.352  10.978  0.2961 -1.1565 -1.3228
 5774TIP3    H238814   6.276   1.467  11.077 -1.9757 -0.2041 -2.3412
 5775TIP3   OH238815   3.786   1.164   0.678  0.4476  0.2656  0.4029
 5775TIP3    H138816   3.854   1.101   0.656  0.5105  0.6640 -0.5878
 5775TIP3    H238817   3.833   1.238   0.718  0.6021  0.5289 -0.2558
 5776TIP3   OH238818   2.797   1.485  14.996 -0.2701  0.1114 -0.8748
 5776TIP3    H138819   2.713   1.447  15.022 -0.1222  0.8553  0.7443
 5776TIP3    H238820   2.804   1.566  15.047  1.3292  0.1749 -1.1608
 5777TIP3   OH238821   4.783   3.397   5.830  0.0616 -0.1029 -0.5498
 5777TIP3    H138822   4.821   3.371   5.914 -0.2513 -0.7483 -0.6010
 5777TIP3    H238823   4.706   3.339   5.821 -0.4614  0.6323 -0.8157
 5778TIP3   OH238824   3.522   1.662   4.809 -0.3510 -0.2422  0.3459
 5778TIP3    H138825   3.514   1.721   4.884 -0.9859  0.1208 -0.0029
 5778TIP3    H238826   3.608   1.622   4.819 -0.0914  0.4290  0.8165
 5779TIP3   OH238827   0.912   2.871   4.661  0.4929  0.3991  0.2064
 5779TIP3    H138828   0.857   2.802   4.700 -0.1057  1.6261  1.5866
 5779TIP3    H238829   0.881   2.877   4.571  0.1169 -0.7100  0.2481
 5780TIP3   OH238830   6.247   2.424   4.122 -0.2651  0.3928 -0.5576
 5780TIP3    H138831   6.187   2.496   4.140 -0.4565  0.2923 -0.7783
 5780TIP3    H238832   6.191   2.346   4.125  0.0903  0.1669  0.4923
 5781TIP3   OH238833   2.874   5.024   3.988  0.4230 -0.8503 -0.0679
 5781TIP3    H138834   2.924   5.070   4.055 -1.6216 -0.6250  1.3652
 5781TIP3    H238835   2.878   4.932   4.014  1.3667 -1.0195 -0.8112
 5782TIP3   OH238836   6.127   5.019  15.187 -0.3698  0.3785  0.6546
 5782TIP3    H138837   6.161   4.986  15.269 -0.1474  0.3621  0.5556
 5782TIP3    H238838   6.042   5.056  15.209 -0.1078  0.7907  0.9789
 5783TIP3   OH238839   0.535   3.965   0.302  0.1677 -0.2534 -0.2134
 5783TIP3    H138840   0.523   3.979   0.208 -1.8503 -0.3329  0.0082
 5783TIP3    H238841   0.539   4.054   0.339 -0.8946 -0.2222 -0.1655
 5784TIP3   OH238842   2.103   4.438  11.408  0.3310 -0.3766  0.2596
 5784TIP3    H138843   2.162   4.418  11.335 -0.0807 -1.6193  0.2426
 5784TIP3    H238844   2.051   4.358  11.418 -0.5807  0.3062  0.9953
 5785TIP3   OH238845   5.250   1.977  14.011  0.6383 -0.8132 -0.7969
 5785TIP3    H138846   5.203   2.061  14.019 -1.8102 -2.1156 -0.9638
 5785TIP3    H238847   5.309   1.976  14.086 -1.3102 -0.1275  0.8082
 5786TIP3   OH238848   3.583   6.237  12.976 -0.2070  0.1679  0.0674
 5786TIP3    H138849   3.608   6.181  12.902  0.0360 -1.0977  1.0885
 5786TIP3    H238850   3.487   6.233  12.977 -0.1674 -0.7902  0.5518
 5787TIP3   OH238851   4.736   0.645   2.494 -0.0935 -0.5220 -0.3600
 5787TIP3    H138852   4.831   0.633   2.484  0.3061  1.2551  1.0077
 5787TIP3    H238853   4.719   0.626   2.586 -1.1375 -1.2040 -0.6874
 5788TIP3   OH238854   0.737   3.959   1.846  0.3657  0.0342 -0.4792
 5788TIP3    H138855   0.676   3.930   1.779 -0.8836  2.1430 -0.2914
 5788TIP3    H238856   0.686   3.957   1.927  0.3497  2.3326 -0.4062
 5789TIP3   OH238857   1.723   1.490  11.752 -0.3868  0.4694  0.2355
 5789TIP3    H138858   1.733   1.404  11.793 -0.2923 -0.0660 -0.8764
 5789TIP3    H238859   1.779   1.548  11.803  1.6314 -0.6869 -0.5852
 5790TIP3   OH238860   2.165   5.393  16.154 -0.4224 -0.2161  0.2150
 5790TIP3    H138861   2.137   5.481  16.129 -0.0101 -0.1917 -0.1722
 5790TIP3    H238862   2.220   5.364  16.081  0.0421 -0.5022  0.6726
 5791TIP3   OH238863   2.072   4.842  11.007  0.9435  0.4552 -0.0590
 5791TIP3    H138864   2.030   4.801  10.931 -1.2580 -0.1031  1.3907
 5791TIP3    H238865   2.039   4.932  11.007  0.4859  0.2913  0.5419
 5792TIP3   OH238866   5.684   3.385   4.405  0.4089 -0.3761 -0.8410
 5792TIP3    H138867   5.746   3.397   4.477  0.4138  0.3776 -0.9692
 5792TIP3    H238868   5.672   3.290   4.399 -1.3576 -0.3726  1.6669
 5793TIP3   OH238869   3.724   2.592   5.893  0.1376 -0.0053 -0.1761
 5793TIP3    H138870   3.751   2.682   5.912  0.4622  0.1345 -1.2481
 5793TIP3    H238871   3.639   2.583   5.937  1.0719  0.1371  1.6794
 5794TIP3   OH238872   3.646   3.647  13.844 -0.0507 -0.0419  0.0712
 5794TIP3    H138873   3.629   3.624  13.935  0.9173  1.2306  0.5803
 5794TIP3    H238874   3.666   3.563  13.802 -0.1614 -0.5869  1.0888
 5795TIP3   OH238875   6.162   2.512  15.406 -0.2814 -0.2829  0.6051
 5795TIP3    H138876   6.245   2.471  15.380 -1.0496 -1.6153  0.2573
 5795TIP3    H238877   6.151   2.488  15.498 -1.6065 -2.3796 -0.0665
 5796TIP3   OH238878   0.106   4.665  17.158 -0.1254  0.5193 -0.1570
 5796TIP3    H138879   0.201   4.673  17.158 -0.1002  0.2589  0.6666
 5796TIP3    H238880   0.080   4.686  17.068  0.8541 -1.3460 -0.8971
 5797TIP3   OH238881   2.303   2.894  15.818  0.0371  0.3359 -0.3141
 5797TIP3    H138882   2.247   2.840  15.873 -0.6486  0.2532 -1.0843
 5797TIP3    H238883   2.345   2.833  15.758 -1.3876  0.7292 -1.7505
 5798TIP3   OH238884   4.162   3.822   1.057  0.0692 -0.2988 -0.4494
 5798TIP3    H138885   4.215   3.812   0.978 -0.8287 -1.2654 -0.9407
 5798TIP3    H238886   4.086   3.873   1.028 -0.3204 -0.7593 -0.2433
 5799TIP3   OH238887   5.686   6.181   3.924 -0.0908  0.2866 -0.4507
 5799TIP3    H138888   5.643   6.254   3.878 -0.1514  0.1913 -0.5442
 5799TIP3    H238889   5.775   6.213   3.941  0.1593  0.0469 -1.2744
 5800TIP3   OH238890   4.638   5.061  13.104  0.5376  0.7376  0.6128
 5800TIP3    H138891   4.673   5.148  13.087  3.3493 -0.1922  1.4303
 5800TIP3    H238892   4.666   5.009  13.029 -1.6539  0.6487 -0.1723
 5801TIP3   OH238893   5.214   3.899  15.239 -0.0346  0.0212  0.4375
 5801TIP3    H138894   5.239   3.811  15.214  0.6579  0.8273 -1.8607
 5801TIP3    H238895   5.128   3.912  15.199 -0.6274  0.0190  1.6846
 5802TIP3   OH238896   2.359   3.847  14.710  0.0975 -0.0612 -0.6748
 5802TIP3    H138897   2.441   3.799  14.715  0.9814  1.4331 -0.5638
 5802TIP3    H238898   2.330   3.836  14.619  0.0861 -1.1008 -0.5523
 5803TIP3   OH238899   5.371   1.101   5.225 -0.9438 -0.1980  0.3848
 5803TIP3    H138900   5.350   1.116   5.133 -1.5312 -1.1193  0.3550
 5803TIP3    H238901   5.452   1.150   5.240  0.0829 -1.4022 -1.0685
 5804TIP3   OH238902   2.111   3.835   2.852 -0.4162  0.7847  0.2824
 5804TIP3    H138903   2.206   3.838   2.847 -0.3575  0.5862  1.2338
 5804TIP3    H238904   2.083   3.814   2.763  0.4487  0.3107  0.1216
 5805TIP3   OH238905   1.985   6.139   2.059 -0.3716  0.0648 -0.2536
 5805TIP3    H138906   1.966   6.199   1.986 -0.6407 -0.4862 -0.6389
 5805TIP3    H238907   1.899   6.107   2.086 -0.2214 -0.2085 -0.1013
 5806TIP3   OH238908   4.915   0.398  12.721  0.0051 -0.1470  0.0889
 5806TIP3    H138909   4.889   0.323  12.667 -2.7809  0.9612 -0.1777
 5806TIP3    H238910   4.925   0.363  12.809  0.5457 -1.1861 -0.3860
 5807TIP3   OH238911   0.379   0.542  11.527  0.5312  0.2843  0.0323
 5807TIP3    H138912   0.321   0.501  11.592 -0.5899  2.3636  0.3864
 5807TIP3    H238913   0.442   0.473  11.505 -1.0971 -1.5296  0.8258
 5808TIP3   OH238914   1.012   5.158  12.921  0.2846  0.4559  0.2886
 5808TIP3    H138915   1.059   5.232  12.882  1.2956  0.9038  2.3102
 5808TIP3    H238916   0.951   5.198  12.983  0.2202 -0.3566  0.7560
 5809TIP3   OH238917   5.888   1.488  16.532  0.0510 -0.3010  0.2614
 5809TIP3    H138918   5.892   1.403  16.576  0.5753  1.0613  2.9925
 5809TIP3    H238919   5.961   1.487  16.470  0.2748 -1.7002  0.5349
 5810TIP3   OH238920   2.807   2.414   2.788  0.3239  0.3071  0.7364
 5810TIP3    H138921   2.823   2.467   2.710 -3.4502 -1.2494 -1.2230
 5810TIP3    H238922   2.765   2.473   2.850  1.5000  1.0325  0.8583
 5811TIP3   OH238923   0.546   6.198   0.732  0.8017 -0.1057  0.5039
 5811TIP3    H138924   0.468   6.143   0.719 -0.1859  0.8341  2.2358
 5811TIP3    H238925   0.616   6.135   0.749  0.1256 -0.9266  0.3524
 5812TIP3   OH238926   6.132   6.542  15.054 -0.6341  0.1471  0.0119
 5812TIP3    H138927   6.092   6.458  15.033 -1.2227  0.4332 -0.0228
 5812TIP3    H238928   6.203   6.552  14.990 -0.0798 -0.6669  0.4950
 5813TIP3   OH238929   5.721   0.675  10.738  0.4852 -0.7780 -0.1453
 5813TIP3    H138930   5.740   0.731  10.662 -0.1159 -0.7857 -0.3056
 5813TIP3    H238931   5.807   0.646  10.769  0.7555 -0.4167 -0.5562
 5814TIP3   OH238932   6.611   0.835   2.830 -0.3893 -0.3183  0.4694
 5814TIP3    H138933   6.704   0.814   2.835 -0.8164 -2.0103  1.6082
 5814TIP3    H238934   6.571   0.785   2.901 -2.1708  0.3751 -0.0204
 5815TIP3   OH238935   5.472   4.633   5.831  0.3422 -0.0761  0.1508
 5815TIP3    H138936   5.476   4.595   5.919  0.9771 -1.7339 -0.5736
 5815TIP3    H238937   5.537   4.704   5.833 -0.2036  0.4096  1.2467
 5816TIP3   OH238938   0.789   4.374   3.181 -0.2551 -0.3514 -0.0050
 5816TIP3    H138939   0.816   4.448   3.126  0.7059  0.5152  1.5790
 5816TIP3    H238940   0.705   4.401   3.219  1.3036  1.0587  2.5670
 5817TIP3   OH238941   4.074   2.423  11.359 -0.6230 -0.2879 -0.2088
 5817TIP3    H138942   4.153   2.475  11.344  0.7968 -2.3431 -0.0759
 5817TIP3    H238943   4.034   2.417  11.272  1.3021 -2.2246 -1.0245
 5818TIP3   OH238944   1.280   6.090   3.857  0.4107 -0.0065 -0.0659
 5818TIP3    H138945   1.226   6.084   3.936  0.6114 -2.1707 -0.0837
 5818TIP3    H238946   1.369   6.103   3.890  0.3742 -0.0029  0.0312
 5819TIP3   OH238947   1.407   0.769  17.008 -0.1210 -0.1821  0.3590
 5819TIP3    H138948   1.472   0.766  16.938 -0.1296 -2.5238  0.4254
 5819TIP3    H238949   1.437   0.839  17.066  1.3196 -0.0097 -0.5844
 5820TIP3   OH238950   4.011   2.860  17.229  0.2426  0.1931 -0.6140
 5820TIP3    H138951   3.974   2.856  17.317  1.0851 -2.8515 -0.3404
 5820TIP3    H238952   3.960   2.797  17.178 -0.3952  2.0862 -2.3989
 5821TIP3   OH238953   6.557   3.487   5.110 -0.1875 -0.1136 -0.7563
 5821TIP3    H138954   6.503   3.565   5.097  1.0719  0.9181  0.2272
 5821TIP3    H238955   6.647   3.519   5.111  0.2686 -1.3760  1.1513
 5822TIP3   OH238956   1.831   3.542   2.827 -0.2949 -0.3735  0.3975
 5822TIP3    H138957   1.907   3.554   2.770  1.0618 -2.1171  1.7733
 5822TIP3    H238958   1.757   3.530   2.766  0.6981  0.2632 -0.9511
 5823TIP3   OH238959   3.302   5.848   3.023  0.0828  0.0396 -0.6511
 5823TIP3    H138960   3.209   5.841   3.003 -0.1064  1.1255 -0.1850
 5823TIP3    H238961   3.338   5.900   2.950  0.0186  1.0354  0.0188
 5824TIP3   OH238962   1.704   5.964  11.016 -0.2654  0.3175  0.1219
 5824TIP3    H138963   1.621   5.926  10.989  0.9430 -0.7542 -2.2086
 5824TIP3    H238964   1.696   6.057  10.994  0.2143 -0.3085 -2.8697
 5825TIP3   OH238965   5.357   3.762   2.886  0.3896  0.2567  0.4079
 5825TIP3    H138966   5.366   3.714   2.968  2.8094 -1.1241 -0.6250
 5825TIP3    H238967   5.279   3.725   2.844 -0.9061  1.0314  2.0869
 5826TIP3   OH238968   4.803   4.357  14.500 -0.2164 -0.1279 -0.0238
 5826TIP3    H138969   4.862   4.342  14.574 -0.5434 -0.1098  0.2374
 5826TIP3    H238970   4.723   4.310  14.523 -0.1737 -0.4633 -0.5479
 5827TIP3   OH238971   5.981   3.481  16.239 -0.2863  0.4606 -0.2481
 5827TIP3    H138972   5.983   3.387  16.254 -0.0684  0.3099 -1.1911
 5827TIP3    H238973   5.928   3.492  16.160 -0.8190  1.1744  0.1985
 5828TIP3   OH238974   6.083   0.213  12.885 -0.0727  0.3512  0.5401
 5828TIP3    H138975   6.123   0.208  12.798  1.6478  2.0696  1.1978
 5828TIP3    H238976   5.994   0.244  12.868  0.1107  0.2655 -0.6501
 5829TIP3   OH238977   1.655   6.520  14.449 -0.0614 -0.8484 -0.0772
 5829TIP3    H138978   1.741   6.539  14.485 -0.2100 -1.6112  0.6783
 5829TIP3    H238979   1.594   6.564  14.507 -0.2218 -0.8114 -0.2717
 5830TIP3   OH238980   3.107   0.906  13.209  0.0836 -0.1963 -0.2536
 5830TIP3    H138981   3.069   0.902  13.121 -0.0928  1.1960 -0.2412
 5830TIP3    H238982   3.151   0.990  13.213  1.0464 -0.7275  0.6221
 5831TIP3   OH238983   5.488   4.809  12.322  0.0722 -0.0809 -0.1863
 5831TIP3    H138984   5.433   4.741  12.284  2.7384 -1.8477 -1.0700
 5831TIP3    H238985   5.491   4.788  12.415  0.0930 -0.5872 -0.3011
 5832TIP3   OH238986   1.192   5.487   4.041 -0.3465  0.0536  0.1111
 5832TIP3    H138987   1.245   5.516   4.114  0.9171  0.7261 -1.0610
 5832TIP3    H238988   1.241   5.512   3.963 -3.0134  1.9571 -1.0451
 5833TIP3   OH238989   4.594   4.202   1.171 -0.7374 -0.3256  0.6105
 5833TIP3    H138990   4.550   4.120   1.152  1.6577 -1.8528  1.4688
 5833TIP3    H238991   4.523   4.265   1.186 -2.5797 -2.4817  1.0925
 5834TIP3   OH238992   5.206   5.782   5.898 -0.0713  0.2388 -0.0334
 5834TIP3    H138993   5.250   5.854   5.944 -0.5737  0.8694 -0.5355
 5834TIP3    H238994   5.271   5.711   5.898 -0.0943  0.1839  1.7205
 5835TIP3   OH238995   2.972   1.567  11.546  0.1920  0.3551 -0.6655
 5835TIP3    H138996   3.034   1.601  11.611 -0.4336  0.8459 -0.3145
 5835TIP3    H238997   2.959   1.476  11.571 -1.4595  1.0280  1.0276
 5836TIP3   OH238998   6.142   4.183  14.541 -0.4828  0.1691 -0.4547
 5836TIP3    H138999   6.134   4.134  14.622  1.9693  2.9561  1.5874
 5836TIP3    H239000   6.225   4.153  14.502 -0.1463  0.9508 -0.3673
 5837TIP3   OH239001   1.711   1.034   0.100 -0.2440  0.7126  0.6445
 5837TIP3    H139002   1.763   1.036   0.180  0.0972  1.9159  0.4018
 5837TIP3    H239003   1.760   1.089   0.039 -0.3784 -0.3894 -0.4724
 5838TIP3   OH239004   3.842   0.111   2.255  0.0881 -0.1127 -0.4252
 5838TIP3    H139005   3.766   0.148   2.210  0.2382  0.7455  0.0160
 5838TIP3    H239006   3.818   0.020   2.273  0.0271 -0.4852 -2.2533
 5839TIP3   OH239007   3.921   5.991   0.378 -0.7999 -0.2800  0.2248
 5839TIP3    H139008   3.834   6.024   0.355 -0.3921  0.2643 -0.5721
 5839TIP3    H239009   3.956   6.056   0.440  0.0483  0.8919 -1.4307
 5840TIP3   OH239010   6.636   5.256  12.666  0.7011 -0.1002 -0.0181
 5840TIP3    H139011   6.732   5.257  12.671  0.6838  0.0358  0.3402
 5840TIP3    H239012   6.613   5.163  12.662  0.9208 -0.1015 -1.7620
 5841TIP3   OH239013   3.244   6.143   3.348 -0.3766  0.3187 -0.4334
 5841TIP3    H139014   3.192   6.171   3.424 -1.3225 -1.6279 -0.3222
 5841TIP3    H239015   3.180   6.137   3.276  0.1579  0.3517 -0.9136
 5842TIP3   OH239016   5.107   2.842   0.268 -0.2152  0.3159 -0.4640
 5842TIP3    H139017   5.197   2.812   0.276  0.2021  1.2748 -1.4977
 5842TIP3    H239018   5.091   2.893   0.348  0.1886  0.2311 -0.3309
 5843TIP3   OH239019   5.335   6.694  15.289  0.1952 -0.0888 -0.3705
 5843TIP3    H139020   5.316   6.639  15.213 -2.6743 -0.6759  0.7236
 5843TIP3    H239021   5.422   6.666  15.317 -0.3884 -2.7279 -1.0267
 5844TIP3   OH239022   1.106   2.031  11.790  0.0641 -0.0558  0.1377
 5844TIP3    H139023   1.055   2.099  11.746 -0.4208  0.4987  1.5359
 5844TIP3    H239024   1.180   2.015  11.731 -0.6470  0.5605 -0.9462
 5845TIP3   OH239025   5.978   5.819   3.109 -0.5305 -0.0622  0.1098
 5845TIP3    H139026   6.012   5.886   3.169  0.9717 -0.5671 -0.1532
 5845TIP3    H239027   5.925   5.869   3.046 -0.1522  0.7705  0.4357
 5846TIP3   OH239028   2.295   6.778   0.269  0.1931  0.1048 -0.6044
 5846TIP3    H139029   2.337   6.859   0.298  0.0466  0.4159 -1.2484
 5846TIP3    H239030   2.237   6.805   0.198 -0.1941 -0.5024 -0.5237
 5847TIP3   OH239031   1.792   3.434  14.175  0.0569  0.5898 -0.2249
 5847TIP3    H139032   1.800   3.529  14.179  0.7326  0.5857 -1.2255
 5847TIP3    H239033   1.700   3.419  14.153  0.5374  1.1123 -2.7699
 5848TIP3   OH239034   4.501   6.792   1.223 -0.3532 -0.1220  0.3766
 5848TIP3    H139035   4.464   6.880   1.236  0.2332  0.3457 -1.1051
 5848TIP3    H239036   4.478   6.745   1.304  0.0184  1.6273  1.5424
 5849TIP3   OH239037   5.429   3.957   1.559 -0.1767  0.0427  0.4916
 5849TIP3    H139038   5.506   3.954   1.502 -0.5001 -0.6551  0.0846
 5849TIP3    H239039   5.460   3.920   1.642 -0.5489 -2.0418 -0.2570
 5850TIP3   OH239040   4.947   6.316   5.641  0.1236  0.4090 -0.1946
 5850TIP3    H139041   5.023   6.283   5.592 -0.7027  0.8812 -1.8279
 5850TIP3    H239042   4.985   6.362   5.715  1.4387  0.5637 -0.9376
 5851TIP3   OH239043   1.152   1.753  10.930  0.6810  0.4980 -0.2556
 5851TIP3    H139044   1.192   1.711  11.006  2.3246  1.1428 -0.7413
 5851TIP3    H239045   1.064   1.775  10.959  1.0121  0.0062  1.1974
 5852TIP3   OH239046   2.512   4.839   3.969  0.1431  0.1250  0.3041
 5852TIP3    H139047   2.572   4.892   3.917  1.1220  0.6740  1.9334
 5852TIP3    H239048   2.496   4.762   3.916  1.4462  0.4734 -0.6257
 5853TIP3   OH239049   2.185   1.182   2.930 -0.3148 -0.4628  0.3979
 5853TIP3    H139050   2.118   1.195   2.998  1.8106 -0.3641  2.5570
 5853TIP3    H239051   2.250   1.250   2.947  2.3448 -3.0377  0.9394
 5854TIP3   OH239052   5.987   2.749   1.311 -0.3551 -1.2464  0.5477
 5854TIP3    H139053   5.927   2.693   1.261 -1.0103 -0.7574  0.7741
 5854TIP3    H239054   6.070   2.744   1.262 -1.5848  0.9846 -1.9083
 5855TIP3   OH239055   4.841   5.947  14.090  0.7197  0.0718 -0.3486
 5855TIP3    H139056   4.810   5.883  14.026 -0.3776  0.4876 -0.2416
 5855TIP3    H239057   4.818   5.908  14.175 -0.6899  0.9723 -0.3067
 5856TIP3   OH239058   1.789   4.347  12.720 -0.5496 -0.2616 -0.1717
 5856TIP3    H139059   1.716   4.400  12.687  0.4741  1.6454  0.5166
 5856TIP3    H239060   1.829   4.309  12.642 -2.1520 -1.1566 -0.5625
 5857TIP3   OH239061   5.695   2.256   1.884 -0.5169 -0.2242  0.0214
 5857TIP3    H139062   5.619   2.237   1.939 -1.0474  1.0243 -0.2534
 5857TIP3    H239063   5.730   2.338   1.919  1.2504 -1.2460  0.7063
 5858TIP3   OH239064   4.402   4.820   4.382  0.3538  0.8074 -0.5490
 5858TIP3    H139065   4.481   4.862   4.348  1.6570 -3.0373 -2.5181
 5858TIP3    H239066   4.431   4.771   4.458  0.0076 -1.0132 -1.5623
 5859TIP3   OH239067   5.187   6.486  15.919  0.2130 -0.0962  0.1944
 5859TIP3    H139068   5.130   6.410  15.911  0.4389 -0.4005  1.4395
 5859TIP3    H239069   5.153   6.534  15.994  0.7849  0.4192  0.1300
 5860TIP3   OH239070   6.058   5.064   5.005  0.5604  0.0573 -0.3165
 5860TIP3    H139071   5.995   5.001   4.970  0.2046  0.1844  0.0866
 5860TIP3    H239072   6.064   5.132   4.937 -0.1939  0.3466 -0.1022
 5861TIP3   OH239073   2.795   5.780  14.615 -0.4150  0.0118  0.4546
 5861TIP3    H139074   2.813   5.692  14.647 -2.5307  0.7955  4.1368
 5861TIP3    H239075   2.879   5.827  14.625 -0.2998 -0.5438  2.3656
 5862TIP3   OH239076   0.092   5.953  11.023 -0.2687 -0.2280 -0.6421
 5862TIP3    H139077   0.087   6.039  10.981 -2.7815  0.7754  1.6263
 5862TIP3    H239078   0.036   5.897  10.968 -0.8173  0.2537 -0.5835
 5863TIP3   OH239079   4.495   6.778  16.607  0.2186 -0.3805 -0.1733
 5863TIP3    H139080   4.591   6.772  16.607  0.2973  0.6482  0.6382
 5863TIP3    H239081   4.469   6.738  16.690 -0.0337 -0.3378 -0.2309
 5864TIP3   OH239082   6.493   6.638   0.758 -0.0375 -0.3630  0.0346
 5864TIP3    H139083   6.483   6.585   0.837 -3.3246 -0.5543 -0.4165
 5864TIP3    H239084   6.570   6.602   0.714  0.4370 -1.8083  1.9696
 5865TIP3   OH239085   2.628   3.986   2.362 -0.0980  0.1715 -0.0627
 5865TIP3    H139086   2.589   4.068   2.393 -0.7569  0.8502 -2.5307
 5865TIP3    H239087   2.702   4.014   2.308  2.7630 -1.0463  2.9959
 5866TIP3   OH239088   4.202   2.581   0.575  0.6892  0.1586  0.0693
 5866TIP3    H139089   4.175   2.601   0.665  1.0899  0.0345  0.2214
 5866TIP3    H239090   4.180   2.660   0.525  0.8520  0.3936  0.3626
 5867TIP3   OH239091   2.602   3.453  14.509  0.5055 -0.5138  0.3890
 5867TIP3    H139092   2.694   3.481  14.509  0.9270 -1.8536 -0.6411
 5867TIP3    H239093   2.557   3.520  14.458  0.6023  1.0568  2.3144
 5868TIP3   OH239094   1.003   0.280  17.155 -0.1959 -0.5004 -0.2570
 5868TIP3    H139095   1.052   0.324  17.086 -0.9532  0.0243 -0.4669
 5868TIP3    H239096   0.943   0.347  17.188  1.4761 -0.1572  2.2110
 5869TIP3   OH239097   4.254   6.230   3.399  0.4761  0.2293  0.1946
 5869TIP3    H139098   4.241   6.237   3.305  0.1127  0.4626  0.2599
 5869TIP3    H239099   4.169   6.201   3.433  0.6758 -0.0941  0.4235
 5870TIP3   OH239100   2.870   6.117  12.616  0.1096  0.3457 -0.0856
 5870TIP3    H139101   2.831   6.049  12.560  0.8211  0.4205 -0.6783
 5870TIP3    H239102   2.928   6.070  12.675 -0.2213  0.3236  0.2222
 5871TIP3   OH239103   1.883   5.475   0.182  0.4050 -0.2648  0.3243
 5871TIP3    H139104   1.914   5.532   0.252 -0.1005 -1.3356  1.4480
 5871TIP3    H239105   1.793   5.454   0.207  0.4367 -1.1698 -0.3106
 5872TIP3   OH239106   6.199   3.048  13.254  0.0046  0.2055 -0.3563
 5872TIP3    H139107   6.280   2.999  13.269  0.2742  1.3934  2.3690
 5872TIP3    H239108   6.136   3.008  13.313 -0.7606  0.7861 -0.7736
 5873TIP3   OH239109   1.434   2.419  11.929 -0.3248  1.1273  0.4372
 5873TIP3    H139110   1.439   2.325  11.950  0.5480  0.7795 -1.2619
 5873TIP3    H239111   1.470   2.426  11.841 -0.0045  3.1286  0.7050
 5874TIP3   OH239112   5.061   4.742  11.780  0.1081  0.0369 -0.2181
 5874TIP3    H139113   4.998   4.796  11.828  0.2619  0.0533 -0.0324
 5874TIP3    H239114   5.137   4.799  11.769  1.1741 -0.8767  2.0295
 5875TIP3   OH239115   0.241   2.941   5.126  0.4284  0.0877 -0.4348
 5875TIP3    H139116   0.227   2.847   5.137  0.3692  0.2290  0.7313
 5875TIP3    H239117   0.154   2.980   5.133  0.7637  0.4758  1.7099
 5876TIP3   OH239118   2.860   2.699  13.780 -0.1996 -0.1719  0.2063
 5876TIP3    H139119   2.815   2.694  13.696 -2.4299 -0.8416  1.3939
 5876TIP3    H239120   2.951   2.676  13.760 -1.3320 -3.5452 -1.5159
 5877TIP3   OH239121   3.494   3.077  14.805 -0.1141  0.4813 -0.2827
 5877TIP3    H139122   3.514   3.033  14.722 -0.1182  0.9765 -0.5492
 5877TIP3    H239123   3.516   3.012  14.872  0.9820  0.4917 -0.6211
 5878TIP3   OH239124   6.027   0.940   2.836 -0.0868  0.0995 -0.2566
 5878TIP3    H139125   6.067   1.015   2.880  0.5496 -0.2499 -0.2282
 5878TIP3    H239126   5.940   0.970   2.810 -0.0325  0.6720  0.2302
 5879TIP3   OH239127   4.555   5.795   5.696  0.0798 -0.2336 -0.5062
 5879TIP3    H139128   4.565   5.800   5.791  1.9845  0.7849 -0.7276
 5879TIP3    H239129   4.539   5.885   5.669 -1.1600 -0.6231 -1.0882
 5880TIP3   OH239130   0.393   4.418  15.421 -0.2486 -0.1945 -0.1658
 5880TIP3    H139131   0.337   4.450  15.492 -1.1731  0.7045 -1.2874
 5880TIP3    H239132   0.450   4.353  15.463 -1.2171 -0.1400  1.2637
 5881TIP3   OH239133   4.124   5.694   3.122 -0.2479  0.1818  0.4894
 5881TIP3    H139134   4.154   5.611   3.158 -0.4702  0.3129  0.9768
 5881TIP3    H239135   4.197   5.725   3.068 -0.4102 -0.6424 -0.2122
 5882TIP3   OH239136   5.855   1.033  16.628 -0.1840 -0.1662 -0.6803
 5882TIP3    H139137   5.797   0.976  16.679 -0.6489  2.2170  1.5774
 5882TIP3    H239138   5.943   0.996  16.641 -0.0254  1.3884  3.4958
 5883TIP3   OH239139   3.470   0.762   0.178  0.1240 -0.1686  0.3389
 5883TIP3    H139140   3.383   0.800   0.191  0.1765  0.5125 -1.2115
 5883TIP3    H239141   3.471   0.686   0.236 -0.9483  0.6837  1.4926
 5884TIP3   OH239142   4.112   0.512  15.105  0.1221  0.1961 -0.7646
 5884TIP3    H139143   4.027   0.519  15.150 -0.7928 -1.6079 -2.1492
 5884TIP3    H239144   4.136   0.603  15.086 -1.1417  0.7749  0.3027
 5885TIP3   OH239145   3.146   5.872   2.797 -0.1863  0.1084 -1.0079
 5885TIP3    H139146   3.145   5.951   2.743 -0.1303 -0.2424 -1.5253
 5885TIP3    H239147   3.089   5.893   2.871 -1.4870  0.0668 -1.9682
 5886TIP3   OH239148   1.746   3.890  12.210  0.0430 -0.6013 -0.2333
 5886TIP3    H139149   1.763   3.837  12.287  0.9847 -0.9719 -0.6977
 5886TIP3    H239150   1.742   3.980  12.243 -2.8380 -1.0452  0.7539
 5887TIP3   OH239151   1.408   3.138   3.244 -0.3295  0.3071 -0.1218
 5887TIP3    H139152   1.378   3.223   3.277 -0.7958  0.7668 -1.6908
 5887TIP3    H239153   1.502   3.150   3.230 -0.5256  0.8105 -1.0451
 5888TIP3   OH239154   3.018   5.965  14.722 -0.5252  0.2022  0.6031
 5888TIP3    H139155   3.028   5.989  14.814  1.1718  0.0861  0.4737
 5888TIP3    H239156   3.067   6.033  14.675 -0.7510 -0.1599 -0.1583
 5889TIP3   OH239157   4.096   4.256   6.611  1.1620 -0.0691 -0.0992
 5889TIP3    H139158   4.158   4.184   6.616 -0.0981 -1.2492 -0.9917
 5889TIP3    H239159   4.138   4.321   6.556  1.5838 -0.8880 -0.7483
 5890TIP3   OH239160   5.637   0.128  14.358 -0.8741 -0.2064  0.6421
 5890TIP3    H139161   5.569   0.185  14.395 -0.7662  0.3420 -0.0140
 5890TIP3    H239162   5.651   0.161  14.270  1.0215  0.3679  1.1401
 5891TIP3   OH239163   4.466   0.968  11.220  0.4777 -0.5433 -0.2393
 5891TIP3    H139164   4.454   1.002  11.131 -1.9526  0.2560  0.3454
 5891TIP3    H239165   4.386   0.919  11.237 -0.1639  1.3054  2.3660
 5892TIP3   OH239166   0.390   3.569   6.292 -0.3708  0.5248 -0.1719
 5892TIP3    H139167   0.476   3.533   6.310 -0.5423  0.8201  1.3127
 5892TIP3    H239168   0.346   3.570   6.377 -2.4564 -1.2139 -1.1566
 5893TIP3   OH239169   4.273   6.531  12.308  0.0133  0.3441  0.1820
 5893TIP3    H139170   4.275   6.492  12.395 -1.1149  0.8421  0.4344
 5893TIP3    H239171   4.365   6.548  12.287  0.2229  1.0076  1.6301
 5894TIP3   OH239172   0.074   5.804   4.447  0.2717  0.0942 -0.1831
 5894TIP3    H139173   0.109   5.715   4.444 -0.3133 -0.1860  1.0744
 5894TIP3    H239174   0.117   5.844   4.522  1.3564  1.2368 -1.3954
 5895TIP3   OH239175   4.331   6.029  13.833 -0.1305  0.0643 -0.8328
 5895TIP3    H139176   4.304   5.950  13.785 -1.6225  0.2578 -0.3519
 5895TIP3    H239177   4.249   6.076  13.849  0.4701  0.5523  0.9378
 5896TIP3   OH239178   3.029   6.637   5.811 -0.5501 -0.0272  0.7299
 5896TIP3    H139179   3.089   6.711   5.819 -0.3453  0.0918 -1.5002
 5896TIP3    H239180   2.953   6.673   5.766 -0.3699 -1.1846 -0.5421
 5897TIP3   OH239181   0.539   2.041  11.902 -0.1022 -0.2744 -0.1436
 5897TIP3    H139182   0.576   1.970  11.849  0.8920  0.4709 -0.4648
 5897TIP3    H239183   0.608   2.108  11.904 -0.7413  0.3668  0.7825
 5898TIP3   OH239184   3.989   3.166   1.203  0.5271  0.1158 -0.0263
 5898TIP3    H139185   3.917   3.209   1.156  1.2072 -0.4847 -1.6872
 5898TIP3    H239186   4.051   3.142   1.133  1.3891 -1.1657  1.1642
 5899TIP3   OH239187   3.033   5.230  15.931 -0.1709  0.3078 -0.2885
 5899TIP3    H139188   2.983   5.170  15.986 -1.0567  1.8248  0.6024
 5899TIP3    H239189   2.997   5.218  15.843 -0.6827 -0.0924 -0.0243
 5900TIP3   OH239190   4.791   3.203  14.460 -0.7199 -0.1851  0.2338
 5900TIP3    H139191   4.822   3.114  14.478 -0.2716  0.5927  3.7038
 5900TIP3    H239192   4.835   3.228  14.379  2.7437 -1.4974  1.6077
 5901TIP3   OH239193   6.692   4.889  13.657 -0.3050  0.5145  0.3629
 5901TIP3    H139194   6.734   4.927  13.734 -0.5569 -0.1396  0.8306
 5901TIP3    H239195   6.753   4.908  13.585  0.3844  0.3287  0.8867
 5902TIP3   OH239196   2.756   0.050  14.831 -0.0643  0.2778 -0.2519
 5902TIP3    H139197   2.692   0.009  14.773 -0.3749 -0.9394  0.9107
 5902TIP3    H239198   2.755   0.143  14.807 -2.3383  0.2971 -0.1804
 5903TIP3   OH239199   5.674   2.958   3.485  0.4970 -0.2702 -0.2706
 5903TIP3    H139200   5.725   2.877   3.484  1.8449  0.5162  1.2765
 5903TIP3    H239201   5.586   2.931   3.460  1.5469 -1.7449 -2.5059
 5904TIP3   OH239202   2.545   5.635   3.669  0.0829  0.3525 -0.4455
 5904TIP3    H139203   2.557   5.629   3.574  1.1900 -0.6326 -0.2425
 5904TIP3    H239204   2.630   5.611   3.706 -0.4561  0.3469  0.8079
 5905TIP3   OH239205   3.449   0.486  12.232 -0.3019 -0.4444  0.0594
 5905TIP3    H139206   3.538   0.494  12.198 -0.0563 -1.2191  0.4944
 5905TIP3    H239207   3.460   0.441  12.316 -0.9702  0.7061  0.7790
 5906TIP3   OH239208   2.329   3.382  11.528  0.4898  0.4546  0.3083
 5906TIP3    H139209   2.403   3.438  11.551  0.7647 -0.0689  0.7144
 5906TIP3    H239210   2.251   3.433  11.549  0.7325  1.0042 -0.1075
 5907TIP3   OH239211   3.977   5.810   2.309 -0.0113  0.0066 -0.1986
 5907TIP3    H139212   3.964   5.761   2.390 -0.2914  0.5986  0.1182
 5907TIP3    H239213   3.891   5.849   2.291  0.3570  0.8351 -0.1509
 5908TIP3   OH239214   2.159   0.757   1.055  0.0999 -0.2423  0.3453
 5908TIP3    H139215   2.228   0.791   1.112  0.3525  1.3051 -0.8475
 5908TIP3    H239216   2.167   0.662   1.061  2.4994 -0.0789  0.0398
 5909TIP3   OH239217   3.342   4.987   0.618 -0.1285  0.3954  0.3903
 5909TIP3    H139218   3.340   4.898   0.654 -3.2314 -0.2101 -1.1162
 5909TIP3    H239219   3.433   5.015   0.628  1.2857 -3.5532 -0.5821
 5910TIP3   OH239220   6.160   6.704   0.713 -0.2847 -0.1678  0.7552
 5910TIP3    H139221   6.240   6.750   0.686 -0.1927 -0.6565  0.1788
 5910TIP3    H239222   6.097   6.774   0.730 -0.2751  0.1749 -0.5325
 5911TIP3   OH239223   3.501   2.423   0.446  0.2187 -0.2282 -0.5593
 5911TIP3    H139224   3.547   2.504   0.469  0.1488 -0.5409  0.6673
 5911TIP3    H239225   3.567   2.371   0.400  0.6913 -0.0886 -0.0531
 5912TIP3   OH239226   6.139   6.529  16.780 -0.0464  0.3124  0.0124
 5912TIP3    H139227   6.218   6.491  16.740 -0.0984 -0.3696  0.5384
 5912TIP3    H239228   6.098   6.579  16.710  1.3932  1.5220  0.0046
 5913TIP3   OH239229   3.380   1.396  14.113  0.2483 -0.3754  0.3441
 5913TIP3    H139230   3.464   1.390  14.160 -0.2580 -1.0099  1.1875
 5913TIP3    H239231   3.368   1.489  14.098 -0.4404  0.0310  3.0768
 5914TIP3   OH239232   0.080   3.876  15.639  0.0357  0.1551 -0.2324
 5914TIP3    H139233   0.043   3.789  15.624  0.2530  0.2300 -1.2540
 5914TIP3    H239234   0.105   3.877  15.731  0.6536 -1.1119 -0.3806
 5915TIP3   OH239235   0.086   3.226   2.605  0.5578  0.3526  0.2097
 5915TIP3    H139236   0.122   3.206   2.691 -0.9608  2.3325  1.3609
 5915TIP3    H239237   0.117   3.315   2.586 -2.5298  1.5913  0.6679
 5916TIP3   OH239238   4.081   5.356   4.074 -0.1587 -0.1577 -0.1742
 5916TIP3    H139239   4.052   5.324   3.988 -1.1213  0.2907 -0.0280
 5916TIP3    H239240   4.070   5.451   4.069  3.7593  0.3243 -1.0043
 5917TIP3   OH239241   1.891   5.238  16.455 -0.0634  0.8812  0.4028
 5917TIP3    H139242   1.977   5.264  16.422  0.2325  0.4465  0.8208
 5917TIP3    H239243   1.831   5.253  16.381  1.0676 -2.9305 -1.3858
 5918TIP3   OH239244   3.674   5.080   3.148 -0.6687 -0.4333  0.1659
 5918TIP3    H139245   3.612   5.024   3.100 -0.3154 -0.9843  0.3572
 5918TIP3    H239246   3.618   5.138   3.200 -1.0176 -0.9999  0.4157
 5919TIP3   OH239247   0.905   3.664  12.281  0.0294 -0.2342  1.0748
 5919TIP3    H139248   0.970   3.669  12.351  1.3466 -0.8543 -0.0516
 5919TIP3    H239249   0.919   3.744  12.229  0.2522 -0.6210  0.5327
 5920TIP3   OH239250   3.409   4.561  17.058  0.1655  0.6657  0.5557
 5920TIP3    H139251   3.371   4.580  17.144  2.2547  0.1685  1.6478
 5920TIP3    H239252   3.497   4.598  17.063 -0.3832  2.4550 -2.1535
 5921TIP3   OH239253   2.763   2.652   3.199  0.6026  0.3029  0.1602
 5921TIP3    H139254   2.724   2.657   3.286 -0.6059  0.0168 -0.3529
 5921TIP3    H239255   2.836   2.714   3.201 -0.3929  1.4630  0.8766
 5922TIP3   OH239256   2.542   3.743  12.683  0.0704 -0.7122 -0.3229
 5922TIP3    H139257   2.510   3.674  12.741  1.0303 -0.3640  0.6271
 5922TIP3    H239258   2.614   3.784  12.731  1.3450 -0.8801 -2.0537
 5923TIP3   OH239259   6.309   4.382   1.858 -0.5305  0.5143  0.2808
 5923TIP3    H139260   6.295   4.471   1.892 -0.9481  0.4583  0.2552
 5923TIP3    H239261   6.392   4.355   1.896 -0.5781  0.7797  0.5775
 5924TIP3   OH239262   0.120   5.060   3.088 -0.4977 -0.3648 -0.7464
 5924TIP3    H139263   0.036   5.015   3.098  0.2080 -1.2140  1.7338
 5924TIP3    H239264   0.164   5.012   3.018 -1.6067 -0.6208 -1.2883
 5925TIP3   OH239265   5.629   3.966  11.586  0.4513 -0.0165 -0.0576
 5925TIP3    H139266   5.573   4.013  11.524  0.4821 -1.2949 -1.0798
 5925TIP3    H239267   5.626   4.018  11.666 -1.2262  0.5745 -0.4906
 5926TIP3   OH239268   2.239   0.468   0.513 -0.3186 -0.4114 -0.2453
 5926TIP3    H139269   2.172   0.517   0.465  0.3085 -0.1566 -0.8680
 5926TIP3    H239270   2.279   0.533   0.570 -2.1651 -1.0541  1.8579
 5927TIP3   OH239271   4.720   5.850  17.100  0.3029 -0.2817  0.5684
 5927TIP3    H139272   4.690   5.926  17.051  0.8893  0.2284  0.9938
 5927TIP3    H239273   4.739   5.784  17.033  1.4873  0.5436  0.0847
 5928TIP3   OH239274   5.996   3.426   1.244  0.2063 -0.0486  0.1605
 5928TIP3    H139275   5.909   3.401   1.276 -0.0550 -0.1238 -0.6153
 5928TIP3    H239276   6.042   3.343   1.232 -0.4838 -0.1500 -1.9067
 5929TIP3   OH239277   0.057   0.053   1.964  0.7287  0.0411 -0.7310
 5929TIP3    H139278   0.009   0.107   1.901  1.1804  0.1447 -0.9882
 5929TIP3    H239279   0.104  -0.010   1.909  0.6164 -0.2740 -0.4611
 5930TIP3   OH239280   4.897   6.764  12.628  0.2435 -0.5201 -0.8516
 5930TIP3    H139281   4.849   6.683  12.613  2.4672 -2.2293  0.8815
 5930TIP3    H239282   4.892   6.778  12.723  0.2754  1.1462 -1.0717
 5931TIP3   OH239283   6.465   3.447  10.740 -0.4205 -0.4807  0.3007
 5931TIP3    H139284   6.394   3.405  10.691 -1.5547 -0.8295  2.1994
 5931TIP3    H239285   6.487   3.525  10.688 -1.7583 -0.7049 -0.6322
 5932TIP3   OH239286   2.862   2.589   4.832  0.3578  0.0873 -0.0821
 5932TIP3    H139287   2.801   2.539   4.779  1.3097  1.6453 -2.7610
 5932TIP3    H239288   2.807   2.634   4.896 -1.1813  0.4772 -1.6440
 5933TIP3   OH239289   2.911   2.743   0.305 -0.1280  0.0831 -0.3378
 5933TIP3    H139290   2.896   2.669   0.246  0.1612  0.4663 -0.8930
 5933TIP3    H239291   2.995   2.780   0.276 -0.1109  0.4267  0.1476
 5934TIP3   OH239292   6.015   4.021   5.593  0.2614 -0.4608 -0.8970
 5934TIP3    H139293   5.955   4.001   5.522  0.8517  0.4315 -1.6615
 5934TIP3    H239294   6.096   3.976   5.570  0.7771  0.6511 -1.3235
 5935TIP3   OH239295   3.979   0.183  15.894 -0.2096 -0.1224 -0.1415
 5935TIP3    H139296   3.956   0.150  15.980 -1.6862  0.4382 -0.2981
 5935TIP3    H239297   3.929   0.129  15.833 -0.7880  0.8261 -0.5235
 5936TIP3   OH239298   0.728   5.737  14.086  0.4447 -0.6916  0.3916
 5936TIP3    H139299   0.679   5.659  14.060  0.2254  0.4316 -2.8988
 5936TIP3    H239300   0.818   5.707  14.098  0.0376 -1.7438  0.8191
 5937TIP3   OH239301   5.068   6.309   0.327  0.0327  0.4873  0.3280
 5937TIP3    H139302   5.162   6.324   0.336  0.0191  1.4834 -1.0004
 5937TIP3    H239303   5.054   6.222   0.363  1.5571  0.1041  0.0169
 5938TIP3   OH239304   3.267   0.263  12.703 -0.2566 -0.7001  0.0121
 5938TIP3    H139305   3.242   0.335  12.646  0.5855 -1.2178 -1.0553
 5938TIP3    H239306   3.253   0.185  12.649  0.0262 -1.2328  0.7080
 5939TIP3   OH239307   3.247   5.618  13.140  0.1387  0.4267 -0.1557
 5939TIP3    H139308   3.183   5.570  13.194 -0.6728  0.9525 -0.6413
 5939TIP3    H239309   3.332   5.593  13.177 -0.2528 -1.4774 -0.4577
 5940TIP3   OH239310   1.599   0.419   0.763 -0.2156  0.0520  1.2553
 5940TIP3    H139311   1.607   0.432   0.668  1.1453  0.7158  1.4453
 5940TIP3    H239312   1.580   0.507   0.797 -2.2850 -0.4583  1.4489
 5941TIP3   OH239313   5.214   0.426   1.733  0.9081 -0.3327  0.4231
 5941TIP3    H139314   5.234   0.336   1.757 -0.4755 -0.9919 -0.7897
 5941TIP3    H239315   5.252   0.437   1.646 -0.2288 -0.2307 -0.0690
 5942TIP3   OH239316   0.943   0.966  15.296  0.2789 -0.5290  0.6819
 5942TIP3    H139317   1.004   1.035  15.270  2.0267 -1.7977  1.2801
 5942TIP3    H239318   0.974   0.888  15.249 -0.4989 -1.3310  1.4756
 5943TIP3   OH239319   6.192   0.266   1.911  0.2484  0.1689  0.5479
 5943TIP3    H139320   6.177   0.191   1.853 -2.1901  0.4346  0.7764
 5943TIP3    H239321   6.216   0.228   1.995  0.6065 -0.3064  0.2306
 5944TIP3   OH239322   1.109   2.264  13.545 -0.0595  0.0381  0.2354
 5944TIP3    H139323   1.051   2.233  13.614  0.5831 -0.9162  0.3524
 5944TIP3    H239324   1.182   2.305  13.592 -0.1394  0.3316  0.1042
 5945TIP3   OH239325   5.073   2.942   5.593 -0.3237  0.2896 -0.0334
 5945TIP3    H139326   5.020   2.891   5.655 -0.0634 -1.3716 -1.1635
 5945TIP3    H239327   5.030   3.028   5.591 -1.3445 -0.1690  1.1459
 5946TIP3   OH239328   0.900   6.225  14.769 -0.0099 -0.0499 -0.9899
 5946TIP3    H139329   0.953   6.195  14.695  0.3714 -0.3128 -0.6148
 5946TIP3    H239330   0.964   6.250  14.836 -0.3563 -0.0382 -0.6614
 5947TIP3   OH239331   3.500   2.934  14.566  0.4813  0.4016  0.3788
 5947TIP3    H139332   3.531   2.863  14.510  0.3185 -0.5455  1.4784
 5947TIP3    H239333   3.505   3.012  14.511  1.8388 -0.2551 -0.4369
 5948TIP3   OH239334   6.259   2.185   0.779  0.2503  0.1040 -0.5124
 5948TIP3    H139335   6.250   2.173   0.684 -1.6606 -1.1093 -0.1799
 5948TIP3    H239336   6.344   2.146   0.800 -0.2673 -1.5565 -1.4096
 5949TIP3   OH239337   1.399   0.328   3.248  0.2992 -0.3913 -0.1476
 5949TIP3    H139338   1.310   0.362   3.238  0.6789  0.7572  0.2585
 5949TIP3    H239339   1.453   0.406   3.262  1.2592 -1.1369  0.3894
 5950TIP3   OH239340   0.666   2.901  14.111  0.2680  0.3327  0.4787
 5950TIP3    H139341   0.725   2.830  14.134  0.0047 -0.6074 -1.6398
 5950TIP3    H239342   0.711   2.950  14.043  0.3838  2.1456  1.8101
 5951TIP3   OH239343   6.758   2.178   2.022  0.4070  0.1626 -0.3098
 5951TIP3    H139344   6.670   2.155   1.993  1.0294 -1.5363 -0.9152
 5951TIP3    H239345   6.811   2.179   1.942  1.0908  0.4339  0.1351
 5952TIP3   OH239346   5.505   3.605  13.739 -0.3194  0.2970 -0.6686
 5952TIP3    H139347   5.486   3.531  13.797 -0.4319  1.1680  0.4202
 5952TIP3    H239348   5.587   3.642  13.773 -1.4931  2.1102  0.2830
 5953TIP3   OH239349   6.308   0.811   3.156  0.4953 -0.0464 -0.1837
 5953TIP3    H139350   6.279   0.756   3.083  0.1507 -2.7702  1.9343
 5953TIP3    H239351   6.280   0.764   3.235  0.9354  2.7776  1.7439
 5954TIP3   OH239352   3.776   5.764  15.971  0.2180 -0.4255 -0.2004
 5954TIP3    H139353   3.757   5.846  16.016  2.1706 -0.8212  1.4249
 5954TIP3    H239354   3.755   5.696  16.035 -3.3295 -1.3554 -2.2159
 5955TIP3   OH239355   1.094   1.140  15.120  0.2119  0.4754 -0.7564
 5955TIP3    H139356   1.157   1.159  15.051  1.1781 -2.0791 -0.6155
 5955TIP3    H239357   1.046   1.063  15.089 -0.8154  0.6007  0.4477
 5956TIP3   OH239358   6.056   6.042  14.183 -0.1362  0.0234  0.0799
 5956TIP3    H139359   5.973   5.996  14.169 -0.2997  0.2197  0.3824
 5956TIP3    H239360   6.043   6.127  14.142 -0.1065  0.0762  0.1799
 5957TIP3   OH239361   5.763   5.976   2.601 -0.0265 -0.2818 -0.7819
 5957TIP3    H139362   5.710   6.019   2.668  1.2697  0.4898 -0.2415
 5957TIP3    H239363   5.789   5.892   2.640  1.4379  0.5341  0.0285
 5958TIP3   OH239364   2.444   1.051   5.773 -0.1581  0.6534  0.1371
 5958TIP3    H139365   2.437   1.056   5.677 -0.2290 -0.3007  0.0870
 5958TIP3    H239366   2.528   1.007   5.789 -0.7445 -0.3509  0.4856
 5959TIP3   OH239367   4.307   1.170  13.143  0.2721 -0.2939 -0.4288
 5959TIP3    H139368   4.268   1.153  13.229 -2.2460 -1.1179 -1.6739
 5959TIP3    H239369   4.378   1.231  13.161 -0.6788  0.1440  2.1487
 5960TIP3   OH239370   0.565   2.405   4.331  0.5276 -0.5737 -0.1456
 5960TIP3    H139371   0.522   2.396   4.417  0.1011  0.8692 -0.1920
 5960TIP3    H239372   0.614   2.487   4.338  2.3711 -1.6344 -0.4971
 5961TIP3   OH239373   2.191   2.796   3.181  0.0841  0.2525 -0.6481
 5961TIP3    H139374   2.249   2.770   3.110 -0.0227  1.2786 -1.1163
 5961TIP3    H239375   2.155   2.880   3.153 -1.5809 -0.3383 -0.3356
 5962TIP3   OH239376   3.386   2.378  11.205  0.1543  0.0221  0.2096
 5962TIP3    H139377   3.478   2.388  11.228  0.7125 -1.6906 -1.1472
 5962TIP3    H239378   3.372   2.441  11.135  0.8038 -0.9997 -0.8609
 5963TIP3   OH239379   1.621   5.793   5.214 -0.2585 -0.0922  0.0081
 5963TIP3    H139380   1.576   5.750   5.141  1.2544 -1.6613 -0.0372
 5963TIP3    H239381   1.563   5.865   5.239 -1.2261 -0.0941 -2.1363
 5964TIP3   OH239382   3.410   4.695   0.471 -0.0228  0.0238 -0.0208
 5964TIP3    H139383   3.496   4.714   0.435  1.2030  0.3916  2.9821
 5964TIP3    H239384   3.355   4.769   0.443  1.3647  1.2372  0.4422
 5965TIP3   OH239385   1.825   0.961   6.454  0.3956 -0.0248  0.5753
 5965TIP3    H139386   1.873   0.879   6.451  1.3996  0.5719  0.1659
 5965TIP3    H239387   1.854   1.003   6.535 -1.2240 -0.7279  1.5465
 5966TIP3   OH239388   6.601   1.382   4.286 -0.1463 -0.6363  0.1229
 5966TIP3    H139389   6.694   1.398   4.299 -0.1793  0.2995 -0.7563
 5966TIP3    H239390   6.559   1.466   4.303 -0.7671 -0.8961 -0.0951
 5967TIP3   OH239391   3.829   2.348  12.986  0.0339  0.6219 -0.4260
 5967TIP3    H139392   3.839   2.341  12.891 -0.3966 -0.2725 -0.4125
 5967TIP3    H239393   3.737   2.370  12.998 -0.1697 -0.3105 -0.1844
 5968TIP3   OH239394   2.918   2.303  15.260  0.3346 -0.5301 -0.3843
 5968TIP3    H139395   2.930   2.283  15.353 -2.3325  0.9335  0.3310
 5968TIP3    H239396   2.826   2.283  15.242  0.5280  0.2604 -2.4122
 5969TIP3   OH239397   3.657   3.887  15.076  0.5701  0.0057  0.6688
 5969TIP3    H139398   3.684   3.972  15.109  0.6991  0.3291 -0.2379
 5969TIP3    H239399   3.738   3.842  15.054  0.4201  1.0086 -2.1221
 5970TIP3   OH239400   4.391   0.271   2.615  0.6047  0.4167 -0.4135
 5970TIP3    H139401   4.399   0.270   2.710  0.4794  0.7467 -0.3979
 5970TIP3    H239402   4.314   0.216   2.596 -0.9325  2.3987 -0.1548
 5971TIP3   OH239403   6.722   3.199   3.318 -0.6524  0.1803 -0.2982
 5971TIP3    H139404   6.665   3.162   3.250  0.3421 -2.7721  0.4159
 5971TIP3    H239405   6.664   3.212   3.393 -1.1321  0.6119 -0.7408
 5972TIP3   OH239406   4.592   0.406   1.551  0.1495  0.6430  0.0743
 5972TIP3    H139407   4.647   0.483   1.542  0.3036  0.6309  0.9073
 5972TIP3    H239408   4.502   0.440   1.551  0.1038  0.5943 -2.0645
 5973TIP3   OH239409   2.733   3.457   3.632 -0.2560 -0.4901 -0.0278
 5973TIP3    H139410   2.756   3.525   3.569 -1.3013 -3.0175 -3.2672
 5973TIP3    H239411   2.816   3.437   3.676  0.5633  1.1597 -0.7749
 5974TIP3   OH239412   2.455   6.478  13.482 -0.0148 -0.4038 -0.1741
 5974TIP3    H139413   2.466   6.387  13.453  1.2587  0.0354 -1.1063
 5974TIP3    H239414   2.529   6.525  13.445 -0.4495  0.9616  0.6172
 5975TIP3   OH239415   5.578   4.802  16.678 -0.1583 -0.6307  0.1648
 5975TIP3    H139416   5.547   4.870  16.618  1.0348  0.6546  0.9843
 5975TIP3    H239417   5.568   4.721  16.628  0.9578  0.4262 -1.8819
 5976TIP3   OH239418   3.151   5.593   2.552  0.3648  0.3865  0.2404
 5976TIP3    H139419   3.106   5.672   2.521  0.3749 -0.5867 -2.4209
 5976TIP3    H239420   3.219   5.577   2.487 -1.1308 -3.1000 -0.6351
 5977TIP3   OH239421   5.187   0.439   2.994 -0.0298 -0.5694  0.1521
 5977TIP3    H139422   5.245   0.503   3.035  0.4064 -0.9749  0.1785
 5977TIP3    H239423   5.153   0.387   3.067  1.1221 -1.6000 -0.0339
 5978TIP3   OH239424   4.898   0.703  11.488 -0.6148  0.6008  0.2495
 5978TIP3    H139425   4.848   0.748  11.556 -2.3210  0.4454 -0.8520
 5978TIP3    H239426   4.851   0.723  11.407  0.2992 -0.7435 -0.6362
 5979TIP3   OH239427   4.721   1.322  15.595  0.0342 -0.3781 -0.4806
 5979TIP3    H139428   4.658   1.255  15.567 -0.0599 -0.2971 -0.4617
 5979TIP3    H239429   4.674   1.373  15.660 -0.1967  0.2813 -1.1638
 5980TIP3   OH239430   2.928   1.598   3.287  0.0287  0.4912 -0.4586
 5980TIP3    H139431   2.991   1.607   3.358  0.5628  0.5007 -0.9304
 5980TIP3    H239432   2.855   1.654   3.312  0.2925  0.6328 -0.0042
 5981TIP3   OH239433   4.631   5.075  13.916 -0.6057 -0.8099 -0.4957
 5981TIP3    H139434   4.591   5.143  13.861 -0.6551  0.0454  0.5889
 5981TIP3    H239435   4.724   5.080  13.896 -0.5375 -0.0252  0.0100
 5982TIP3   OH239436   3.047   1.096  11.058  0.1825 -0.1518 -0.3586
 5982TIP3    H139437   2.956   1.117  11.078  0.3437 -0.4205  0.7098
 5982TIP3    H239438   3.096   1.173  11.085  0.1895  0.3822 -1.8311
 5983TIP3   OH239439   0.730   5.247   0.820 -0.4707  0.1646 -0.5833
 5983TIP3    H139440   0.691   5.329   0.848  2.1135  1.8385 -1.7648
 5983TIP3    H239441   0.661   5.202   0.771 -2.0507  1.3567  0.5151
 5984TIP3   OH239442   3.039   2.451  15.078  0.4082 -0.3550  0.7010
 5984TIP3    H139443   2.985   2.397  15.135  0.2163 -1.3420 -0.4028
 5984TIP3    H239444   3.128   2.440  15.112  0.1516 -0.0321  1.4987
 5985TIP3   OH239445   5.287   6.507  13.875 -0.0431  0.0687  0.3623
 5985TIP3    H139446   5.323   6.429  13.918 -0.5938 -0.2857  0.1812
 5985TIP3    H239447   5.311   6.579  13.934  1.9240 -0.0169 -0.3185
 5986TIP3   OH239448   0.708   4.184  15.720  0.8105 -0.5083 -0.6291
 5986TIP3    H139449   0.665   4.098  15.722  2.3505 -1.2955 -0.8497
 5986TIP3    H239450   0.793   4.169  15.762  0.0320  1.5298  1.8276
 5987TIP3   OH239451   2.779   1.754  13.052  0.1320 -0.4543  0.0487
 5987TIP3    H139452   2.704   1.789  13.004  2.2908  1.9025 -1.8210
 5987TIP3    H239453   2.820   1.693  12.991  0.5015 -0.6771  0.5176
 5988TIP3   OH239454   5.896   0.925   4.025 -0.6296 -0.0435 -0.3147
 5988TIP3    H139455   5.853   0.947   3.942 -1.8564  0.9844  0.5606
 5988TIP3    H239456   5.968   0.987   4.031 -0.3178 -0.3604 -0.7908
 5989TIP3   OH239457   5.135   2.468   5.565  0.1826 -0.0266 -0.3748
 5989TIP3    H139458   5.138   2.385   5.516  0.5826  0.3736 -1.0221
 5989TIP3    H239459   5.084   2.527   5.509  1.1951  0.6312 -0.6154
 5990TIP3   OH239460   2.816   0.247  14.515 -0.1899 -0.4446 -0.1186
 5990TIP3    H139461   2.769   0.223  14.435 -0.4339  0.8631 -0.3666
 5990TIP3    H239462   2.753   0.233  14.585 -0.4118 -0.2740 -0.2878
 5991TIP3   OH239463   2.008   2.756  15.161 -0.5818  0.0090  0.0724
 5991TIP3    H139464   1.921   2.732  15.193 -0.4295  1.2090  1.4152
 5991TIP3    H239465   1.998   2.846  15.130 -0.1749 -0.3698 -1.2223
 5992TIP3   OH239466   1.239   3.635  15.038 -1.0798 -0.2724 -0.5983
 5992TIP3    H139467   1.311   3.573  15.030 -0.3306  0.4159  0.6019
 5992TIP3    H239468   1.177   3.592  15.098 -0.7299 -0.0324 -0.0551
 5993TIP3   OH239469   0.693   4.375  12.505  0.1691 -0.2854  0.2806
 5993TIP3    H139470   0.611   4.410  12.470 -0.1653 -1.9681 -0.6530
 5993TIP3    H239471   0.755   4.448  12.497 -0.4449  0.0507 -1.8542
 5994TIP3   OH239472   5.030   6.711   0.263 -0.1693  0.3381 -0.3768
 5994TIP3    H139473   5.059   6.716   0.354 -1.4766  1.0747 -0.0002
 5994TIP3    H239474   4.976   6.632   0.259 -4.6341  3.1784  0.8116
 5995TIP3   OH239475   3.393   2.288   1.807  0.5011 -0.6019 -0.4368
 5995TIP3    H139476   3.389   2.361   1.868 -2.0439 -1.0078 -0.0967
 5995TIP3    H239477   3.478   2.247   1.825  0.6969  0.5254  1.3527
 5996TIP3   OH239478   1.745   6.389  11.592 -0.1374 -0.2861 -0.5085
 5996TIP3    H139479   1.793   6.341  11.524  0.0132  0.4718 -0.9380
 5996TIP3    H239480   1.775   6.479  11.583 -0.2206 -0.1557  0.4731
 5997TIP3   OH239481   6.654   3.684  10.669 -0.2447 -0.5135 -0.2602
 5997TIP3    H139482   6.607   3.767  10.678 -0.2702 -0.2655 -2.4081
 5997TIP3    H239483   6.742   3.709  10.642  0.6050 -1.0771  1.8866
 5998TIP3   OH239484   4.152   0.295   5.170  0.3830 -0.4848  0.4213
 5998TIP3    H139485   4.126   0.203   5.166  0.5760 -0.5039 -0.4091
 5998TIP3    H239486   4.192   0.305   5.257 -0.8753 -0.8475  1.0573
 5999TIP3   OH239487   3.870   3.998   1.800  0.1092 -0.4686 -0.5082
 5999TIP3    H139488   3.909   3.930   1.855  2.0220  0.8261 -0.2258
 5999TIP3    H239489   3.923   4.076   1.816 -0.8305  0.5798 -2.3148
 6000TIP3   OH239490   2.658   3.610  11.203 -0.0644 -0.3781 -0.2139
 6000TIP3    H139491   2.566   3.592  11.182 -1.1320  2.1069  2.0591
 6000TIP3    H239492   2.694   3.525  11.225 -1.9514 -1.3288 -0.6396
 6001TIP3   OH239493   4.775   0.744  14.613  0.1926  0.5187 -0.5611
 6001TIP3    H139494   4.699   0.803  14.618 -0.9259 -0.9506  0.4688
 6001TIP3    H239495   4.764   0.698  14.530 -0.1341  0.2158 -0.3537
 6002TIP3   OH239496   4.511   4.760  15.195  0.9813  0.1282 -0.1632
 6002TIP3    H139497   4.536   4.786  15.284 -1.7275  0.1160  0.6439
 6002TIP3    H239498   4.459   4.681  15.207  1.7568 -0.6567 -1.8907
 6003TIP3   OH239499   5.539   5.995  14.821  0.1484 -0.5296 -0.2800
 6003TIP3    H139500   5.508   5.909  14.795  2.0118 -1.0087 -0.9850
 6003TIP3    H239501   5.460   6.049  14.824 -1.1199 -2.3753  0.7261
 6004TIP3   OH239502   0.004   3.622  14.602 -0.5291  0.3222  0.0347
 6004TIP3    H139503  -0.014   3.699  14.657 -1.7570 -0.2157  0.4180
 6004TIP3    H239504   0.074   3.576  14.647 -1.1997  0.1438  0.9083
 6005TIP3   OH239505   3.545   1.511   3.559 -0.0779  0.2843  0.0846
 6005TIP3    H139506   3.628   1.464   3.555 -0.7262 -1.0604  1.8549
 6005TIP3    H239507   3.559   1.582   3.622 -0.2206  0.1772  0.2372
 6006TIP3   OH239508   2.904   0.762   5.886 -0.7396  0.1141  0.1517
 6006TIP3    H139509   2.982   0.728   5.929  0.8663  0.3787 -2.4334
 6006TIP3    H239510   2.844   0.687   5.883  0.5212 -0.8950 -0.3200
 6007TIP3   OH239511   6.695   4.518  12.644  0.4698 -0.3454  0.4850
 6007TIP3    H139512   6.675   4.428  12.619  2.2681 -0.8858  0.8749
 6007TIP3    H239513   6.640   4.572  12.588 -0.1452 -1.6830 -0.2149
 6008TIP3   OH239514   0.118   6.637  16.670  0.1979 -0.1974  0.2760
 6008TIP3    H139515   0.046   6.620  16.731  0.5903  0.8994  1.0574
 6008TIP3    H239516   0.121   6.732  16.661  1.1994 -0.2629 -0.1766
 6009TIP3   OH239517   6.072   3.290  16.850  0.0146  0.4612 -0.0120
 6009TIP3    H139518   6.010   3.357  16.880  0.6993  0.4604  1.4256
 6009TIP3    H239519   6.046   3.211  16.897 -0.6959 -0.2557 -1.5953
 6010TIP3   OH239520   5.834   4.196  15.403 -0.2335  0.4246 -0.0979
 6010TIP3    H139521   5.884   4.274  15.428  3.0604 -1.7201  0.2169
 6010TIP3    H239522   5.880   4.162  15.326 -3.6102  0.5829 -2.3245
 6011TIP3   OH239523   4.099   3.630   2.976  0.2316 -0.2351 -0.3880
 6011TIP3    H139524   4.154   3.620   2.899 -0.0329  2.0940 -0.9289
 6011TIP3    H239525   4.097   3.725   2.992 -1.9118 -0.4439  0.8476
 6012TIP3   OH239526   1.275   6.572   2.435  0.5706  0.0839  0.1369
 6012TIP3    H139527   1.229   6.491   2.411  1.4043 -0.8492  1.5938
 6012TIP3    H239528   1.367   6.546   2.441  0.6747  0.8104  1.9588
 6013TIP3   OH239529   3.684   5.530  12.547 -0.6410  0.2768  0.0492
 6013TIP3    H139530   3.666   5.448  12.594  0.4292 -0.7652 -1.3197
 6013TIP3    H239531   3.719   5.502  12.463  0.8646  2.1626  0.0136
 6014TIP3   OH239532   3.711   5.119  11.527 -0.5247  0.3751 -0.1235
 6014TIP3    H139533   3.754   5.204  11.531  1.0478 -0.4411  0.5653
 6014TIP3    H239534   3.749   5.077  11.450 -1.2182  0.2344 -0.3980
 6015TIP3   OH239535   6.071   1.062  12.238 -0.6921  0.8604 -0.1813
 6015TIP3    H139536   5.995   1.016  12.273 -0.6855 -0.7036 -2.1602
 6015TIP3    H239537   6.137   0.993  12.227  0.4895  1.9356  0.0102
 6016TIP3   OH239538   2.293   5.873   1.404  0.1344  0.2404  0.6066
 6016TIP3    H139539   2.268   5.784   1.427 -0.7648  0.5696  0.9125
 6016TIP3    H239540   2.377   5.887   1.448  0.2920 -0.4625  0.5269
 6017TIP3   OH239541   1.237   2.929   0.567  0.3816 -0.4478 -0.4949
 6017TIP3    H139542   1.270   2.999   0.624 -0.5684 -0.8944  0.6317
 6017TIP3    H239543   1.145   2.952   0.552  0.6920 -0.2014 -2.0745
 6018TIP3   OH239544   6.172   3.697  12.750  0.2790  0.0773 -0.5099
 6018TIP3    H139545   6.230   3.684  12.825 -2.8721 -0.9809  1.8727
 6018TIP3    H239546   6.169   3.612  12.706  1.2402  0.3843 -1.1713
 6019TIP3   OH239547   3.381   0.660   6.348 -0.1278  0.0992 -0.1778
 6019TIP3    H139548   3.306   0.670   6.407 -0.4096  0.4999 -0.6049
 6019TIP3    H239549   3.365   0.576   6.304 -1.0238  0.8245 -1.2590
 6020TIP3   OH239550   0.390   6.767  14.192 -0.3624  0.0872  0.3823
 6020TIP3    H139551   0.359   6.677  14.177 -1.5456  0.7826 -1.5235
 6020TIP3    H239552   0.310   6.820  14.194  0.4411  1.3410 -0.3033
 6021TIP3   OH239553   4.259   1.574  13.909 -0.4445  0.1429 -0.1552
 6021TIP3    H139554   4.227   1.531  13.830 -1.9431  1.0446 -0.0624
 6021TIP3    H239555   4.185   1.571  13.970  0.2002  0.7726  0.6734
 6022TIP3   OH239556   2.909   4.563  16.937  0.0168 -0.5743 -0.3335
 6022TIP3    H139557   2.885   4.634  16.997 -1.6104 -0.8332 -0.6570
 6022TIP3    H239558   2.999   4.583  16.911 -0.3527  1.2646 -0.2613
 6023TIP3   OH239559   0.952   1.155   3.406 -0.0681  0.5661 -0.2830
 6023TIP3    H139560   0.967   1.240   3.447 -1.7377 -0.8098  3.4156
 6023TIP3    H239561   0.860   1.158   3.377  0.0373  0.2323 -0.6663
 6024TIP3   OH239562   2.757   0.633  14.679 -0.3851  0.3116  0.0863
 6024TIP3    H139563   2.836   0.653  14.730 -1.6703  4.6845  0.5797
 6024TIP3    H239564   2.790   0.592  14.599  2.4536  2.2330  0.1656
 6025TIP3   OH239565   0.642   1.490  16.912  0.1369 -0.7654  0.1067
 6025TIP3    H139566   0.555   1.485  16.874  1.1009  1.1144 -2.4924
 6025TIP3    H239567   0.628   1.520  17.002 -1.7299  1.8532 -1.0148
 6026TIP3   OH239568   0.859   5.246   1.170 -0.0356  0.0023 -0.5915
 6026TIP3    H139569   0.773   5.204   1.164  0.0901 -0.1127 -1.6286
 6026TIP3    H239570   0.921   5.176   1.152  0.4566 -0.6447  3.1820
 6027TIP3   OH239571   1.325   3.696   5.508 -0.3113 -0.0619  0.9081
 6027TIP3    H139572   1.232   3.693   5.532 -0.6173  1.6224  0.0474
 6027TIP3    H239573   1.372   3.675   5.589 -1.4348 -0.6308  1.4223
 6028TIP3   OH239574   0.438   3.065  12.336  0.1733  0.1329 -0.8311
 6028TIP3    H139575   0.419   3.026  12.422 -1.5539 -0.2068 -1.3527
 6028TIP3    H239576   0.521   3.112  12.349 -0.5241  0.8628  1.2825
 6029TIP3   OH239577   1.876   5.777  10.867  0.1264  0.4592  0.1280
 6029TIP3    H139578   1.855   5.691  10.903 -2.0969  0.2253 -1.6127
 6029TIP3    H239579   1.823   5.838  10.918 -0.5855  0.4702 -0.6197
 6030TIP3   OH239580   6.653   4.486   6.687  0.1315 -0.1647 -0.1464
 6030TIP3    H139581   6.716   4.431   6.733 -1.1972 -2.4235 -0.9882
 6030TIP3    H239582   6.700   4.569   6.673  2.1490 -1.0504  1.1358
 6031TIP3   OH239583   0.277   4.049  15.542  0.3415  0.5983  0.2136
 6031TIP3    H139584   0.238   4.111  15.480  0.9645 -0.3491 -1.1625
 6031TIP3    H239585   0.205   3.992  15.567 -0.2960  2.0147  1.6907
 6032TIP3   OH239586   2.738   6.815  17.260  0.2436 -0.5253 -0.2094
 6032TIP3    H139587   2.815   6.758  17.261  1.7054  1.3949 -0.2789
 6032TIP3    H239588   2.671   6.763  17.216  1.3103 -2.4578  0.3724
 6033TIP3   OH239589   3.306   0.922  13.964  0.1597  0.0802 -0.3476
 6033TIP3    H139590   3.317   1.001  14.016  1.4005 -0.9893  1.0813
 6033TIP3    H239591   3.281   0.953  13.877  0.5526  2.0204  0.2113
 6034TIP3   OH239592   5.355   0.524  14.269 -0.0021 -0.0463 -0.0706
 6034TIP3    H139593   5.269   0.545  14.304  0.3946  0.6478  0.5103
 6034TIP3    H239594   5.346   0.535  14.174 -0.1682  1.4939  0.1033
 6035TIP3   OH239595   2.705   4.744   5.301 -0.5002  0.1818 -0.1535
 6035TIP3    H139596   2.635   4.734   5.237 -0.9034 -1.4726  0.5286
 6035TIP3    H239597   2.741   4.656   5.312  0.3540  0.6534  1.0124
 6036TIP3   OH239598   1.031   6.154   2.627 -0.2954 -0.4247 -0.0213
 6036TIP3    H139599   1.027   6.067   2.586  0.6763 -0.4000 -0.1745
 6036TIP3    H239600   1.075   6.139   2.711  2.5312  0.3666 -1.2992
 6037TIP3   OH239601   2.499   2.672  13.551 -0.0885 -0.2705  0.7518
 6037TIP3    H139602   2.425   2.651  13.607  0.5347  1.0375  2.0944
 6037TIP3    H239603   2.492   2.610  13.478 -0.8005 -2.1215  2.3544
 6038TIP3   OH239604   1.615   5.643  13.446  0.5439  0.1132  0.0166
 6038TIP3    H139605   1.566   5.568  13.412  0.5136  0.0675  0.1608
 6038TIP3    H239606   1.559   5.681  13.513  0.0749  0.9502 -0.8425
 6039TIP3   OH239607   6.517   3.120  11.542  0.5583 -0.1827 -0.1288
 6039TIP3    H139608   6.492   3.046  11.597  1.2582  0.4410  1.0357
 6039TIP3    H239609   6.608   3.137  11.564 -0.0953  2.1638  0.9430
 6040TIP3   OH239610   5.955   5.830   0.640  0.4384  0.0186 -0.0279
 6040TIP3    H139611   6.006   5.909   0.619 -0.1234  0.3677 -0.0983
 6040TIP3    H239612   5.864   5.857   0.628  0.0401  0.3753  3.2741
 6041TIP3   OH239613   1.535   6.347  15.381  0.6162 -0.5640 -1.0033
 6041TIP3    H139614   1.479   6.398  15.440  0.9274  0.5138 -1.6229
 6041TIP3    H239615   1.622   6.384  15.394  1.1116 -1.9578 -0.3540
 6042TIP3   OH239616   2.698   0.114  12.915 -0.3685 -0.5784 -0.5421
 6042TIP3    H139617   2.630   0.170  12.953  0.2563 -0.2345  0.0892
 6042TIP3    H239618   2.670   0.100  12.825 -1.1607 -0.2518 -0.3549
 6043TIP3   OH239619   0.483   5.507   4.678 -0.9743  0.0575  0.4829
 6043TIP3    H139620   0.535   5.575   4.722 -0.4689 -0.3415  0.5024
 6043TIP3    H239621   0.532   5.488   4.598 -2.2541  1.2832 -0.6135
 6044TIP3   OH239622   2.194   3.377  14.771 -0.0547 -0.5995 -0.3460
 6044TIP3    H139623   2.286   3.404  14.772 -0.3933  0.5841  0.1458
 6044TIP3    H239624   2.146   3.454  14.804 -1.0557 -1.8277  1.1156
 6045TIP3   OH239625   5.864   2.649  13.017  0.3251  0.1305 -0.2341
 6045TIP3    H139626   5.795   2.697  13.062 -0.9827 -0.5125 -1.5383
 6045TIP3    H239627   5.901   2.711  12.955  0.5217  0.2904  0.0419
 6046TIP3   OH239628   0.529   1.468  12.042 -0.5311  0.3617 -0.6116
 6046TIP3    H139629   0.568   1.429  12.121  0.5535  1.4902 -0.5796
 6046TIP3    H239630   0.483   1.545  12.075 -0.8500  0.3219 -0.9693
 6047TIP3   OH239631   3.774   3.097  14.373 -0.1029  0.1509  0.0941
 6047TIP3    H139632   3.713   3.107  14.300 -1.0234 -0.0571  0.8346
 6047TIP3    H239633   3.751   3.168  14.434  0.7852  0.4424  0.1032
 6048TIP3   OH239634   4.806   1.504   3.269  0.0711  0.1741  0.0091
 6048TIP3    H139635   4.860   1.510   3.348  1.8974 -1.0003 -1.1039
 6048TIP3    H239636   4.723   1.468   3.299  1.3684 -1.9591  1.1440
 6049TIP3   OH239637   0.924   3.330   5.300 -0.4212  0.3734  0.6372
 6049TIP3    H139638   0.961   3.410   5.262  0.7748 -0.4082  0.1176
 6049TIP3    H239639   0.881   3.359   5.381  0.5573  1.4418  0.7822
 6050TIP3   OH239640   1.398   4.800  10.873  0.2755  0.1381 -0.1020
 6050TIP3    H139641   1.435   4.758  10.950 -0.0551  1.3154  0.7031
 6050TIP3    H239642   1.306   4.772  10.872  0.7611 -1.4786 -1.1963
 6051TIP3   OH239643   6.486   1.234   0.700  0.0180  0.2680  0.4437
 6051TIP3    H139644   6.480   1.182   0.620 -2.9259 -1.4238  1.6877
 6051TIP3    H239645   6.515   1.173   0.767 -0.7402  0.8826  1.3478
 6052TIP3   OH239646   3.363   1.112  10.690  0.0292  0.4172 -1.1518
 6052TIP3    H139647   3.345   1.203  10.668 -1.1849  0.5178  0.1954
 6052TIP3    H239648   3.368   1.067  10.606 -1.3132  1.3826 -1.7642
 6053TIP3   OH239649   4.302   0.495  14.814  0.1409  0.0801 -0.8464
 6053TIP3    H139650   4.338   0.450  14.890  0.2050  0.0695 -0.8817
 6053TIP3    H239651   4.360   0.470  14.742  0.6527  0.8622 -0.7078
 6054TIP3   OH239652   0.181   4.667  14.734 -0.5073  0.1929 -0.8431
 6054TIP3    H139653   0.196   4.720  14.655 -1.0356 -1.5550 -2.1474
 6054TIP3    H239654   0.266   4.626  14.751 -0.5554  0.0739 -0.8875
 6055TIP3   OH239655   1.570   5.195  15.657  0.3109  0.0641  0.1300
 6055TIP3    H139656   1.589   5.222  15.567  1.9831  1.5158  0.8889
 6055TIP3    H239657   1.545   5.276  15.701  1.4443 -0.3051  1.4596
 6056TIP3   OH239658   1.775   0.174   0.110  0.4452 -0.1114 -0.1179
 6056TIP3    H139659   1.779   0.112   0.038  1.3644  0.6681 -0.7487
 6056TIP3    H239660   1.804   0.124   0.187  0.4964 -0.6533 -0.4930
 6057TIP3   OH239661   3.601   4.020  16.600 -0.5751  0.3408  0.0479
 6057TIP3    H139662   3.596   3.925  16.592 -1.0044  0.1881  2.0162
 6057TIP3    H239663   3.670   4.045  16.538  0.3447 -1.3576  0.3587
 6058TIP3   OH239664   0.964   2.407   5.291  0.2624  0.1991 -0.3711
 6058TIP3    H139665   1.037   2.437   5.236  1.0984 -0.1902  0.5103
 6058TIP3    H239666   0.987   2.317   5.315 -0.6792 -0.0481 -0.3700
 6059TIP3   OH239667   2.648   4.941   0.138  0.0878 -0.0121  0.3026
 6059TIP3    H139668   2.623   4.895   0.218  1.0306 -0.3230  0.4323
 6059TIP3    H239669   2.572   4.936   0.082 -1.0899  1.4199  1.7257
 6060TIP3   OH239670   5.898   3.189   0.366 -0.3339 -0.0940 -0.1167
 6060TIP3    H139671   5.947   3.143   0.434 -0.3414  1.5258  1.0023
 6060TIP3    H239672   5.964   3.227   0.309 -0.2979  0.7849  0.5078
 6061TIP3   OH239673   5.521   4.334  17.283 -0.3849  0.1648  0.1437
 6061TIP3    H139674   5.495   4.311  17.372 -1.2749  2.1304  0.4160
 6061TIP3    H239675   5.451   4.299  17.228 -0.6605  0.3687  0.3634
 6062TIP3   OH239676   4.655   6.487   1.158  0.0086  0.1240 -0.4514
 6062TIP3    H139677   4.609   6.569   1.138  2.3336  1.3586 -0.9231
 6062TIP3    H239678   4.735   6.491   1.105  0.0864 -2.5482 -0.6102
 6063TIP3   OH239679   1.007   5.789   2.730  0.1285  0.4794  0.9837
 6063TIP3    H139680   0.924   5.833   2.713  0.2842  0.7292  0.8791
 6063TIP3    H239681   1.057   5.800   2.649  0.2036  0.1944  0.9906
 6064TIP3   OH239682   5.074   4.013   3.888 -0.1089 -0.4083 -0.0791
 6064TIP3    H139683   5.051   4.090   3.939  0.9791 -1.7010  2.4616
 6064TIP3    H239684   5.005   4.006   3.822 -2.5755  0.3157  2.3400
 6065TIP3   OH239685   3.477   3.959  16.341  0.1487  0.1827 -0.0206
 6065TIP3    H139686   3.551   3.902  16.320 -0.0162  0.1858 -0.5990
 6065TIP3    H239687   3.511   4.018  16.409  0.7043  0.2542 -0.3582
 6066TIP3   OH239688   1.317   5.407   0.056 -0.4003  0.3218 -0.1435
 6066TIP3    H139689   1.308   5.494   0.018 -0.8282  0.5224  0.4098
 6066TIP3    H239690   1.410   5.400   0.077 -0.4450  0.8211  0.2295
 6067TIP3   OH239691   5.440   3.724  15.572  0.2563  0.0215 -0.1099
 6067TIP3    H139692   5.398   3.668  15.507  0.3943  0.6898 -0.7883
 6067TIP3    H239693   5.402   3.810  15.558  1.5097  0.5349 -0.4336
 6068TIP3   OH239694   0.556   5.098  14.083  0.0100 -0.2990  0.1577
 6068TIP3    H139695   0.589   5.043  14.012  0.3097  2.6220 -2.0526
 6068TIP3    H239696   0.461   5.094  14.074  0.0728  2.6661 -2.5771
 6069TIP3   OH239697   0.350   3.763  15.742 -0.1992 -0.2808 -0.4449
 6069TIP3    H139698   0.334   3.714  15.662  0.4465 -0.9803 -0.1506
 6069TIP3    H239699   0.346   3.698  15.812 -0.9187  0.3507  0.1139
 6070TIP3   OH239700   4.710   1.999  15.571 -0.4645 -0.3658  0.0065
 6070TIP3    H139701   4.635   1.982  15.515  0.4154  3.0612 -2.3600
 6070TIP3    H239702   4.781   1.945  15.534 -0.5660 -0.0724 -0.6211
 6071TIP3   OH239703   2.848   5.214   6.590  0.1381 -0.2741 -0.1797
 6071TIP3    H139704   2.804   5.243   6.509  0.5877  1.5735  0.2210
 6071TIP3    H239705   2.937   5.247   6.582  0.4195 -0.8201  0.6873
 6072TIP3   OH239706   4.440   1.741  10.428  0.8826  0.2668 -0.0394
 6072TIP3    H139707   4.386   1.810  10.468 -0.1260  0.4002 -1.5863
 6072TIP3    H239708   4.516   1.787  10.394  0.1566  0.6635 -1.1677
 6073TIP3   OH239709   6.134   5.746  14.949  0.3744 -0.2543 -0.4938
 6073TIP3    H139710   6.082   5.803  15.005 -0.0309 -0.0154 -1.1096
 6073TIP3    H239711   6.078   5.670  14.934 -0.2005  0.4603 -1.9892
 6074TIP3   OH239712   6.508   2.940   0.141  0.7481 -0.4193 -0.5751
 6074TIP3    H139713   6.473   2.868   0.089 -1.7158 -0.5810  1.1884
 6074TIP3    H239714   6.547   2.898   0.218  1.3495  0.0029 -0.6446
 6075TIP3   OH239715   4.920   1.955   1.923 -0.6688 -0.3261 -0.6606
 6075TIP3    H139716   4.878   1.934   1.840  1.4179  1.2068 -2.1658
 6075TIP3    H239717   5.012   1.933   1.910  0.0844  1.9767  0.4494
 6076TIP3   OH239718   4.011   2.781   4.449 -0.7007 -0.4982  0.3232
 6076TIP3    H139719   3.995   2.875   4.457 -1.0963 -0.6167  0.9035
 6076TIP3    H239720   4.103   2.775   4.425 -0.5064  0.0070  0.9316
 6077TIP3   OH239721   1.998   6.669  12.547 -0.7308  0.5651  0.3689
 6077TIP3    H139722   2.015   6.753  12.590 -1.9394 -0.0460  2.0872
 6077TIP3    H239723   1.904   6.654  12.559 -1.1424  0.3916 -2.5954
 6078TIP3   OH239724   1.043   4.801   2.573  0.2926 -0.0319  0.4727
 6078TIP3    H139725   1.013   4.877   2.623  3.9879  0.1720  2.5321
 6078TIP3    H239726   1.090   4.838   2.499 -0.6627 -0.3647 -0.3185
 6079TIP3   OH239727   5.922   1.876   5.331  0.3235  0.0089 -0.1208
 6079TIP3    H139728   6.015   1.889   5.348 -0.2739  3.4010  1.1382
 6079TIP3    H239729   5.895   1.809   5.395  1.9955 -1.5361 -0.9976
 6080TIP3   OH239730   6.778   1.945   4.196  0.1903  0.7908 -0.9048
 6080TIP3    H139731   6.856   1.955   4.140 -0.9272 -2.1591 -3.1374
 6080TIP3    H239732   6.813   1.931   4.284  2.2564 -1.4348 -2.0281
 6081TIP3   OH239733   4.069   0.428   1.689  0.6826 -0.0414 -0.2993
 6081TIP3    H139734   4.162   0.410   1.702 -0.0977 -3.4646  0.8798
 6081TIP3    H239735   4.028   0.405   1.772 -1.1922  1.8638 -0.6483
 6082TIP3   OH239736   6.382   2.792  11.383 -0.7234  0.4495 -0.1459
 6082TIP3    H139737   6.457   2.843  11.353 -1.1967  2.2556  1.5987
 6082TIP3    H239738   6.417   2.735  11.451 -0.9163  1.3739  0.7489
 6083TIP3   OH239739   1.877   5.838   5.736  0.1131  0.5504 -0.0300
 6083TIP3    H139740   1.841   5.815   5.822  0.2391  0.1969 -0.0718
 6083TIP3    H239741   1.855   5.763   5.680  0.8711  0.3493 -0.0678
 6084TIP3   OH239742   1.936   5.022  11.947 -0.2315 -0.0358 -0.1696
 6084TIP3    H139743   1.970   4.954  11.888  0.3627 -0.3717  0.5564
 6084TIP3    H239744   1.886   5.080  11.889  0.9582  0.0498 -1.1432
 6085TIP3   OH239745   0.955   6.478  11.035  0.0610  0.2121  0.1610
 6085TIP3    H139746   0.914   6.452  10.953  1.5353 -1.7221 -0.0051
 6085TIP3    H239747   0.916   6.421  11.102  1.9370 -1.2007  0.0978
 6086TIP3   OH239748   3.305   5.921   5.302 -0.0487 -0.8538  0.0339
 6086TIP3    H139749   3.235   5.965   5.349 -0.3493 -2.7668  1.4005
 6086TIP3    H239750   3.377   5.914   5.365  0.8714 -0.1764 -0.9173
 6087TIP3   OH239751   6.791   1.105  12.830 -0.6241  0.3334  0.1132
 6087TIP3    H139752   6.796   1.128  12.922  1.0106 -0.4690  0.2311
 6087TIP3    H239753   6.856   1.161  12.788 -1.5051  0.8449 -0.5886
 6088TIP3   OH239754   2.901   4.235  14.071  0.2791  1.3821 -0.1956
 6088TIP3    H139755   2.835   4.206  14.007  0.9821  1.1043 -0.7976
 6088TIP3    H239756   2.913   4.159  14.128  1.6778  0.6708 -1.4094
 6089TIP3   OH239757   5.469   0.827  15.833  0.4045 -0.0240  0.3935
 6089TIP3    H139758   5.456   0.919  15.809  0.2869 -0.2227 -0.3047
 6089TIP3    H239759   5.483   0.782  15.750 -2.2359 -1.0818  0.4868
 6090TIP3   OH239760   1.371   4.060   3.920  0.0253  0.3042  0.6057
 6090TIP3    H139761   1.355   4.028   4.009  0.6036  0.2385  0.6896
 6090TIP3    H239762   1.404   3.984   3.873 -2.0992 -0.1552 -0.1890
 6091TIP3   OH239763   2.732   0.540   5.918 -0.0421  0.0172  0.3268
 6091TIP3    H139764   2.736   0.502   6.005  0.4965 -0.0278  0.2865
 6091TIP3    H239765   2.647   0.512   5.883  0.4021 -1.2867  0.2387
 6092TIP3   OH239766   3.687   0.815   4.588 -0.1158  0.7799  0.0886
 6092TIP3    H139767   3.724   0.727   4.596 -0.0004  0.7665 -0.6229
 6092TIP3    H239768   3.605   0.810   4.638 -0.3074  0.1620 -0.2779
 6093TIP3   OH239769   4.073   0.181   3.992 -0.3215  0.2757 -0.0669
 6093TIP3    H139770   4.041   0.130   3.918  1.2432  1.2212 -1.4160
 6093TIP3    H239771   4.005   0.247   4.007 -2.0047 -1.6926  1.2234
 6094TIP3   OH239772   3.173   1.755  16.095 -0.3290 -0.0871  0.4584
 6094TIP3    H139773   3.227   1.794  16.026 -1.9740  0.7304 -0.3792
 6094TIP3    H239774   3.173   1.820  16.165 -1.9927  0.8584 -0.4125
 6095TIP3   OH239775   2.028   0.500  15.137  0.3838  0.0845 -0.5623
 6095TIP3    H139776   2.072   0.574  15.177  0.5503  0.8132 -2.0500
 6095TIP3    H239777   1.936   0.525  15.134  0.0365 -0.8619  1.2770
 6096TIP3   OH239778   0.095   4.678   6.607  0.0866 -0.3204 -0.3512
 6096TIP3    H139779   0.122   4.674   6.515  1.8452  1.1645  0.0920
 6096TIP3    H239780   0.177   4.685   6.656 -0.8830 -0.2330  1.2844
 6097TIP3   OH239781   3.481   5.433   4.215  0.1617 -0.9626  0.7071
 6097TIP3    H139782   3.454   5.524   4.203 -0.3158 -1.3890 -1.7156
 6097TIP3    H239783   3.572   5.431   4.186 -0.2517 -1.5207 -0.5914
 6098TIP3   OH239784   5.580   5.850  11.592 -0.6010 -0.3657  0.5370
 6098TIP3    H139785   5.530   5.828  11.513 -3.0926  2.0963  1.3263
 6098TIP3    H239786   5.591   5.767  11.638 -1.7494 -1.3525 -0.9364
 6099TIP3   OH239787   5.218   6.140  16.895 -0.2876  0.0596  0.3951
 6099TIP3    H139788   5.178   6.073  16.840 -1.0892  1.7568 -1.1188
 6099TIP3    H239789   5.291   6.095  16.938 -0.9347 -1.8275 -0.4431
 6100TIP3   OH239790   6.188   2.103  11.177 -0.0761 -0.7060 -0.0091
 6100TIP3    H139791   6.261   2.095  11.115 -0.1483  0.1185 -0.2047
 6100TIP3    H239792   6.120   2.045  11.141 -0.1997 -0.0689 -0.8242
 6101TIP3   OH239793   4.364   0.681  15.035  0.5059 -0.0220 -0.0828
 6101TIP3    H139794   4.367   0.701  14.941 -1.1490  1.1094  0.0887
 6101TIP3    H239795   4.443   0.629  15.050  1.8994  1.5471 -1.6879
 6102TIP3   OH239796   5.316   1.118  13.154 -0.8335 -0.1068 -0.1509
 6102TIP3    H139797   5.387   1.144  13.095  0.0527 -0.5002  0.7264
 6102TIP3    H239798   5.237   1.125  13.101 -0.2695  1.3717 -0.8357
 6103TIP3   OH239799   3.742   3.041  13.481  0.2295 -0.3220 -0.6585
 6103TIP3    H139800   3.833   3.017  13.468 -0.3192 -1.0166 -3.5458
 6103TIP3    H239801   3.728   3.115  13.423 -1.7417 -1.9505 -2.3364
 6104TIP3   OH239802   4.330   6.589  12.828 -0.1164  0.2868  0.3071
 6104TIP3    H139803   4.402   6.526  12.817 -0.1041  0.2552  0.5646
 6104TIP3    H239804   4.299   6.574  12.917  2.6013  3.4948  1.8823
 6105TIP3   OH239805   4.892   5.716  11.090 -0.5252  0.5209  0.0751
 6105TIP3    H139806   4.945   5.785  11.130  0.9862 -0.3661 -0.3468
 6105TIP3    H239807   4.810   5.716  11.139  0.1271  1.4751  1.1752
 6106TIP3   OH239808   1.954   0.682   6.474  0.2146  0.0059  0.2104
 6106TIP3    H139809   1.899   0.603   6.475 -0.2076  0.3004  0.3649
 6106TIP3    H239810   2.039   0.652   6.507 -0.2845 -0.1433  1.4169
 6107TIP3   OH239811   1.143   5.113   3.027  0.3096 -1.0530  0.2379
 6107TIP3    H139812   1.235   5.103   3.051  0.4946 -1.1448 -0.4719
 6107TIP3    H239813   1.113   5.025   3.005  0.3845 -0.8743 -0.6404
 6108TIP3   OH239814   6.047   0.809   0.386 -0.0496  0.2717 -0.3884
 6108TIP3    H139815   6.000   0.725   0.386  0.4750 -0.0224 -0.3719
 6108TIP3    H239816   6.081   0.816   0.297  1.4684 -0.4094  0.1256
 6109TIP3   OH239817   5.393   2.802  14.753 -0.2735  0.5673  0.0661
 6109TIP3    H139818   5.338   2.842  14.820  0.5477 -0.7723  1.5703
 6109TIP3    H239819   5.344   2.725  14.724 -0.8082  1.3608 -1.1762
 6110TIP3   OH239820   2.422   2.347   4.561 -0.2055  0.2642 -0.9522
 6110TIP3    H139821   2.392   2.382   4.477  0.8334 -1.7538 -2.2282
 6110TIP3    H239822   2.434   2.253   4.544  2.9512  0.3355  0.5878
 6111TIP3   OH239823   2.082   5.334   3.964 -0.0265  0.2345 -0.7639
 6111TIP3    H139824   2.061   5.276   3.890  1.2097  0.6807 -1.4621
 6111TIP3    H239825   2.133   5.405   3.926 -0.1635  0.9548  0.3741
 6112TIP3   OH239826   4.825   3.907  16.898 -0.2653  0.5124  0.6908
 6112TIP3    H139827   4.835   3.954  16.981 -2.0752  0.7702  0.7786
 6112TIP3    H239828   4.731   3.893  16.890  0.0879 -1.5692 -0.1924
 6113TIP3   OH239829   5.350   1.649  15.064 -0.2883 -0.1307 -0.3879
 6113TIP3    H139830   5.270   1.652  15.011 -1.3686  0.8477  1.2466
 6113TIP3    H239831   5.382   1.739  15.064  0.2112 -0.3062 -0.1444
 6114TIP3   OH239832   6.773   3.941   5.756 -0.2913  0.3955 -0.5945
 6114TIP3    H139833   6.740   3.985   5.677  1.5601  0.8617 -1.1198
 6114TIP3    H239834   6.790   4.012   5.817 -0.9087  0.0919 -0.0627
 6115TIP3   OH239835   2.694   3.350  13.425  0.2362  0.0247 -0.2957
 6115TIP3    H139836   2.623   3.326  13.484  1.0619 -1.2757  0.1817
 6115TIP3    H239837   2.772   3.355  13.480  0.7139  0.4368 -0.9915
 6116TIP3   OH239838   3.745   2.215  16.638  0.3370  0.3185  0.2334
 6116TIP3    H139839   3.764   2.308  16.625 -1.6370  0.6374 -0.4947
 6116TIP3    H239840   3.705   2.187  16.556  0.5609 -1.0749  0.5991
 6117TIP3   OH239841   1.347   2.375  13.648  0.0311  0.5399  0.1668
 6117TIP3    H139842   1.392   2.292  13.664  0.6875  1.1576  1.6510
 6117TIP3    H239843   1.357   2.423  13.730 -3.0842  0.8108  0.4319
 6118TIP3   OH239844   6.351   1.588  12.754 -0.1677  0.5157 -0.6249
 6118TIP3    H139845   6.334   1.656  12.820 -1.3881 -0.5001  0.1461
 6118TIP3    H239846   6.445   1.592  12.738 -0.0620  1.6418  0.2473
 6119TIP3   OH239847   6.224   1.153  14.622 -0.6435 -0.3257 -0.8405
 6119TIP3    H139848   6.290   1.084  14.618 -0.8437 -0.4933 -1.2418
 6119TIP3    H239849   6.273   1.232  14.646 -0.6076 -0.8690  0.9142
 6120TIP3   OH239850   3.100   3.173  13.569 -0.6364  0.1383  0.0761
 6120TIP3    H139851   3.038   3.104  13.593 -1.5774  1.1005  0.4189
 6120TIP3    H239852   3.047   3.241  13.528  0.0075  1.5010  1.4648
 6121TIP3   OH239853   2.572   3.282   1.619 -0.0467  0.9115  0.1708
 6121TIP3    H139854   2.600   3.372   1.601  1.3090  0.2492 -1.1398
 6121TIP3    H239855   2.652   3.230   1.614 -0.6696 -0.2481  1.8876
 6122TIP3   OH239856   0.388   6.680   4.448 -0.1118 -0.2430  0.2567
 6122TIP3    H139857   0.340   6.655   4.370 -1.1829 -0.9438  1.1301
 6122TIP3    H239858   0.375   6.775   4.456 -0.6733 -0.3064  0.0483
 6123TIP3   OH239859   6.453   1.285  11.447  0.5134 -0.2074  0.1590
 6123TIP3    H139860   6.536   1.238  11.444  1.9767  2.3700 -0.7421
 6123TIP3    H239861   6.435   1.308  11.356  0.4281  1.9547  0.7021
 6124TIP3   OH239862   4.757   5.858  14.934  0.5069  0.8729  0.5017
 6124TIP3    H139863   4.850   5.843  14.917  1.0259  2.0179  2.1961
 6124TIP3    H239864   4.715   5.775  14.912  2.1488 -0.1542  1.1509
 6125TIP3   OH239865   5.932   2.644   5.221 -0.5228 -0.1646  0.3206
 6125TIP3    H139866   6.022   2.645   5.190 -0.6768 -1.7268 -0.2387
 6125TIP3    H239867   5.887   2.708   5.166  0.0773  0.0660  0.0928
 6126TIP3   OH239868   2.274   5.479  15.389 -0.0409  0.3410 -0.2232
 6126TIP3    H139869   2.302   5.390  15.368 -1.2222 -0.1805  0.3710
 6126TIP3    H239870   2.286   5.527  15.307  4.1589  0.5640  0.4452
 6127TIP3   OH239871   4.787   0.174  14.686  0.5356  0.1524 -0.5559
 6127TIP3    H139872   4.861   0.184  14.626  1.6923  2.7420  1.2122
 6127TIP3    H239873   4.807   0.094  14.736  0.5047 -0.9439 -2.2479
 6128TIP3   OH239874   3.903   4.137  12.252 -0.4609  0.4636 -0.5354
 6128TIP3    H139875   3.820   4.104  12.288 -0.5208 -0.0254 -1.1068
 6128TIP3    H239876   3.902   4.108  12.161 -0.0986  1.2979 -0.7995
 6129TIP3   OH239877   1.355   2.713   5.933 -0.3868  0.2810  0.0446
 6129TIP3    H139878   1.337   2.663   5.853 -0.9588 -2.2852  1.6885
 6129TIP3    H239879   1.310   2.796   5.919 -1.3489 -0.5068 -1.8931
 6130TIP3   OH239880   1.285   5.613  13.721  0.2249 -0.0875  0.6058
 6130TIP3    H139881   1.260   5.600  13.813  3.3265 -0.2231  1.4920
 6130TIP3    H239882   1.249   5.537  13.676 -1.4543  0.0445  1.6618
 6131TIP3   OH239883   5.679   3.208   2.397 -0.2417  0.0143  0.0167
 6131TIP3    H139884   5.595   3.167   2.416  0.4325 -1.7659 -0.7808
 6131TIP3    H239885   5.715   3.158   2.324  1.3183  1.0346  0.0539
 6132TIP3   OH239886   3.335   3.340  11.054 -0.6254 -0.1951  0.4280
 6132TIP3    H139887   3.355   3.427  11.020  0.0758 -0.4263  0.2456
 6132TIP3    H239888   3.345   3.281  10.978 -0.9784 -0.4522  0.5757
 6133TIP3   OH239889   5.180   4.476   5.549 -0.1279  0.2831  0.2730
 6133TIP3    H139890   5.096   4.436   5.528  0.5374 -1.0256  0.0210
 6133TIP3    H239891   5.160   4.541   5.616 -1.2065 -0.7059  0.9260
 6134TIP3   OH239892   5.556   0.821   3.018  0.6991 -0.4112  0.1991
 6134TIP3    H139893   5.620   0.891   3.026  1.6943 -1.2827  0.0311
 6134TIP3    H239894   5.551   0.803   2.924  0.1403 -0.2816  0.2028
 6135TIP3   OH239895   6.410   1.700  14.973 -0.3690  0.0404  0.1670
 6135TIP3    H139896   6.418   1.761  15.046 -1.0212  2.4922 -1.7759
 6135TIP3    H239897   6.427   1.614  15.012  2.7248  1.6380  2.5313
 6136TIP3   OH239898   2.484   6.125  15.690 -0.1859 -0.7226 -0.3164
 6136TIP3    H139899   2.576   6.136  15.666  0.4424 -3.2030  0.8320
 6136TIP3    H239900   2.483   6.135  15.785 -0.9837 -1.5136 -0.2438
 6137TIP3   OH239901   4.218   2.807   6.029 -0.5954  0.1795 -0.1851
 6137TIP3    H139902   4.306   2.792   5.995 -1.5084 -0.7230 -2.2339
 6137TIP3    H239903   4.219   2.898   6.059  1.1170  0.0767  0.1108
 6138TIP3   OH239904   2.641   2.652   1.835  0.3035 -0.3187 -0.5637
 6138TIP3    H139905   2.582   2.591   1.880  2.0323 -1.6580 -0.0388
 6138TIP3    H239906   2.727   2.610   1.841  1.5061  2.0900 -0.3716
 6139TIP3   OH239907   0.259   6.722   0.107  0.7602 -0.7631  0.4514
 6139TIP3    H139908   0.226   6.747   0.193 -1.4969  0.8114 -0.8299
 6139TIP3    H239909   0.272   6.805   0.061 -3.8099 -1.6840 -2.7738
 6140TIP3   OH239910   6.481   6.158  12.298 -0.1021 -0.4216 -0.6535
 6140TIP3    H139911   6.396   6.202  12.307 -1.3501 -3.0365  0.8881
 6140TIP3    H239912   6.466   6.088  12.235  0.8771 -0.9673 -0.2941
 6141TIP3   OH239913   4.270   2.306   5.407 -0.3743 -0.5607  0.0711
 6141TIP3    H139914   4.231   2.221   5.388 -0.3420 -1.0805  2.2194
 6141TIP3    H239915   4.196   2.360   5.434  0.0944 -1.0386  2.4283
 6142TIP3   OH239916   6.809   1.329  16.024  0.2264 -0.1970 -0.5031
 6142TIP3    H139917   6.745   1.280  15.972  0.5876 -1.9222  0.6500
 6142TIP3    H239918   6.894   1.294  15.997  0.5590  0.5076 -0.3895
 6143TIP3   OH239919   2.534   1.122  16.840  0.1515  0.3726 -0.6743
 6143TIP3    H139920   2.606   1.059  16.841 -0.1489  0.0118 -1.5411
 6143TIP3    H239921   2.475   1.090  16.772 -1.6978 -0.2687  1.1890
 6144TIP3   OH239922   6.521   0.132   2.010  0.1947 -0.0850  0.8580
 6144TIP3    H139923   6.594   0.149   2.070  0.3071 -1.0223  1.0003
 6144TIP3    H239924   6.473   0.060   2.051 -1.3822  1.1509  1.2576
 6145TIP3   OH239925   6.490   5.082   5.086 -0.2206 -0.4082 -0.1972
 6145TIP3    H139926   6.529   5.084   5.174  0.1760 -0.3811 -0.3776
 6145TIP3    H239927   6.413   5.026   5.096  0.0546 -0.7390  0.0720
 6146TIP3   OH239928   0.752   5.291  12.478  0.8279  0.5950  0.4373
 6146TIP3    H139929   0.672   5.307  12.428  1.1218  0.3376 -0.1074
 6146TIP3    H239930   0.814   5.256  12.415  1.7615  1.9205  0.5963
 6147TIP3   OH239931   2.483   1.450  17.109  0.3021  0.0776  0.0921
 6147TIP3    H139932   2.492   1.470  17.015 -0.5401  1.4963  0.2855
 6147TIP3    H239933   2.504   1.533  17.152 -0.1014 -0.3509  1.1179
 6148TIP3   OH239934   0.442   5.252   4.977 -0.7054 -0.6890 -0.4401
 6148TIP3    H139935   0.513   5.313   4.954 -0.2819 -1.4642 -1.2337
 6148TIP3    H239936   0.413   5.282   5.063  1.3267 -0.9957  0.4007
 6149TIP3   OH239937   0.564   0.684  15.971 -0.4459  0.2653  0.7353
 6149TIP3    H139938   0.492   0.693  15.908 -1.3669  0.1109  1.7706
 6149TIP3    H239939   0.548   0.602  16.016  0.9374 -0.2721  0.2836
 6150TIP3   OH239940   1.693   2.512  16.283 -0.5338 -0.3047 -0.3897
 6150TIP3    H139941   1.676   2.475  16.196 -1.1171 -0.9146 -0.0196
 6150TIP3    H239942   1.609   2.547  16.312 -0.1649  0.6063 -0.3956
 6151TIP3   OH239943   2.197   0.859  16.592 -0.1691 -0.0841  0.1413
 6151TIP3    H139944   2.115   0.861  16.641 -0.3840  1.2110 -0.2515
 6151TIP3    H239945   2.238   0.776  16.618 -1.4247 -0.5753  0.6111
 6152TIP3   OH239946   5.325   2.438  16.271 -0.5066  0.5019  0.1807
 6152TIP3    H139947   5.344   2.395  16.187 -0.9645 -1.5938  1.1145
 6152TIP3    H239948   5.232   2.460  16.266 -0.7890 -0.5817  0.5390
 6153TIP3   OH239949   0.378   3.463  16.239  0.2808  0.7166  0.0577
 6153TIP3    H139950   0.345   3.476  16.328 -0.2431  0.0125 -0.0282
 6153TIP3    H239951   0.309   3.413  16.195 -0.5660  3.1140 -1.4559
 6154TIP3   OH239952   1.337   6.515   4.810 -0.0365 -0.6893 -0.6627
 6154TIP3    H139953   1.291   6.597   4.791  1.4148  0.2770 -0.0850
 6154TIP3    H239954   1.328   6.504   4.905  2.3240  0.3904 -0.2882
 6155TIP3   OH239955   2.264   1.952   2.175 -0.4184  0.1268  0.0819
 6155TIP3    H139956   2.311   1.874   2.207 -2.7664 -0.9724  0.9464
 6155TIP3    H239957   2.301   1.968   2.088  3.0382  0.5716  1.5194
 6156TIP3   OH239958   6.031   4.532   6.553  0.3951 -0.1950  0.1145
 6156TIP3    H139959   6.096   4.550   6.485  1.0173  2.0976  1.2469
 6156TIP3    H239960   6.082   4.524   6.634 -0.5441 -0.3581  0.6991
 6157TIP3   OH239961   0.429   3.724   3.968  0.6094  0.7770 -0.3951
 6157TIP3    H139962   0.450   3.699   4.058  0.7558  1.0772 -0.3448
 6157TIP3    H239963   0.356   3.667   3.944  0.3033  0.9727  0.0523
 6158TIP3   OH239964   2.288   5.890   5.845  0.1558 -0.2387 -0.1636
 6158TIP3    H139965   2.348   5.845   5.785  1.2152  1.3843 -0.3408
 6158TIP3    H239966   2.232   5.942   5.787 -1.8632 -2.2169 -0.0501
 6159TIP3   OH239967   3.846   5.153  16.705  0.1038 -0.0152 -0.9142
 6159TIP3    H139968   3.773   5.100  16.739  0.6372 -0.5490 -0.5912
 6159TIP3    H239969   3.818   5.243  16.718 -0.0499 -0.2128  0.2032
 6160TIP3   OH239970   6.121   2.377  12.468 -0.1709 -0.2116 -0.2646
 6160TIP3    H139971   6.117   2.451  12.408  1.4557  0.2129  0.1207
 6160TIP3    H239972   6.088   2.303  12.418 -2.6951  0.9244 -0.3695
 6161TIP3   OH239973   5.210   2.444   0.846 -0.4721 -0.6847  0.5152
 6161TIP3    H139974   5.185   2.513   0.785  1.0170  0.2962  0.9884
 6161TIP3    H239975   5.215   2.365   0.792 -0.1287 -0.0179 -0.4342
 6162TIP3   OH239976   4.709   5.169  11.835 -0.6309 -0.3780  0.3436
 6162TIP3    H139977   4.800   5.194  11.852  0.0182 -1.9686 -0.6632
 6162TIP3    H239978   4.683   5.224  11.760  0.4756 -1.9882 -1.2555
 6163TIP3   OH239979   6.135   0.442   4.853  0.1971 -0.0304  0.0979
 6163TIP3    H139980   6.137   0.492   4.935  0.6390  0.5512 -0.2655
 6163TIP3    H239981   6.058   0.385   4.862  0.8353 -0.7075  1.3443
 6164TIP3   OH239982   5.281   2.446   6.482  0.2591 -0.2622 -0.3290
 6164TIP3    H139983   5.197   2.404   6.462 -0.5504  1.2154 -0.1102
 6164TIP3    H239984   5.338   2.422   6.409 -0.8379  0.0336 -1.2943
 6165TIP3   OH239985   3.095   1.067   1.901  0.0359 -0.0754  0.1106
 6165TIP3    H139986   3.116   1.014   1.978 -0.1784 -1.0175 -0.4687
 6165TIP3    H239987   3.086   1.156   1.935 -0.9534 -0.6223  1.3113
 6166TIP3   OH239988   0.041   0.561  14.962  0.2556 -0.5876 -0.3032
 6166TIP3    H139989   0.008   0.491  14.905 -1.3974  0.4096 -0.6044
 6166TIP3    H239990  -0.033   0.621  14.971  1.4279  0.7494  0.5556
 6167TIP3   OH239991   4.798   1.112   4.565  0.3186 -0.3670 -0.1007
 6167TIP3    H139992   4.771   1.036   4.515  0.5382 -0.1571 -0.5393
 6167TIP3    H239993   4.886   1.133   4.532 -0.5542  1.3229 -1.4394
 6168TIP3   OH239994   6.464   2.543  14.027 -0.4683 -0.2179 -0.3266
 6168TIP3    H139995   6.427   2.462  14.063 -0.2277 -0.5356 -0.7903
 6168TIP3    H239996   6.388   2.590  13.991 -0.8082  0.4154  1.1869
 6169TIP3   OH239997   6.057   1.451  12.630 -0.1043  0.1336  0.1626
 6169TIP3    H139998   5.987   1.512  12.654 -0.3648  0.5192 -1.4909
 6169TIP3    H239999   6.010   1.371  12.604  0.0591  0.2805 -0.6206
 6170TIP3   OH240000   6.721   5.210   1.989 -0.0978 -0.0936 -0.4857
 6170TIP3    H140001   6.682   5.128   2.018  1.0293  0.3563  2.4226
 6170TIP3    H240002   6.805   5.184   1.951 -0.2775 -0.3960 -0.6814
 6171TIP3   OH240003   5.154   0.533   5.196 -0.1462  0.0262  0.1393
 6171TIP3    H140004   5.084   0.492   5.146 -0.5470 -0.5811  1.1762
 6171TIP3    H240005   5.234   0.513   5.147 -0.5413 -0.4963 -0.2909
 6172TIP3   OH240006   2.510   0.589   5.049  0.2480 -0.0158  0.2228
 6172TIP3    H140007   2.580   0.636   5.094 -0.1125 -0.3688  1.1653
 6172TIP3    H240008   2.462   0.545   5.119 -0.4227 -0.4361 -0.4952
 6173TIP3   OH240009   2.413   1.332  15.707 -0.1385 -0.1283  0.4558
 6173TIP3    H140010   2.413   1.323  15.802  1.9380  1.4347  0.6380
 6173TIP3    H240011   2.494   1.378  15.687 -0.3938 -0.6934 -2.1131
 6174TIP3   OH240012   2.636   1.027   3.679 -0.3026 -0.5955  0.4733
 6174TIP3    H140013   2.675   1.083   3.612 -0.3134  1.3674  2.0458
 6174TIP3    H240014   2.700   0.958   3.694  2.0198  1.8144  2.0404
 6175TIP3   OH240015   4.202   2.678  10.652 -0.5157  0.0672 -0.6375
 6175TIP3    H140016   4.249   2.673  10.569 -0.3540  0.0615 -0.5457
 6175TIP3    H240017   4.127   2.619  10.641  0.3479 -1.1048 -0.2190
 6176TIP3   OH240018   5.134   5.651  15.190 -0.4966 -0.1416  0.1065
 6176TIP3    H140019   5.056   5.630  15.139  0.3337  0.2246 -1.3276
 6176TIP3    H240020   5.183   5.711  15.135  0.0817  0.8153  1.6386
 6177TIP3   OH240021   4.597   6.289   1.355 -0.0646 -0.3150 -0.0618
 6177TIP3    H140022   4.585   6.319   1.445  0.0366 -0.0651 -0.1299
 6177TIP3    H240023   4.573   6.364   1.301 -0.3015 -0.5248 -0.2490
 6178TIP3   OH240024   5.703   3.942   3.439  0.3525  0.2166 -0.0237
 6178TIP3    H140025   5.705   3.894   3.521 -0.3997 -0.1537 -0.2225
 6178TIP3    H240026   5.794   3.944   3.410  0.2373 -2.1013 -0.5998
 6179TIP3   OH240027   0.028   2.149  10.693  0.0418  0.5106  0.4155
 6179TIP3    H140028  -0.017   2.066  10.710  0.6046  0.3034  0.8731
 6179TIP3    H240029   0.120   2.126  10.685  0.3747  1.2623  1.8667
 6180TIP3   OH240030   6.344   3.666   6.782  0.2539 -0.5686 -0.2853
 6180TIP3    H140031   6.290   3.640   6.707  0.5069 -0.2981 -0.5613
 6180TIP3    H240032   6.434   3.649   6.755  0.5365  1.7506 -0.9634
 6181TIP3   OH240033   4.704   1.397  17.171  0.3235  0.0939  0.6030
 6181TIP3    H140034   4.730   1.464  17.107 -0.7286 -1.1948 -1.2034
 6181TIP3    H240035   4.621   1.429  17.207  0.5028  0.4120  0.7418
 6182TIP3   OH240036   3.259   3.612  15.625 -0.3436 -0.0654  0.3981
 6182TIP3    H140037   3.224   3.695  15.592 -0.5682 -0.3930 -0.1958
 6182TIP3    H240038   3.207   3.594  15.704 -2.8877 -1.5316 -1.5409
 6183TIP3   OH240039   4.534   2.284  12.722 -0.0305 -0.1170  0.1220
 6183TIP3    H140040   4.616   2.268  12.675 -1.0806  0.9179 -2.1191
 6183TIP3    H240041   4.522   2.379  12.717 -2.0350 -0.4001 -0.6978
 6184TIP3   OH240042   4.238   2.827  10.882  0.0605  0.6435  0.7355
 6184TIP3    H140043   4.226   2.784  10.797  0.5665  0.2689  0.8557
 6184TIP3    H240044   4.260   2.917  10.861  0.3836  0.5002  0.4663
 6185TIP3   OH240045   3.871   6.710  14.939  0.0892 -0.4683  0.1039
 6185TIP3    H140046   3.789   6.692  14.985 -1.1283  0.5711 -1.6197
 6185TIP3    H240047   3.883   6.637  14.879  0.6149 -0.7974  0.6065
 6186TIP3   OH240048   3.690   6.758  13.088 -0.6892  0.1207  0.4183
 6186TIP3    H140049   3.606   6.804  13.086 -0.9125 -0.2006  1.6536
 6186TIP3    H240050   3.666   6.666  13.090 -0.3453  0.0540  1.9878
 6187TIP3   OH240051   4.851   3.413   5.346  0.0958  0.6288  0.1592
 6187TIP3    H140052   4.944   3.435   5.336  0.3271 -0.9682 -1.6152
 6187TIP3    H240053   4.842   3.328   5.302 -1.8896 -0.0136  1.7325
 6188TIP3   OH240054   2.285   0.203   0.434  0.1819  0.0075  0.3740
 6188TIP3    H140055   2.261   0.296   0.434  0.7744  0.1573  0.2849
 6188TIP3    H240056   2.378   0.201   0.415 -0.3567 -0.7366 -2.5925
 6189TIP3   OH240057   3.420   2.139  11.962  0.3111 -0.1823 -0.2864
 6189TIP3    H140058   3.412   2.200  11.889 -0.9414  0.9747  0.7782
 6189TIP3    H240059   3.491   2.174  12.015 -0.0035  0.0246  0.0039
 6190TIP3   OH240060   1.745   1.368   2.541 -0.5650 -0.3388 -0.0266
 6190TIP3    H140061   1.760   1.306   2.612  2.3197 -0.1113 -0.3809
 6190TIP3    H240062   1.794   1.333   2.467 -1.3507  0.8279 -1.1332
 6191TIP3   OH240063   2.427   1.572   2.882 -0.5139  0.5964  0.3514
 6191TIP3    H140064   2.336   1.596   2.897 -0.8819 -2.0543  2.6094
 6191TIP3    H240065   2.476   1.615   2.952  0.0881  2.4227 -1.1428
 6192TIP3   OH240066   6.115   4.274   0.152 -0.3428 -0.2494  0.1499
 6192TIP3    H140067   6.066   4.343   0.109  1.1391  0.4988 -0.3681
 6192TIP3    H240068   6.096   4.285   0.245 -0.1999  0.7920  0.0618
 6193TIP3   OH240069   2.783   3.989   1.504  0.1120 -0.1525  0.5086
 6193TIP3    H140070   2.752   4.075   1.533 -0.9003 -0.2040 -0.4325
 6193TIP3    H240071   2.766   3.931   1.579 -1.3365 -0.0222  0.2914
 6194TIP3   OH240072   6.698   4.100   1.703  0.5098  0.1455 -0.1635
 6194TIP3    H140073   6.738   4.038   1.642  1.4866 -1.4963  2.0851
 6194TIP3    H240074   6.739   4.184   1.683  1.2628 -0.4938 -1.3412
 6195TIP3   OH240075   4.354   1.787  12.082 -0.3739  0.2263 -0.2507
 6195TIP3    H140076   4.330   1.694  12.088 -0.8150  0.2835 -1.0777
 6195TIP3    H240077   4.340   1.821  12.171 -2.6632  0.0929 -0.5465
 6196TIP3   OH240078   2.729   5.160  16.279 -0.2288  0.6736  0.4612
 6196TIP3    H140079   2.640   5.139  16.251 -0.0512  0.6916 -0.1402
 6196TIP3    H240080   2.720   5.238  16.333 -0.5137  1.0562 -0.1298
 6197TIP3   OH240081   2.055   3.470  15.716  0.1975  0.1094  0.3973
 6197TIP3    H140082   2.063   3.543  15.776 -0.4963  1.5761 -1.2563
 6197TIP3    H240083   2.122   3.486  15.649 -0.6750 -0.1840 -0.5641
 6198TIP3   OH240084   3.417   4.754  16.580 -0.2101 -0.0208  0.2786
 6198TIP3    H140085   3.442   4.839  16.545  1.1208  0.3542  2.1079
 6198TIP3    H240086   3.334   4.769  16.625  0.1047  0.3486  0.7376
 6199TIP3   OH240087   1.019   2.696   3.816 -1.1639  0.1958 -0.9705
 6199TIP3    H140088   0.953   2.699   3.885 -0.5335  1.8888 -0.4092
 6199TIP3    H240089   1.029   2.787   3.789  0.0774 -0.2026 -1.8769
 6200TIP3   OH240090   2.918   0.277  12.567  0.0215 -0.1298 -0.4017
 6200TIP3    H140091   2.857   0.349  12.551  0.1403 -0.2950 -1.7086
 6200TIP3    H240092   3.003   0.312  12.540  0.4534 -0.0183  1.0784
 6201TIP3   OH240093   0.990   4.595   5.367  0.9420 -0.2901 -0.0695
 6201TIP3    H140094   0.986   4.581   5.462 -0.3308 -0.4400 -0.1349
 6201TIP3    H240095   0.910   4.553   5.334  0.5762  1.1328 -1.0323
 6202TIP3   OH240096   2.070   3.266  11.258  0.3891 -0.0135 -0.3761
 6202TIP3    H140097   2.041   3.356  11.271 -3.1652 -1.3061  1.3013
 6202TIP3    H240098   2.119   3.244  11.337  2.9739  0.9732 -1.6182
 6203TIP3   OH240099   2.698   6.731  12.447  0.0643  0.0538  0.2982
 6203TIP3    H140100   2.687   6.657  12.506 -1.2341  0.6791  0.8437
 6203TIP3    H240101   2.621   6.728  12.390 -1.2951  2.4317  1.9330
 6204TIP3   OH240102   2.620   4.274   2.401  0.2344  0.7156  0.4200
 6204TIP3    H140103   2.647   4.336   2.333 -0.8267  2.0125  1.1852
 6204TIP3    H240104   2.701   4.253   2.448  0.9413 -0.0218 -1.0799
 6205TIP3   OH240105   4.839   2.392   3.383  0.1222  0.4434 -0.2453
 6205TIP3    H140106   4.818   2.484   3.398  0.0633  0.1227  1.8968
 6205TIP3    H240107   4.808   2.347   3.463  2.7153 -1.0142  0.0172
 6206TIP3   OH240108   2.470   5.029   0.486  0.1725  0.1800 -0.8511
 6206TIP3    H140109   2.508   5.070   0.564  1.1901 -0.4304 -1.0221
 6206TIP3    H240110   2.516   4.946   0.477 -0.3824 -0.0404 -1.7423
 6207TIP3   OH240111   2.285   6.751   3.073 -0.6476  0.5087  0.4286
 6207TIP3    H140112   2.221   6.713   3.133 -1.4708 -1.0687 -1.3884
 6207TIP3    H240113   2.368   6.709   3.097 -1.4303 -2.0357 -1.1263
 6208TIP3   OH240114   4.678   2.104   4.949 -0.1866  0.0333 -0.1191
 6208TIP3    H140115   4.676   2.150   4.865  1.0951 -0.6939 -0.5576
 6208TIP3    H240116   4.588   2.074   4.962 -0.9227  2.1150 -0.1164
 6209TIP3   OH240117   3.801   2.459  16.337  0.1351  0.3230  0.1586
 6209TIP3    H140118   3.788   2.492  16.426  0.4876 -0.5986  0.5665
 6209TIP3    H240119   3.870   2.393  16.347  0.6159  0.6641 -0.9058
 6210TIP3   OH240120   1.496   5.603  15.223 -0.0498  0.5969  0.5434
 6210TIP3    H140121   1.588   5.594  15.247 -0.4678  1.2521  2.5015
 6210TIP3    H240122   1.471   5.689  15.257 -0.6250  1.7156 -2.5782
 6211TIP3   OH240123   3.208   4.015   4.185 -0.4787 -0.3878  0.4185
 6211TIP3    H140124   3.137   3.956   4.160  0.3023 -1.2908  0.2572
 6211TIP3    H240125   3.282   3.956   4.204  0.3608  0.5484  0.1074
 6212TIP3   OH240126   5.158   2.849  12.057 -0.1507  0.5401 -0.0766
 6212TIP3    H140127   5.094   2.919  12.045 -0.0089  1.2928  3.1383
 6212TIP3    H240128   5.159   2.834  12.151  4.8932  1.0490  0.0633
 6213TIP3   OH240129   6.403   2.931  15.403 -0.2838  0.1439 -0.1050
 6213TIP3    H140130   6.408   2.846  15.446  1.7461 -0.7850 -2.0421
 6213TIP3    H240131   6.331   2.922  15.341 -0.7571  0.2053  0.4321
 6214TIP3   OH240132   6.530   6.435  12.265 -0.0504  1.1088  0.2939
 6214TIP3    H140133   6.515   6.341  12.277  0.0610  0.7185 -2.4225
 6214TIP3    H240134   6.564   6.464  12.350  2.5053 -1.8352  0.3626
 6215TIP3   OH240135   2.348   3.086   4.754  0.0999  0.4622 -0.1521
 6215TIP3    H140136   2.303   3.014   4.797  0.7736  0.8094  1.1613
 6215TIP3    H240137   2.380   3.141   4.825  0.7057  1.3851 -1.1085
 6216TIP3   OH240138   4.697   6.089   3.065 -0.2624  0.1849 -0.0636
 6216TIP3    H140139   4.648   6.007   3.063 -1.0615  0.6399  0.5555
 6216TIP3    H240140   4.687   6.121   3.154  1.5912  0.0352  0.2133
 6217TIP3   OH240141   1.339   6.403  16.574  0.8877 -0.3060  0.1260
 6217TIP3    H140142   1.397   6.382  16.647  0.9497 -0.0211  0.1557
 6217TIP3    H240143   1.268   6.340  16.581 -0.1256  0.9762  1.5890
 6218TIP3   OH240144   2.354   5.533   0.543 -0.3196  0.6880  0.0047
 6218TIP3    H140145   2.390   5.478   0.475 -0.8874 -1.6306  1.5344
 6218TIP3    H240146   2.417   5.527   0.615 -1.4425  0.3281  0.9715
 6219TIP3   OH240147   0.183   1.272   6.272 -0.3367  0.0532 -0.7711
 6219TIP3    H140148   0.191   1.367   6.266  0.2168  0.1082  0.5221
 6219TIP3    H240149   0.104   1.258   6.325  0.1282 -0.1872 -0.1394
 6220TIP3   OH240150   3.489   0.751  11.200 -0.1501  0.3532 -0.7745
 6220TIP3    H140151   3.576   0.785  11.179 -0.8585  2.3497 -0.5098
 6220TIP3    H240152   3.493   0.659  11.172  3.3528 -0.7886  2.8894
 6221TIP3   OH240153   1.958   1.384  16.938  0.4553  0.2428 -0.0307
 6221TIP3    H140154   1.867   1.372  16.908  0.5648 -0.7953  0.0367
 6221TIP3    H240155   2.011   1.366  16.861  0.7246 -2.1546  0.6747
 6222TIP3   OH240156   3.887   4.635  16.489  0.1235  0.3023 -1.0299
 6222TIP3    H140157   3.875   4.729  16.480 -0.4666  0.3246 -0.0267
 6222TIP3    H240158   3.805   4.596  16.460 -0.1533  0.1635 -0.0523
 6223TIP3   OH240159   4.677   4.239   6.187  0.2702  0.2011 -0.6198
 6223TIP3    H140160   4.731   4.318   6.178  0.0442  0.3619 -0.5532
 6223TIP3    H240161   4.741   4.167   6.190  0.5600  0.5128  0.9735
 6224TIP3   OH240162   6.613   1.397  16.494 -0.1616  0.0554 -0.1656
 6224TIP3    H140163   6.551   1.433  16.432 -0.0449 -0.9996 -0.9125
 6224TIP3    H240164   6.585   1.431  16.579 -0.5288  1.2152 -0.7420
 6225TIP3   OH240165   2.680   4.059  11.315  0.2085  0.1800 -0.4232
 6225TIP3    H140166   2.683   4.154  11.315  1.2499  0.1639  0.4219
 6225TIP3    H240167   2.617   4.036  11.246 -0.0602  1.4668 -0.6160
 6226TIP3   OH240168   1.642   4.443  14.829 -0.3379 -0.2529  0.2683
 6226TIP3    H140169   1.725   4.450  14.876 -0.2916 -1.2543  0.3437
 6226TIP3    H240170   1.610   4.533  14.824  0.6436  0.1114  0.4267
 6227TIP3   OH240171   5.817   4.826  15.296  0.2321 -0.1302  0.4047
 6227TIP3    H140172   5.829   4.828  15.201 -0.6217  1.7520  0.3235
 6227TIP3    H240173   5.747   4.762  15.310  1.2530 -1.3903 -0.1048
 6228TIP3   OH240174   5.396   4.684   3.149 -0.2842 -0.4509  0.1375
 6228TIP3    H140175   5.351   4.738   3.214 -4.4813  1.2630 -3.9067
 6228TIP3    H240176   5.350   4.600   3.151 -1.7232  0.2583 -1.8631
 6229TIP3   OH240177   1.937   2.395  15.172  0.4175  0.3349 -0.3659
 6229TIP3    H140178   1.853   2.437  15.153  0.8664  2.1850  1.6570
 6229TIP3    H240179   1.942   2.393  15.268  2.6620  0.1657 -0.4734
 6230TIP3   OH240180   5.514   5.940   6.383  0.1191  0.5301 -0.4030
 6230TIP3    H140181   5.570   5.963   6.309  0.6717 -1.0823 -0.4920
 6230TIP3    H240182   5.556   5.980   6.459 -0.4794  2.2417 -0.9316
 6231TIP3   OH240183   2.219   0.856  16.293  0.0847 -0.0653 -0.1455
 6231TIP3    H140184   2.238   0.764  16.272 -1.3275 -0.5173  0.4550
 6231TIP3    H240185   2.214   0.858  16.389  0.9425  0.8212 -0.1123
 6232TIP3   OH240186   5.306   0.641  16.199  0.0475 -0.5104 -0.2931
 6232TIP3    H140187   5.353   0.623  16.281  1.5081  2.0893 -0.5245
 6232TIP3    H240188   5.353   0.589  16.134  1.2602  0.3393 -0.1197
 6233TIP3   OH240189   5.730   4.485   5.132 -0.4980  0.2485  0.4248
 6233TIP3    H140190   5.756   4.422   5.065  2.2247  1.1759  0.5671
 6233TIP3    H240191   5.811   4.506   5.179 -1.9411  1.3793  2.5019
 6234TIP3   OH240192   5.247   5.386  12.663  0.3607 -0.5401 -1.3713
 6234TIP3    H140193   5.158   5.402  12.696  1.0954  0.0252  0.3738
 6234TIP3    H240194   5.234   5.367  12.570 -1.4858  0.6368 -1.3894
 6235TIP3   OH240195   2.920   0.654  13.659  0.5025  0.5024 -0.5819
 6235TIP3    H140196   2.879   0.735  13.629  2.5119  0.5794 -3.2747
 6235TIP3    H240197   2.898   0.589  13.592 -0.5956 -1.0672  1.2513
 6236TIP3   OH240198   0.100   1.728   3.008 -0.7383 -0.0538 -0.1668
 6236TIP3    H140199   0.109   1.683   3.092 -2.7597 -2.0233 -0.9703
 6236TIP3    H240200   0.006   1.732   2.992 -0.3962  0.3140 -2.3297
 6237TIP3   OH240201   4.692   4.409  17.216 -0.3817  0.8574  0.3461
 6237TIP3    H140202   4.742   4.419  17.135 -1.9038 -0.7963 -0.8460
 6237TIP3    H240203   4.758   4.399  17.285  0.9239  0.6766 -0.9282
 6238TIP3   OH240204   1.938   6.127   1.704  0.7454  0.2513  0.4133
 6238TIP3    H140205   1.963   6.218   1.719  0.0169  0.2305  1.9247
 6238TIP3    H240206   1.885   6.105   1.781  1.0797 -1.5066  0.1429
 6239TIP3   OH240207   0.825   2.077  12.595 -0.0749  0.2673  0.8788
 6239TIP3    H140208   0.913   2.067  12.561 -0.3569  0.9234 -0.0537
 6239TIP3    H240209   0.836   2.118  12.681  0.4831  0.9467  0.4819
 6240TIP3   OH240210   5.440   3.185  10.637  0.0817 -0.4344  0.7102
 6240TIP3    H140211   5.449   3.102  10.591  2.0449 -0.2701  0.7568
 6240TIP3    H240212   5.401   3.162  10.722 -1.3457 -1.0237 -0.0971
 6241TIP3   OH240213   0.102   4.820   2.285  0.0282 -0.0314  0.3007
 6241TIP3    H140214   0.052   4.749   2.245  1.3655 -0.9545  0.2649
 6241TIP3    H240215   0.099   4.890   2.219 -3.1442  0.7975  1.2336
 6242TIP3   OH240216   6.352   2.328   5.657 -0.5946  0.0570  0.0793
 6242TIP3    H140217   6.417   2.374   5.711 -0.3530  0.8405 -0.8575
 6242TIP3    H240218   6.405   2.273   5.599 -0.7229  1.1778 -1.1240
 6243TIP3   OH240219   4.617   1.810  14.734  0.3806  0.3995  0.2658
 6243TIP3    H140220   4.659   1.882  14.689 -1.5608 -1.4354 -4.8573
 6243TIP3    H240221   4.682   1.739  14.734 -0.0922 -0.0511 -1.0122
 6244TIP3   OH240222   0.797   3.534   4.586 -0.1638 -0.5642 -0.5409
 6244TIP3    H140223   0.802   3.445   4.551 -0.3470 -1.5735  1.9294
 6244TIP3    H240224   0.838   3.528   4.672 -0.9978  1.5554  0.0306
 6245TIP3   OH240225   0.809   4.058   3.134  0.0508  0.0043  0.4873
 6245TIP3    H140226   0.773   4.130   3.081 -3.3103 -1.7235  0.3116
 6245TIP3    H240227   0.813   4.094   3.222 -1.1153  0.5907  0.3109
 6246TIP3   OH240228   4.439   5.147   4.669 -0.0721  0.2642 -0.5128
 6246TIP3    H140229   4.492   5.178   4.743 -0.8337  0.1755  0.0818
 6246TIP3    H240230   4.351   5.136   4.706 -0.8232  1.7190 -1.7890
 6247TIP3   OH240231   2.573   4.801  13.849  0.8269 -0.3179  0.3333
 6247TIP3    H140232   2.660   4.776  13.883  0.9474 -0.4160 -0.0432
 6247TIP3    H240233   2.563   4.892  13.874  1.3877 -0.0674 -0.3224
 6248TIP3   OH240234   1.760   2.260  11.226 -0.4790 -0.0987 -0.0548
 6248TIP3    H140235   1.680   2.258  11.174 -0.1965  0.5975 -0.5300
 6248TIP3    H240236   1.793   2.170  11.222 -0.4390 -0.0519 -1.1247
 6249TIP3   OH240237   5.599   5.706  13.785  0.2552  0.1584  0.0494
 6249TIP3    H140238   5.556   5.790  13.771  0.5404  0.5975  1.6987
 6249TIP3    H240239   5.538   5.641  13.749 -0.9829  0.9053  0.7512
 6250TIP3   OH240240   1.761   3.943  14.234  0.0431 -0.1960  0.3322
 6250TIP3    H140241   1.729   3.977  14.318  0.0509 -1.9131  1.0466
 6250TIP3    H240242   1.692   3.966  14.172 -0.0708  0.8933  0.8393
 6251TIP3   OH240243   3.041   6.732   4.395 -0.1429 -0.0552  0.3479
 6251TIP3    H140244   3.042   6.637   4.383  1.5522 -0.0829  0.5094
 6251TIP3    H240245   3.025   6.744   4.489  1.8450 -0.2733  0.7501
 6252TIP3   OH240246   5.160   5.369  13.945 -0.0824 -0.0495 -0.7718
 6252TIP3    H140247   5.166   5.318  13.864  0.3148 -0.9956 -0.1513
 6252TIP3    H240248   5.097   5.322  13.999 -0.3718  0.5992 -0.5408
 6253TIP3   OH240249   1.936   0.757   5.345  0.7634 -0.2175  0.5204
 6253TIP3    H140250   1.924   0.677   5.396 -1.1279 -1.0838 -1.1810
 6253TIP3    H240251   1.889   0.824   5.394 -1.0777 -1.0454 -0.0575
 6254TIP3   OH240252   5.095   3.043  14.322 -0.0166 -0.5629  0.7004
 6254TIP3    H140253   5.148   2.982  14.374  0.2586 -2.6096 -1.8647
 6254TIP3    H240254   5.106   3.012  14.232 -2.3991  1.4345 -0.3099
 6255TIP3   OH240255   4.254   1.306   1.769 -0.2469  0.2051  0.3095
 6255TIP3    H140256   4.297   1.278   1.850  1.4845 -0.3309 -0.7739
 6255TIP3    H240257   4.324   1.306   1.703 -1.3265  2.0255 -0.8767
 6256TIP3   OH240258   2.308   2.140  12.362 -0.5026  0.3359 -0.1689
 6256TIP3    H140259   2.228   2.159  12.313  0.6187  0.6075 -1.9082
 6256TIP3    H240260   2.376   2.130  12.296  0.9936  0.4648  1.3062
 6257TIP3   OH240261   0.571   4.986  14.624  0.0033  0.2373 -0.6163
 6257TIP3    H140262   0.491   4.989  14.677 -1.7353  1.0482 -3.2049
 6257TIP3    H240263   0.555   4.917  14.560  1.8941 -0.4037 -0.4299
 6258TIP3   OH240264   1.907   6.434   3.971 -0.5265 -0.5135 -0.5195
 6258TIP3    H140265   1.911   6.339   3.958  0.1123 -0.3279 -1.7489
 6258TIP3    H240266   1.815   6.457   3.962 -0.1669 -0.4278 -4.6559
 6259TIP3   OH240267   0.101   3.422   0.735  0.1470 -0.3065 -0.4544
 6259TIP3    H140268   0.072   3.425   0.644 -0.4842  0.6134 -0.2284
 6259TIP3    H240269   0.196   3.422   0.730  0.1228  1.2307 -1.0835
 6260TIP3   OH240270   1.816   6.397  13.554 -1.1563  0.0685 -0.3471
 6260TIP3    H140271   1.902   6.431  13.532 -1.0637  1.3004  1.8082
 6260TIP3    H240272   1.822   6.303  13.538 -0.4408  0.5667 -3.2990
 6261TIP3   OH240273   0.304   4.797  11.492 -0.2699 -0.3650  0.1347
 6261TIP3    H140274   0.232   4.799  11.429 -0.0158  3.6262 -0.1535
 6261TIP3    H240275   0.264   4.821  11.575  0.1609 -1.3160  0.6203
 6262TIP3   OH240276   5.120   1.403  10.524 -0.2306 -0.1506 -0.1186
 6262TIP3    H140277   5.062   1.358  10.462 -1.3684  0.1032  0.7402
 6262TIP3    H240278   5.064   1.468  10.566  1.1112  1.2721 -0.4847
 6263TIP3   OH240279   5.923   5.225   3.467  0.2250 -0.4255 -0.4118
 6263TIP3    H140280   5.843   5.205   3.420 -0.8568  0.7767  0.8791
 6263TIP3    H240281   5.986   5.248   3.398 -1.6717  2.5310 -1.2371
 6264TIP3   OH240282   4.652   5.203   2.560  0.3988 -0.1783  0.0321
 6264TIP3    H140283   4.676   5.291   2.531 -1.6989  1.0294  1.8385
 6264TIP3    H240284   4.696   5.145   2.498  0.6675  2.1585 -2.0466
 6265TIP3   OH240285   3.522   2.659   2.166  0.2461  0.0198  0.1395
 6265TIP3    H140286   3.592   2.700   2.114  1.3996  0.4285  1.9665
 6265TIP3    H240287   3.568   2.618   2.239 -1.2505 -1.5356  0.2121
 6266TIP3   OH240288   5.360   1.446   5.446  0.2865 -0.0651  0.0450
 6266TIP3    H140289   5.319   1.416   5.527  3.4887 -2.1549  0.9939
 6266TIP3    H240290   5.406   1.526   5.470  0.0643  0.0952 -0.0613
 6267TIP3   OH240291   4.309   6.637   3.569 -0.5437 -0.3355  0.0323
 6267TIP3    H140292   4.343   6.723   3.591 -1.2476 -0.7944  3.3034
 6267TIP3    H240293   4.386   6.580   3.567 -0.2068  0.1428 -1.0343
 6268TIP3   OH240294   0.269   1.032   4.668 -0.1388 -0.5812 -0.4631
 6268TIP3    H140295   0.205   0.998   4.730  0.7048 -2.0395 -0.3684
 6268TIP3    H240296   0.319   1.096   4.718  0.8667 -2.1165  0.5442
 6269TIP3   OH240297   3.795   0.896   2.457 -0.0176  0.5116 -0.1826
 6269TIP3    H140298   3.800   0.964   2.525 -3.2048 -2.0000  2.7374
 6269TIP3    H240299   3.726   0.926   2.398  0.2898  0.9821 -0.3043
 6270TIP3   OH240300   4.605   0.159  16.854 -0.3740 -0.5269 -1.0237
 6270TIP3    H140301   4.588   0.165  16.761  1.7080 -2.4757 -1.5939
 6270TIP3    H240302   4.678   0.220  16.869 -0.1683 -0.8098 -0.8527
 6271TIP3   OH240303   1.056   6.657  12.418  0.0896 -0.0551  0.0188
 6271TIP3    H140304   0.998   6.732  12.408 -0.2035 -0.4180 -1.0450
 6271TIP3    H240305   1.121   6.685  12.482  0.8171  1.6009 -1.4145
 6272TIP3   OH240306   6.033   0.612   5.438  1.5116 -0.0058 -0.4390
 6272TIP3    H140307   6.093   0.680   5.468  1.0684 -0.7441  2.2733
 6272TIP3    H240308   5.989   0.582   5.518 -2.9669  0.9640 -2.3466
 6273TIP3   OH240309   5.686   5.233   2.899  0.8134  0.0746 -0.3808
 6273TIP3    H140310   5.613   5.173   2.912  1.7684 -0.5649  2.3700
 6273TIP3    H240311   5.653   5.317   2.930  0.2994  0.4387 -1.8882
 6274TIP3   OH240312   5.862   4.415   6.277  0.5227 -0.6975 -0.5086
 6274TIP3    H140313   5.919   4.459   6.213  0.8842  0.0009  0.2843
 6274TIP3    H240314   5.855   4.325   6.245  0.0899 -0.1648 -1.9462
 6275TIP3   OH240315   2.474   1.763   2.242 -0.1138 -0.2523 -0.0382
 6275TIP3    H140316   2.499   1.744   2.333  1.0840 -1.1865 -0.5566
 6275TIP3    H240317   2.556   1.782   2.198 -0.5879 -0.7970 -1.1616
 6276TIP3   OH240318   0.037   4.955  13.438 -0.3044 -0.8023 -0.1092
 6276TIP3    H140319   0.079   5.032  13.477 -1.1632 -0.6143  0.4397
 6276TIP3    H240320  -0.028   4.991  13.377 -1.4712 -1.0899  0.9646
 6277TIP3   OH240321   4.376   1.727   5.270 -0.2473 -0.6882 -0.3329
 6277TIP3    H140322   4.288   1.757   5.293 -0.0727  0.8173 -1.4996
 6277TIP3    H240323   4.394   1.656   5.331 -1.7032 -0.0572  0.8733
 6278TIP3   OH240324   6.506   3.927  15.244 -0.7818  0.3709 -0.3400
 6278TIP3    H140325   6.552   3.855  15.202  0.2263  0.6907  0.1966
 6278TIP3    H240326   6.516   3.910  15.338 -0.6002  1.1715 -0.2099
 6279TIP3   OH240327   0.841   6.696  12.693  0.5628 -0.3881  0.1411
 6279TIP3    H140328   0.924   6.744  12.686 -0.3881  1.1757 -0.7580
 6279TIP3    H240329   0.863   6.606  12.669  1.5970  0.4653 -2.2919
 6280TIP3   OH240330   4.611   5.601  15.107  0.0393  0.3709  0.2662
 6280TIP3    H140331   4.640   5.603  15.015  2.1822  0.1322  0.9070
 6280TIP3    H240332   4.519   5.626  15.103  0.3537  1.3714 -1.8529
 6281TIP3   OH240333   3.174   4.274   5.843 -0.2088  0.7461 -0.7798
 6281TIP3    H140334   3.111   4.235   5.783 -0.7857 -1.3549  1.1339
 6281TIP3    H240335   3.224   4.201   5.878 -0.0943  1.8627  1.5225
 6282TIP3   OH240336   2.635   0.342  10.247  0.7839  0.1940 -0.2418
 6282TIP3    H140337   2.577   0.418  10.245  0.6199  0.0648 -0.4835
 6282TIP3    H240338   2.695   0.359  10.319  0.4252  0.3177  0.0282
 6283TIP3   OH240339   2.373   0.316  11.422 -0.3764  0.2490  0.0110
 6283TIP3    H140340   2.334   0.296  11.337 -2.3464 -1.8326  1.3640
 6283TIP3    H240341   2.417   0.400  11.409 -0.4537 -0.1361 -3.1088
 6284TIP3   OH240342   2.492   2.916   5.390 -0.9465  0.3355 -0.4329
 6284TIP3    H140343   2.533   2.832   5.412 -1.4093  0.2163 -0.0187
 6284TIP3    H240344   2.566   2.977   5.380 -0.6525  0.0775  0.1267
 6285TIP3   OH240345   1.888   4.752   4.497  0.9557 -0.3478 -0.2378
 6285TIP3    H140346   1.977   4.785   4.511  1.4940 -0.9162 -2.1264
 6285TIP3    H240347   1.877   4.753   4.402 -1.0211 -0.4173 -0.0255
 6286TIP3   OH240348   4.515   4.627   3.263 -0.2459 -0.0062 -0.7690
 6286TIP3    H140349   4.601   4.600   3.230  1.0114  1.0643  1.4939
 6286TIP3    H240350   4.461   4.548   3.258  1.5861 -1.3514  0.0227
 6287TIP3   OH240351   5.775   1.152   4.367 -0.1287 -0.3641  0.3388
 6287TIP3    H140352   5.848   1.092   4.354 -0.3613 -0.6008  0.1401
 6287TIP3    H240353   5.715   1.134   4.295 -0.6456 -0.5535  0.8163
 6288TIP3   OH240354   2.249   0.767   2.750 -0.3834  0.4212  0.0108
 6288TIP3    H140355   2.267   0.683   2.707 -0.2913  0.8819 -0.8633
 6288TIP3    H240356   2.332   0.792   2.791 -0.5984 -0.2517  0.8718
 6289TIP3   OH240357   6.664   3.414  14.294 -0.0664 -0.1303 -0.0906
 6289TIP3    H140358   6.686   3.321  14.293 -1.1950 -0.4080  0.0426
 6289TIP3    H240359   6.701   3.449  14.214  0.6512 -0.6275  0.0208
 6290TIP3   OH240360   3.691   2.148   2.534 -0.3017 -0.3663  0.2204
 6290TIP3    H140361   3.781   2.139   2.566 -0.9196 -0.5707  1.9448
 6290TIP3    H240362   3.700   2.195   2.450  1.2648  1.4079  1.3360
 6291TIP3   OH240363   2.675   6.744  15.336 -0.1150  0.4493  0.3243
 6291TIP3    H140364   2.639   6.681  15.274 -1.2012 -0.3001  1.6755
 6291TIP3    H240365   2.615   6.741  15.410  0.5651  2.1125  0.9582
 6292TIP3   OH240366   6.449   6.550   5.103 -0.0777  0.1863 -0.3711
 6292TIP3    H140367   6.417   6.640   5.092  1.8399  1.0600  0.8625
 6292TIP3    H240368   6.511   6.538   5.031  0.1755  0.1060 -0.1405
 6293TIP3   OH240369   6.615   2.850   3.878  0.4204  0.0035  0.0797
 6293TIP3    H140370   6.664   2.897   3.946 -0.1634  2.3397 -1.0419
 6293TIP3    H240371   6.681   2.802   3.828  1.3110  1.3236 -0.0307
 6294TIP3   OH240372   6.250   5.551   3.947  0.2617  0.3263  0.1283
 6294TIP3    H140373   6.231   5.624   4.007 -2.2691  0.8707 -1.2652
 6294TIP3    H240374   6.305   5.590   3.879 -0.0638  0.6411  0.0442
 6295TIP3   OH240375   3.852   5.114  14.340 -0.1936  0.4530  0.2303
 6295TIP3    H140376   3.863   5.108  14.434  0.6076  2.0146  0.2491
 6295TIP3    H240377   3.933   5.152  14.308 -0.1985 -0.6726 -1.1779
 6296TIP3   OH240378   4.049   1.624  11.948 -0.1459  0.4658 -0.2405
 6296TIP3    H140379   3.984   1.675  11.996 -0.0732  1.1804 -0.8910
 6296TIP3    H240380   4.097   1.576  12.015 -1.0945  0.2284  0.2702
 6297TIP3   OH240381   0.483   1.348  11.117  0.0656  0.3034 -0.8518
 6297TIP3    H140382   0.410   1.380  11.063  0.7088  0.9678 -1.3305
 6297TIP3    H240383   0.479   1.253  11.109 -0.8450  0.3240 -0.7466
 6298TIP3   OH240384   0.531   6.462  13.617  0.8762 -0.1758 -0.1302
 6298TIP3    H140385   0.454   6.518  13.623  0.9568 -0.1532  0.8816
 6298TIP3    H240386   0.604   6.522  13.601  0.9017 -0.0276  0.5183
 6299TIP3   OH240387   3.578   3.203   5.006  0.0775 -0.2792 -0.3421
 6299TIP3    H140388   3.561   3.279   5.061  1.0449  0.3205 -0.8615
 6299TIP3    H240389   3.501   3.147   5.017 -0.7226  0.8614 -0.1171
 6300TIP3   OH240390   3.564   1.349   4.742 -0.1032 -0.2408  0.3883
 6300TIP3    H140391   3.542   1.442   4.736  0.6002 -0.0836  0.2175
 6300TIP3    H240392   3.496   1.312   4.798  0.1049  0.5397  1.1643
 6301TIP3   OH240393   0.678   3.494  11.774 -0.2846 -0.7379 -0.7417
 6301TIP3    H140394   0.598   3.474  11.726  0.0234 -1.2202 -1.0673
 6301TIP3    H240395   0.692   3.587  11.761 -0.0123 -0.9340 -1.8863
 6302TIP3   OH240396   0.381   1.732   2.398  0.1941 -0.4884 -0.0917
 6302TIP3    H140397   0.331   1.737   2.480  2.3014  0.2300  1.1780
 6302TIP3    H240398   0.447   1.665   2.414  0.0431 -1.0046 -1.5537
 6303TIP3   OH240399   2.643   2.285  15.227 -0.6357  0.0909 -0.6514
 6303TIP3    H140400   2.593   2.290  15.309 -1.0801  1.9864 -1.0254
 6303TIP3    H240401   2.578   2.259  15.162 -1.1637  2.5375 -1.1347
 6304TIP3   OH240402   5.721   2.592   0.862  0.0251  0.1845 -0.1881
 6304TIP3    H140403   5.738   2.510   0.907 -2.2172  1.5247  3.3138
 6304TIP3    H240404   5.804   2.638   0.863  0.8416 -1.2404 -0.5470
 6305TIP3   OH240405   4.461   1.825  16.490  0.2466  0.2015  0.0100
 6305TIP3    H140406   4.522   1.864  16.553  0.5174 -1.1476  0.6157
 6305TIP3    H240407   4.464   1.883  16.414  1.1258  0.9874  0.6299
 6306TIP3   OH240408   0.053   6.176   4.440 -0.3147  0.6549 -0.2150
 6306TIP3    H140409   0.130   6.199   4.491 -0.2541  0.7774 -0.3622
 6306TIP3    H240410  -0.003   6.128   4.501  0.1734 -0.0310 -0.2909
 6307TIP3   OH240411   6.758   1.747   4.727 -0.3133  0.0113 -0.2842
 6307TIP3    H140412   6.741   1.830   4.682  0.9924 -0.3442 -1.4766
 6307TIP3    H240413   6.838   1.764   4.778 -1.8295  0.4464  2.0417
 6308TIP3   OH240414   2.295   3.074   1.969 -0.0978  0.0304  0.1981
 6308TIP3    H140415   2.250   3.058   2.052 -1.7250  1.2452 -0.4290
 6308TIP3    H240416   2.249   3.150   1.931  0.6584 -0.4792 -1.7749
 6309TIP3   OH240417   2.397   6.425  15.906 -0.0385  0.0369  0.0110
 6309TIP3    H140418   2.401   6.365  15.980 -1.0608 -0.6064 -0.4470
 6309TIP3    H240419   2.375   6.510  15.945 -0.7878 -0.3437  0.4193
 6310TIP3   OH240420   6.612   2.995  16.130 -0.5446 -0.0378 -0.3102
 6310TIP3    H140421   6.684   3.056  16.147 -0.7843  0.7510 -1.9938
 6310TIP3    H240422   6.653   2.922  16.083 -0.4855 -0.6079  0.6028
 6311TIP3   OH240423   1.958   4.709   0.166  0.5018 -0.1679  0.4716
 6311TIP3    H140424   1.909   4.628   0.157  0.8196 -0.1240 -1.7977
 6311TIP3    H240425   1.915   4.755   0.239  0.5558 -2.5072  2.0136
 6312TIP3   OH240426   6.035   5.061  14.770 -0.5080 -0.3655  0.0256
 6312TIP3    H140427   5.976   5.098  14.704  0.8420 -0.4022 -1.2372
 6312TIP3    H240428   6.027   4.966  14.760  0.6842 -0.3781 -1.0362
 6313TIP3   OH240429   1.202   0.193  15.398 -0.3859  0.3387 -0.3671
 6313TIP3    H140430   1.132   0.144  15.441 -1.0492  1.1415 -0.5274
 6313TIP3    H240431   1.222   0.265  15.458 -0.7119  0.9609 -0.9944
 6314TIP3   OH240432   4.156   2.155  14.998  0.4016 -0.2401  0.0562
 6314TIP3    H140433   4.084   2.138  14.937  0.6913  0.2401 -0.4298
 6314TIP3    H240434   4.218   2.206  14.947 -0.0581  1.5150  1.2304
 6315TIP3   OH240435   3.291   1.653   5.529  0.1944 -0.5344  0.1491
 6315TIP3    H140436   3.242   1.735   5.522 -1.0290 -1.0526  2.0343
 6315TIP3    H240437   3.382   1.677   5.513 -0.0364  1.3461  1.5609
 6316TIP3   OH240438   2.313   6.171   5.734  0.2396  0.1596 -0.1365
 6316TIP3    H140439   2.222   6.144   5.719  0.1019  1.8391 -2.4695
 6316TIP3    H240440   2.309   6.266   5.742  1.7961  0.2492 -0.3204
 6317TIP3   OH240441   6.751   6.307   1.236 -0.5085 -0.0168  0.3893
 6317TIP3    H140442   6.661   6.275   1.243 -0.6984  0.0820 -1.3741
 6317TIP3    H240443   6.805   6.231   1.257 -0.9953  0.0758  2.0266
 6318TIP3   OH240444   0.611   3.131   4.467  0.0426 -0.3995 -0.3478
 6318TIP3    H140445   0.663   3.196   4.418  1.3616 -1.4232 -0.3281
 6318TIP3    H240446   0.668   3.104   4.538 -0.5689 -1.4650 -0.2605
 6319TIP3   OH240447   2.606   4.383  11.644 -0.0929 -0.2943 -0.2429
 6319TIP3    H140448   2.624   4.289  11.646 -1.3415 -0.5233  0.8726
 6319TIP3    H240449   2.690   4.423  11.620  1.1794 -1.5021  2.0426
 6320TIP3   OH240450   3.852   6.221  11.222 -0.2180 -0.3492  0.0447
 6320TIP3    H140451   3.927   6.215  11.164 -0.0534 -0.4939  0.2727
 6320TIP3    H240452   3.784   6.263  11.169 -0.3588 -1.3184 -0.5399
 6321TIP3   OH240453   6.116   3.681  17.252 -0.3962  0.1289 -0.0067
 6321TIP3    H140454   6.147   3.727  17.330 -0.3441 -0.4499  0.3212
 6321TIP3    H240455   6.091   3.594  17.284  0.8305 -0.5574 -0.8431
 6322TIP3   OH240456   5.174   1.251   2.474  0.2173 -0.1128  0.2976
 6322TIP3    H140457   5.216   1.231   2.390  2.0097  1.2126  0.8343
 6322TIP3    H240458   5.247   1.268   2.533 -1.0687  1.3112  1.5177
 6323TIP3   OH240459   4.400   0.382  16.112 -0.0550 -0.2301  0.3936
 6323TIP3    H140460   4.389   0.426  16.028  2.6310 -1.9670 -0.9358
 6323TIP3    H240461   4.421   0.291  16.089 -1.2570 -1.2218  3.0013
 6324TIP3   OH240462   2.404   5.195   3.202 -0.2928  0.2027 -0.8324
 6324TIP3    H140463   2.429   5.233   3.117 -1.2124  0.6826 -0.9005
 6324TIP3    H240464   2.371   5.270   3.252 -2.3286 -0.5091 -1.0384
 6325TIP3   OH240465   1.672   2.315   5.267  0.0396  0.2024 -1.0273
 6325TIP3    H140466   1.753   2.291   5.222  1.0476  1.2434  0.2277
 6325TIP3    H240467   1.632   2.231   5.291  1.9040 -0.2962  0.3968
 6326TIP3   OH240468   4.993   5.791   2.951 -0.3344  0.1618  0.4562
 6326TIP3    H140469   5.015   5.700   2.971  0.5091  0.1579 -0.4370
 6326TIP3    H240470   4.957   5.826   3.032  1.4892 -0.3203  1.5041
 6327TIP3   OH240471   3.481   3.176   0.136  0.2915  0.6462 -0.2328
 6327TIP3    H140472   3.556   3.208   0.086  0.5969  1.1402  0.5365
 6327TIP3    H240473   3.487   3.222   0.219 -1.0910  0.9644 -0.3125
 6328TIP3   OH240474   2.543   6.673   6.552 -0.1455  0.0728  0.0107
 6328TIP3    H140475   2.603   6.694   6.623 -0.1920 -0.4907  0.2235
 6328TIP3    H240476   2.461   6.717   6.575  0.4796  1.6589 -0.7848
 6329TIP3   OH240477   1.398   0.803   4.507 -0.4205  0.4627  0.2174
 6329TIP3    H140478   1.398   0.710   4.530  2.0223  0.7073  1.4229
 6329TIP3    H240479   1.363   0.806   4.418  0.0935 -1.6672 -0.0822
 6330TIP3   OH240480   4.905   4.986   4.138  0.1966  0.3698  0.3630
 6330TIP3    H140481   4.823   5.026   4.109 -1.1412 -1.1950  1.9335
 6330TIP3    H240482   4.915   5.015   4.228  1.0589  0.0424  0.3752
 6331TIP3   OH240483   6.466   1.925   1.181 -0.4236  0.1258 -0.1610
 6331TIP3    H140484   6.397   1.967   1.233  0.8954 -1.3501  2.8883
 6331TIP3    H240485   6.426   1.846   1.147 -0.5040 -0.2774  0.8682
 6332TIP3   OH240486   4.580   3.601   4.992 -1.3044 -0.2129  0.1108
 6332TIP3    H140487   4.496   3.631   4.956 -1.0082  0.6861  0.1432
 6332TIP3    H240488   4.557   3.531   5.052 -2.1336  0.7030  0.8860
 6333TIP3   OH240489   5.191   1.478  11.349 -0.1044  0.4095 -0.4884
 6333TIP3    H140490   5.260   1.416  11.324 -0.0733  0.7243 -1.1911
 6333TIP3    H240491   5.184   1.536  11.274 -2.1250 -0.4715 -1.0032
 6334TIP3   OH240492   5.624   5.188   0.796 -0.1743  0.4370  0.2952
 6334TIP3    H140493   5.617   5.242   0.875  0.6630 -0.7581  1.2177
 6334TIP3    H240494   5.534   5.171   0.771 -0.5075 -1.0536  2.3499
 6335TIP3   OH240495   4.703   2.635  15.795 -0.0548 -0.4438  0.3278
 6335TIP3    H140496   4.786   2.666  15.832  0.2282 -0.3781 -0.3560
 6335TIP3    H240497   4.723   2.548  15.761 -0.1263 -0.2115 -0.3159
 6336TIP3   OH240498   4.350   0.673   5.706  0.0152 -0.0285  0.0623
 6336TIP3    H140499   4.422   0.619   5.740 -0.0369 -0.5938 -0.7166
 6336TIP3    H240500   4.387   0.761   5.697  0.1361  0.0432  1.2253
 6337TIP3   OH240501   1.501   3.633   4.928 -0.5600 -0.1418 -0.2742
 6337TIP3    H140502   1.597   3.628   4.938 -0.6480  3.0906  3.2517
 6337TIP3    H240503   1.470   3.546   4.951  1.2760  0.0826  3.4407
 6338TIP3   OH240504   6.338   3.213   1.383 -0.2404 -0.8054 -0.0178
 6338TIP3    H140505   6.293   3.224   1.299  1.5374 -1.9255 -1.1350
 6338TIP3    H240506   6.431   3.217   1.362  0.2604 -2.8849  1.6211
 6339TIP3   OH240507   4.673   0.556  13.351  0.3063 -0.0271  0.0707
 6339TIP3    H140508   4.643   0.560  13.442  3.6070  1.5691  1.1815
 6339TIP3    H240509   4.660   0.645  13.318 -0.2491 -0.4378 -0.8292
 6340TIP3   OH240510   5.413   4.676  11.900  0.1761 -0.0302 -0.0293
 6340TIP3    H140511   5.372   4.719  11.825 -0.1026  0.5240  0.4406
 6340TIP3    H240512   5.482   4.622  11.862  0.9598  1.3312 -0.5791
 6341TIP3   OH240513   3.625   6.268   6.047  0.4489 -0.3464  0.1565
 6341TIP3    H140514   3.610   6.176   6.026  1.9925 -0.6317  0.2463
 6341TIP3    H240515   3.602   6.316   5.967  2.7916 -1.1072 -1.0117
 6342TIP3   OH240516   3.086   6.311  11.634  0.0803  0.0796 -0.3576
 6342TIP3    H140517   3.159   6.249  11.642  0.6265  0.8039  0.3933
 6342TIP3    H240518   3.129   6.395  11.617 -0.4948  0.7962  1.6236
 6343TIP3   OH240519   1.901   2.779   6.604  0.3899 -0.4387 -0.3859
 6343TIP3    H140520   1.809   2.753   6.605  0.6621 -1.5509 -1.8979
 6343TIP3    H240521   1.908   2.846   6.672 -1.7114  0.2870 -0.8355
 6344TIP3   OH240522   2.842   5.483  11.276 -0.3143  0.1550  0.3861
 6344TIP3    H140523   2.828   5.560  11.331 -1.7881 -0.0941  0.3691
 6344TIP3    H240524   2.874   5.519  11.193 -0.5375  0.7140  0.5356
 6345TIP3   OH240525   6.581   0.055   3.935 -0.4131 -0.1613 -0.4437
 6345TIP3    H140526   6.666   0.098   3.943 -0.5057  0.1185 -0.9822
 6345TIP3    H240527   6.543   0.060   4.023  0.5070 -1.0740  0.0177
 6346TIP3   OH240528   3.258   2.506  14.794  1.4295 -0.0355  0.2513
 6346TIP3    H140529   3.232   2.545  14.878 -0.3870 -0.4351 -0.1008
 6346TIP3    H240530   3.300   2.577  14.747 -1.2277  1.3766 -0.1105
 6347TIP3   OH240531   4.821   4.392  16.653 -0.0243  0.2082  0.0437
 6347TIP3    H140532   4.726   4.398  16.658 -0.2173 -1.1028 -1.5279
 6347TIP3    H240533   4.847   4.346  16.733 -0.6144  1.2976  0.8798
 6348TIP3   OH240534   1.031   2.019   0.168 -0.2220  0.1192 -0.6449
 6348TIP3    H140535   0.953   1.984   0.212  0.2969 -1.1047 -0.6702
 6348TIP3    H240536   1.095   2.029   0.238 -0.0196 -0.0064 -0.8117
 6349TIP3   OH240537   1.990   5.248  12.122 -0.4846 -0.4863 -0.1171
 6349TIP3    H140538   2.074   5.247  12.168  0.5019 -1.1837 -1.9131
 6349TIP3    H240539   1.986   5.165  12.076 -2.5152 -0.7840  0.5351
 6350TIP3   OH240540   3.526   5.348   1.923 -0.1317 -0.2963  0.1470
 6350TIP3    H140541   3.592   5.396   1.872  0.2479 -0.4612  0.4802
 6350TIP3    H240542   3.577   5.285   1.974 -0.7078 -1.6815 -0.9764
 6351TIP3   OH240543   4.928   4.137  17.122 -0.2611 -0.3819 -0.6050
 6351TIP3    H140544   4.893   4.226  17.124 -0.7736 -0.5851 -0.4695
 6351TIP3    H240545   5.023   4.149  17.117 -0.2792  0.1660  0.3278
 6352TIP3   OH240546   2.058   1.342  13.366  0.1879 -0.1430 -0.5407
 6352TIP3    H140547   2.041   1.300  13.282 -0.0179 -0.2910 -0.4271
 6352TIP3    H240548   2.153   1.345  13.373  0.2211  0.8266 -1.2480
 6353TIP3   OH240549   3.951   1.467  12.197  0.1922  0.2234 -0.3465
 6353TIP3    H140550   3.926   1.521  12.272  0.9298 -1.1806  0.9192
 6353TIP3    H240551   3.899   1.388  12.205  2.7725 -1.4323  0.6448
 6354TIP3   OH240552   1.709   5.967   3.788  0.1924 -0.0350 -0.6093
 6354TIP3    H140553   1.675   5.978   3.699  0.3210 -1.0517 -0.7893
 6354TIP3    H240554   1.638   5.998   3.845 -0.6943 -1.3109 -1.0126
 6355TIP3   OH240555   3.548   3.248  15.201 -0.2837 -0.0559  0.0515
 6355TIP3    H140556   3.583   3.229  15.288  0.0142  1.0643  0.1820
 6355TIP3    H240557   3.457   3.274  15.217 -0.5146 -0.7767 -0.0701
 6356TIP3   OH240558   0.208   6.081  14.734 -0.3390 -0.4757 -0.3615
 6356TIP3    H140559   0.181   6.065  14.644 -1.8921 -2.2924  0.3936
 6356TIP3    H240560   0.235   5.996  14.767  0.6620  0.2551  0.7497
 6357TIP3   OH240561   0.899   1.641   3.836 -0.3769 -0.2788 -0.1623
 6357TIP3    H140562   0.852   1.564   3.868  1.1042 -1.0280  0.3124
 6357TIP3    H240563   0.954   1.607   3.765  0.3637  0.3034  0.1253
 6358TIP3   OH240564   1.947   4.974  13.521  0.2430  0.3456  0.1276
 6358TIP3    H140565   2.013   4.911  13.493 -0.3247 -0.7666  1.2344
 6358TIP3    H240566   1.950   4.971  13.617  1.2788  3.1519  0.2264
 6359TIP3   OH240567   0.979   3.688  14.887 -0.5646  0.2230  0.1015
 6359TIP3    H140568   1.061   3.665  14.930 -1.5095 -1.0954  1.2500
 6359TIP3    H240569   0.990   3.657  14.797  0.3465  0.4139  0.1418
 6360TIP3   OH240570   5.088   0.628  11.265  0.0355  0.4878  0.4108
 6360TIP3    H140571   5.036   0.673  11.199 -1.1366 -1.7072 -0.2022
 6360TIP3    H240572   5.024   0.579  11.317  1.4293 -2.1060 -0.2382
 6361TIP3   OH240573   4.482   2.566   3.502  0.0474 -0.2114 -0.9744
 6361TIP3    H140574   4.541   2.543   3.574 -0.9143 -0.8022 -0.3663
 6361TIP3    H240575   4.506   2.656   3.479  0.7281 -0.2109 -0.2750
 6362TIP3   OH240576   5.654   5.793  13.147 -0.1510  0.1550  0.4282
 6362TIP3    H140577   5.615   5.812  13.232  0.5539  0.0751  0.7680
 6362TIP3    H240578   5.603   5.718  13.114  1.9313 -2.2142  2.4158
 6363TIP3   OH240579   1.333   3.634  14.415  0.1436  0.0639 -0.0216
 6363TIP3    H140580   1.385   3.558  14.390 -0.7683 -0.3285 -0.7743
 6363TIP3    H240581   1.242   3.602  14.416 -0.2390  1.1145 -0.2564
 6364TIP3   OH240582   3.672   1.166  12.853  0.5437 -0.2069  0.1518
 6364TIP3    H140583   3.729   1.093  12.830  0.5298 -0.2600  0.2828
 6364TIP3    H240584   3.626   1.136  12.932 -1.1364 -0.9348 -1.0876
 6365TIP3   OH240585   2.868   1.749  11.884  0.1577 -0.3994  0.0041
 6365TIP3    H140586   2.921   1.774  11.960  1.4784  1.5997 -1.5222
 6365TIP3    H240587   2.927   1.696  11.830 -0.5796 -1.2859  0.0684
 6366TIP3   OH240588   3.990   2.249   2.786  0.5632 -0.2205  0.0783
 6366TIP3    H140589   4.006   2.208   2.871  1.5524 -0.4285 -0.2043
 6366TIP3    H240590   3.900   2.280   2.792  0.6053 -0.2666  1.1901
 6367TIP3   OH240591   1.744   5.224   3.211  0.3889 -0.3923 -0.1446
 6367TIP3    H140592   1.657   5.256   3.235  0.7895 -1.1690  2.5046
 6367TIP3    H240593   1.739   5.210   3.116 -2.0034  0.6456 -0.2179
 6368TIP3   OH240594   0.327   0.995  11.782 -0.0343 -0.1356 -0.2136
 6368TIP3    H140595   0.305   1.051  11.857  0.0119 -0.5267  0.0913
 6368TIP3    H240596   0.423   0.994  11.780 -0.0338  0.5222 -0.7648
 6369TIP3   OH240597   3.839   3.226  15.623 -0.5095  0.1896  0.2292
 6369TIP3    H140598   3.844   3.144  15.574 -1.2389 -0.2665  0.9155
 6369TIP3    H240599   3.830   3.199  15.714  0.1252  1.0384  0.5450
 6370TIP3   OH240600   5.514   0.832  15.344  0.5471 -0.3044  0.2181
 6370TIP3    H140601   5.478   0.748  15.316 -1.0938  0.8142 -1.1762
 6370TIP3    H240602   5.608   0.823  15.334  0.4653 -2.2581  0.9474
 6371TIP3   OH240603   4.122   1.401  14.597 -0.2416 -0.8769  0.0346
 6371TIP3    H140604   4.171   1.419  14.677  0.7988 -0.9790 -0.5821
 6371TIP3    H240605   4.058   1.472  14.591 -0.3816 -0.9213  1.0061
 6372TIP3   OH240606   0.686   1.079  16.236  0.7503 -0.2904 -0.0009
 6372TIP3    H140607   0.651   1.147  16.294  0.9233 -1.4476  1.4809
 6372TIP3    H240608   0.771   1.114  16.207 -0.6192  1.5954 -1.9524
 6373TIP3   OH240609   5.367   6.033  12.504 -0.6553 -0.7096  0.0576
 6373TIP3    H140610   5.358   6.123  12.472 -3.1334 -0.0106  2.4998
 6373TIP3    H240611   5.277   6.001  12.506  0.0998 -2.8345  0.4295
 6374TIP3   OH240612   1.372   5.463   1.589 -0.7725  0.4795  0.2316
 6374TIP3    H140613   1.323   5.432   1.512  0.8049 -0.5195 -0.3834
 6374TIP3    H240614   1.435   5.525   1.554  2.3466 -2.5902  0.1825
 6375TIP3   OH240615   1.880   6.194   3.839 -0.0927  0.4037 -0.3229
 6375TIP3    H140616   1.798   6.146   3.834 -0.4634  0.8476  1.2427
 6375TIP3    H240617   1.936   6.140   3.895  0.1602  0.8295 -0.1625
 6376TIP3   OH240618   4.973   3.753   2.581  0.0872  0.1006 -0.5414
 6376TIP3    H140619   4.908   3.699   2.625 -0.1159  1.6005  1.0842
 6376TIP3    H240620   4.921   3.823   2.539  0.5295  0.4587 -0.4954
 6377TIP3   OH240621   5.588   1.744  15.494 -0.1190  0.2357 -0.1254
 6377TIP3    H140622   5.506   1.710  15.459  0.5681 -0.9857 -0.5527
 6377TIP3    H240623   5.623   1.673  15.548 -0.2113  1.3899  1.4872
 6378TIP3   OH240624   0.169   0.471  14.419  0.2757  0.0026 -0.4739
 6378TIP3    H140625   0.245   0.526  14.402  1.2399 -0.9668  0.6433
 6378TIP3    H240626   0.204   0.393  14.462 -1.3237 -0.5261 -0.0744
 6379TIP3   OH240627   6.044   0.217   5.627  0.5982 -0.1454 -0.0615
 6379TIP3    H140628   5.951   0.240   5.627  0.2814 -1.1569  2.4180
 6379TIP3    H240629   6.045   0.126   5.658  2.2986 -0.8475 -2.0973
 6380TIP3   OH240630   1.446   0.568  14.646  0.0119  0.2132 -0.1255
 6380TIP3    H140631   1.372   0.628  14.638  0.6317  0.8903 -1.1560
 6380TIP3    H240632   1.514   0.621  14.688  0.2459 -0.0611 -0.1604
 6381TIP3   OH240633   3.751   3.648   1.660  0.3739 -0.1377  0.8937
 6381TIP3    H140634   3.659   3.662   1.681  0.3677 -1.4028  1.7380
 6381TIP3    H240635   3.799   3.690   1.732  0.4768  1.0177  0.1621
 6382TIP3   OH240636   0.322   2.093  16.068 -0.2487 -0.1070 -0.2182
 6382TIP3    H140637   0.373   2.066  16.144  0.9711  1.0504 -0.6033
 6382TIP3    H240638   0.231   2.092  16.099  0.4066  2.9921  2.1501
 6383TIP3   OH240639   5.122   6.237   1.026  0.1949  0.0901 -0.5313
 6383TIP3    H140640   5.151   6.327   1.013  0.4154  0.3040  1.2317
 6383TIP3    H240641   5.203   6.187   1.030  0.1777  0.1276  0.5312
 6384TIP3   OH240642   4.857   6.502  12.100  0.1855 -0.5838 -0.1281
 6384TIP3    H140643   4.888   6.588  12.070 -2.3345  0.3630 -0.1963
 6384TIP3    H240644   4.819   6.520  12.186  2.4565 -2.2588  1.2646
 6385TIP3   OH240645   5.897   2.068  11.584  0.0696  0.1243  0.0198
 6385TIP3    H140646   5.893   2.117  11.502  0.7146 -0.3614 -0.3045
 6385TIP3    H240647   5.873   1.978  11.560 -1.7123  0.3937  0.7220
 6386TIP3   OH240648   3.285   0.434   6.195 -0.3843 -0.4907 -0.0045
 6386TIP3    H140649   3.199   0.467   6.168  0.0929  1.4834  0.8414
 6386TIP3    H240650   3.277   0.339   6.186 -1.6851 -0.1766 -2.7476
 6387TIP3   OH240651   2.689   6.781   3.152 -0.2897  0.2490 -0.2652
 6387TIP3    H140652   2.749   6.739   3.213 -0.6285  0.0291 -0.0785
 6387TIP3    H240653   2.603   6.746   3.176 -0.7153  1.8099  0.5588
 6388TIP3   OH240654   5.131   5.141   1.999 -0.6255 -0.0546 -0.3013
 6388TIP3    H140655   5.067   5.123   1.930 -0.0105 -0.6362 -0.7266
 6388TIP3    H240656   5.134   5.236   2.005 -1.8907 -0.0263  0.0583
 6389TIP3   OH240657   2.689   6.509   6.149  0.0077  0.2467 -0.2688
 6389TIP3    H140658   2.622   6.562   6.193  1.2693  2.1504 -0.5755
 6389TIP3    H240659   2.644   6.475   6.071 -1.1457 -0.0625  0.5139
 6390TIP3   OH240660   4.053   2.265   2.074  1.0183  0.0208  0.1829
 6390TIP3    H140661   4.049   2.232   1.985 -0.3179 -0.8415  0.5595
 6390TIP3    H240662   4.031   2.358   2.066  0.1380 -0.2253 -0.2952
 6391TIP3   OH240663   4.531   2.332   1.807 -0.1382 -0.4696 -0.1177
 6391TIP3    H140664   4.540   2.245   1.768  3.8994  0.5344 -1.7254
 6391TIP3    H240665   4.603   2.336   1.871 -1.4266  1.0415  1.2627
 6392TIP3   OH240666   0.378   0.678   5.083 -0.7323 -0.3077  0.7814
 6392TIP3    H140667   0.284   0.662   5.073 -0.9442 -0.5485  3.0182
 6392TIP3    H240668   0.419   0.594   5.063 -1.0301 -0.3433  0.3221
 6393TIP3   OH240669   3.016   1.771  11.337 -0.1222  0.8096  0.2483
 6393TIP3    H140670   2.988   1.756  11.247 -1.1466  1.4507  0.4560
 6393TIP3    H240671   2.985   1.695  11.385  0.0215  0.6901  0.1546
 6394TIP3   OH240672   6.204   1.246  10.432  0.6252 -0.1988 -0.4004
 6394TIP3    H140673   6.267   1.203  10.491  0.1600 -1.9552 -1.1585
 6394TIP3    H240674   6.231   1.338  10.431  1.4362 -0.3981  1.5248
 6395TIP3   OH240675   6.432   3.568  13.802 -0.1415  0.1244  0.6893
 6395TIP3    H140676   6.344   3.544  13.831 -0.0951 -0.3327  0.4699
 6395TIP3    H240677   6.477   3.484  13.792  0.2078  0.3388  0.4587
 6396TIP3   OH240678   0.258   5.758   6.030 -0.0131  0.1438 -0.0274
 6396TIP3    H140679   0.171   5.778   5.995  0.1310  1.9028  0.5577
 6396TIP3    H240680   0.259   5.663   6.041 -1.5250  0.0170 -0.9228
 6397TIP3   OH240681   0.995   0.548   5.168 -0.2711  0.6257 -0.1077
 6397TIP3    H140682   0.932   0.501   5.114  0.0247  0.2925 -0.1695
 6397TIP3    H240683   0.946   0.575   5.246 -0.7331  1.2353 -0.6095
 6398TIP3   OH240684   5.355   6.052  13.111  0.1915  0.7528  0.0710
 6398TIP3    H140685   5.358   5.957  13.117 -0.7508  0.7887  1.2799
 6398TIP3    H240686   5.348   6.070  13.017  1.5290 -0.3236 -0.2383
 6399TIP3   OH240687   1.694   4.757  11.815  0.2492 -0.7097 -0.4658
 6399TIP3    H140688   1.651   4.680  11.853  0.0234 -1.3253 -1.9399
 6399TIP3    H240689   1.672   4.753  11.722 -1.9525  2.5444 -0.1810
 6400TIP3   OH240690   4.617   2.809   5.150  0.0172  0.4032 -0.0601
 6400TIP3    H140691   4.570   2.891   5.135  0.7442  1.0650  1.2051
 6400TIP3    H240692   4.562   2.761   5.211 -0.4981 -0.1282 -0.9456
 6401TIP3   OH240693   5.051   4.664  14.268  0.5451  0.3214 -0.5962
 6401TIP3    H140694   5.079   4.597  14.205 -0.7317 -0.2308 -0.5988
 6401TIP3    H240695   5.046   4.745  14.217  0.4697  0.0702 -0.9869
 6402TIP3   OH240696   1.856   5.042   1.226 -0.2112  0.4458  0.7952
 6402TIP3    H140697   1.773   5.009   1.261 -0.6678  1.9583  1.2050
 6402TIP3    H240698   1.846   5.035   1.131  0.9332 -3.4356  0.8756
 6403TIP3   OH240699   2.809   6.121  14.591 -0.1782 -0.8253  0.3887
 6403TIP3    H140700   2.853   6.198  14.626 -0.5975 -0.1218 -0.5944
 6403TIP3    H240701   2.853   6.047  14.632  1.4562 -0.1174 -0.0418
 6404TIP3   OH240702   3.362   2.227   3.694 -0.1695 -0.7915  0.4452
 6404TIP3    H140703   3.279   2.273   3.680  0.4559  0.2367  0.0903
 6404TIP3    H240704   3.371   2.223   3.790 -0.2090 -0.1274  0.4815
 6405TIP3   OH240705   6.537   3.772  11.700  0.5991  0.4073  0.0110
 6405TIP3    H140706   6.631   3.791  11.702  0.9317 -1.2233  0.1059
 6405TIP3    H240707   6.511   3.772  11.793  1.0484 -1.6956  0.1667
 6406TIP3   OH240708   6.668   3.275   4.815  0.4331  0.3009 -0.2746
 6406TIP3    H140709   6.730   3.202   4.814  0.9459  0.7137  0.7332
 6406TIP3    H240710   6.721   3.351   4.839 -0.6944  0.4511  1.8224
 6407TIP3   OH240711   5.290   1.793  14.667  0.2235 -0.0205 -0.0626
 6407TIP3    H140712   5.368   1.738  14.660  1.1152  1.2459 -0.3172
 6407TIP3    H240713   5.291   1.846  14.587 -0.4018  0.6176  0.3472
 6408TIP3   OH240714   0.773   6.666   3.021  0.7218 -0.0251 -0.1766
 6408TIP3    H140715   0.681   6.691   3.011  0.7505  0.5483  0.9532
 6408TIP3    H240716   0.772   6.570   3.019  0.2722 -0.0114 -1.5209
 6409TIP3   OH240717   3.980   2.772   3.561  0.0997  0.2167  0.1999
 6409TIP3    H140718   3.940   2.778   3.475  0.7698  1.0768 -0.0588
 6409TIP3    H240719   4.058   2.827   3.556  2.3607 -2.9040  0.1453
 6410TIP3   OH240720   5.371   5.661   0.074  0.1848  0.0667 -0.0445
 6410TIP3    H140721   5.337   5.632  -0.011  1.3269  0.3792 -0.6154
 6410TIP3    H240722   5.430   5.591   0.102  2.0595  1.2715 -0.8870
 6411TIP3   OH240723   4.339   6.552   0.080  0.0135 -0.3048  0.0881
 6411TIP3    H140724   4.416   6.498   0.063 -0.0416 -0.5728  0.6788
 6411TIP3    H240725   4.265   6.492   0.067 -0.1298  0.1014 -1.0671
 6412TIP3   OH240726   6.554   2.715  13.726 -0.1111 -0.2311  0.2105
 6412TIP3    H140727   6.477   2.762  13.757  0.6290 -0.7287  2.9060
 6412TIP3    H240728   6.607   2.783  13.683 -2.0862  0.0721 -1.8716
 6413TIP3   OH240729   1.496   0.540  16.806 -0.3322 -0.8057 -0.0443
 6413TIP3    H140730   1.405   0.557  16.831 -0.7781 -0.1243 -2.0154
 6413TIP3    H240731   1.515   0.453  16.840 -1.8995 -1.1739 -0.0721
 6414TIP3   OH240732   3.865   5.451   0.203  0.0854 -0.1809 -0.4367
 6414TIP3    H140733   3.851   5.438   0.296 -0.3712 -0.7821 -0.5830
 6414TIP3    H240734   3.934   5.518   0.197 -1.1359  1.1778  0.3162
 6415TIP3   OH240735   2.636   0.250   3.895  0.3756  0.1808 -0.6049
 6415TIP3    H140736   2.693   0.235   3.971 -1.0448  0.0240  0.4580
 6415TIP3    H240737   2.548   0.232   3.928 -0.6334  3.4372 -1.3573
 6416TIP3   OH240738   0.952   0.181   4.543 -0.4194 -0.2917 -0.1197
 6416TIP3    H140739   0.965   0.184   4.448  2.2653  0.4983  0.2332
 6416TIP3    H240740   0.968   0.089   4.566 -2.1321 -0.7189 -0.5286
 6417TIP3   OH240741   5.032   4.940   3.111  0.1949  0.4283 -0.0707
 6417TIP3    H140742   5.008   5.001   3.179 -0.3888  0.6022 -0.4334
 6417TIP3    H240743   4.950   4.918   3.067  0.2207 -1.5628  0.8432
 6418TIP3   OH240744   5.138   0.554   0.435 -0.4961 -0.3100  0.4830
 6418TIP3    H140745   5.180   0.607   0.503  1.1447 -1.0543  0.0880
 6418TIP3    H240746   5.192   0.568   0.357  0.5574 -3.2768  0.6180
 6419TIP3   OH240747   4.863   4.579   4.176  0.0559  0.1587 -0.0031
 6419TIP3    H140748   4.863   4.490   4.211 -0.6321  0.3794  0.5726
 6419TIP3    H240749   4.952   4.592   4.143  0.0953 -0.8162 -0.2888
 6420TIP3   OH240750   4.842   0.382  11.541  0.0269 -0.5892  0.1285
 6420TIP3    H140751   4.912   0.371  11.605  0.2503  1.0194  0.1761
 6420TIP3    H240752   4.845   0.475  11.517 -0.9376 -0.8796 -1.1924
 6421TIP3   OH240753   5.684   1.719  14.198  0.3818 -0.3089 -0.4906
 6421TIP3    H140754   5.621   1.779  14.159 -0.8412 -1.4524 -0.2993
 6421TIP3    H240755   5.765   1.733  14.147  0.1527  1.5447 -0.3757
 6422TIP3   OH240756   4.499   3.901   4.621  0.2483  0.5682 -0.8113
 6422TIP3    H140757   4.404   3.890   4.614  0.2609 -0.3568  0.2849
 6422TIP3    H240758   4.511   3.995   4.638 -0.5187  0.5594 -0.1869
 6423TIP3   OH240759   0.038   4.757   4.209 -0.0491  0.0195 -0.4962
 6423TIP3    H140760   0.094   4.749   4.132 -1.2438  2.0099 -1.5975
 6423TIP3    H240761  -0.018   4.680   4.207 -1.2930  0.9626 -2.6150
 6424TIP3   OH240762   4.627   1.917   6.672  0.7660 -0.0850  0.0155
 6424TIP3    H140763   4.686   1.864   6.619  0.3230 -2.5410  1.9252
 6424TIP3    H240764   4.539   1.890   6.644  0.5303  0.6309  0.0520
 6425TIP3   OH240765   0.184   5.927  13.309  0.1420 -0.0332 -0.1086
 6425TIP3    H140766   0.189   5.978  13.228 -1.8679  1.5663  0.7441
 6425TIP3    H240767   0.202   5.989  13.379 -1.2586 -0.6908  0.8790
 6426TIP3   OH240768   3.458   4.920  11.525 -0.1427  0.0928 -0.2526
 6426TIP3    H140769   3.514   4.843  11.524 -1.1728 -0.6747 -0.0914
 6426TIP3    H240770   3.508   4.988  11.480  1.2038 -0.3645  0.5417
 6427TIP3   OH240771   4.183   1.574  15.542  0.6726 -0.1638  0.6005
 6427TIP3    H140772   4.256   1.563  15.481  0.2232 -0.1880  0.0594
 6427TIP3    H240773   4.105   1.572  15.487  0.3305  1.4077  0.9908
 6428TIP3   OH240774   5.225   4.669   1.393 -1.1526 -0.5360 -0.3664
 6428TIP3    H140775   5.179   4.748   1.423 -0.1082  0.3544 -1.0718
 6428TIP3    H240776   5.304   4.666   1.447 -0.6179 -0.4443 -1.1377
 6429TIP3   OH240777   4.908   4.053  13.148  0.2704 -0.1499  0.1705
 6429TIP3    H140778   4.881   4.105  13.224 -0.5437 -0.9181  0.4096
 6429TIP3    H240779   4.860   3.971  13.157 -0.7146  0.2051 -1.8188
 6430TIP3   OH240780   3.421   6.304  12.107  0.2088 -0.0892 -0.4415
 6430TIP3    H140781   3.364   6.368  12.150 -2.0202 -2.4608  0.3353
 6430TIP3    H240782   3.489   6.285  12.172 -1.0107 -0.8905  0.6330
 6431TIP3   OH240783   2.764   1.423  14.140  0.1906 -0.1963 -0.4567
 6431TIP3    H140784   2.718   1.340  14.152 -0.1523 -0.0780 -0.9663
 6431TIP3    H240785   2.719   1.484  14.199  0.4218 -0.3635 -0.1067
 6432TIP3   OH240786   0.170   5.890   5.242 -0.4759 -0.6915 -0.5062
 6432TIP3    H140787   0.217   5.872   5.323  0.2285  0.2510 -0.6981
 6432TIP3    H240788   0.127   5.807   5.221 -0.4660 -1.0158  0.6906
 6433TIP3   OH240789   0.349   3.881   4.659  0.0910  0.3379  1.0906
 6433TIP3    H140790   0.404   3.844   4.727 -0.1683  0.6207  1.4587
 6433TIP3    H240791   0.262   3.887   4.699  0.2461  1.8457  1.2362
 6434TIP3   OH240792   2.303   0.895  14.764  0.3168 -0.3800 -0.1494
 6434TIP3    H140793   2.338   0.808  14.785  1.9799  0.4793  0.7171
 6434TIP3    H240794   2.360   0.956  14.811 -1.8355  1.1122  0.5999
 6435TIP3   OH240795   1.024   3.951   3.975  0.2730  0.2899 -0.1854
 6435TIP3    H140796   0.976   3.882   4.021 -1.3558  0.8998 -0.9388
 6435TIP3    H240797   1.060   4.005   4.045  0.6458 -0.7008  0.4032
 6436TIP3   OH240798   4.227   2.729   0.314 -0.0347 -0.1213 -0.1987
 6436TIP3    H140799   4.249   2.677   0.237  0.3443 -1.2436  0.6589
 6436TIP3    H240800   4.312   2.749   0.355 -0.2442  0.2834  0.0462
 6437TIP3   OH240801   4.324   1.031  15.894  0.0512 -0.2885 -0.1549
 6437TIP3    H140802   4.324   0.988  15.979  2.7495  1.9057  1.0038
 6437TIP3    H240803   4.241   1.080  15.892  1.7113  2.8284  2.9415
 6438TIP3   OH240804   0.175   3.187   2.860  0.1276 -0.3933  1.0178
 6438TIP3    H140805   0.259   3.146   2.880  0.5883  1.1555  2.3958
 6438TIP3    H240806   0.110   3.129   2.899  0.4387 -2.3229 -1.2433
 6439TIP3   OH240807   3.536   0.747  15.478  0.4624  0.0134 -0.0258
 6439TIP3    H140808   3.622   0.742  15.519 -0.3688 -0.6594  1.6899
 6439TIP3    H240809   3.540   0.687  15.404  1.1955 -0.6539  0.5541
 6440TIP3   OH240810   2.200   1.735  15.158 -0.5350  0.1486  0.1466
 6440TIP3    H140811   2.198   1.755  15.252  1.9180  1.4401 -0.0403
 6440TIP3    H240812   2.210   1.820  15.116 -3.5727 -0.2071 -1.4345
 6441TIP3   OH240813   1.397   4.650   4.819  0.3267  0.1602  0.1898
 6441TIP3    H140814   1.476   4.697   4.793  0.2657  1.0412  1.5886
 6441TIP3    H240815   1.427   4.561   4.836  0.4785 -0.3028 -2.2340
 6442TIP3   OH240816   2.395   0.656   3.475 -0.0074 -0.0268  0.1965
 6442TIP3    H140817   2.324   0.715   3.500  0.2386  0.5719 -0.4771
 6442TIP3    H240818   2.372   0.628   3.386 -0.0746 -0.8825  0.4779
 6443TIP3   OH240819   3.604   4.779  13.347 -0.0540  0.3573  1.0685
 6443TIP3    H140820   3.532   4.839  13.366 -0.8808 -0.6637  1.2411
 6443TIP3    H240821   3.561   4.698  13.320  1.0446 -0.0245  0.4190
 6444TIP3   OH240822   6.465   5.331   2.476  0.3104 -0.1073 -0.1613
 6444TIP3    H140823   6.483   5.247   2.518  0.3215 -0.2097 -0.3693
 6444TIP3    H240824   6.372   5.347   2.494 -0.3658 -1.3854 -2.2414
 6445TIP3   OH240825   5.967   6.713   0.088 -0.5368  0.3695  0.6700
 6445TIP3    H140826   5.980   6.731   0.181  0.5736  0.3738  0.5164
 6445TIP3    H240827   5.920   6.629   0.086  1.3999 -0.7545  1.1905
 6446TIP3   OH240828   5.625   2.579  15.357 -0.4433  0.5675  0.3870
 6446TIP3    H140829   5.651   2.521  15.285  0.1256 -0.5645  1.4761
 6446TIP3    H240830   5.652   2.666  15.328  0.8038 -0.0169 -0.3005
 6447TIP3   OH240831   6.213   4.690   5.618 -0.1061  0.1796  0.3944
 6447TIP3    H140832   6.147   4.718   5.555  0.0938 -2.0492 -0.8301
 6447TIP3    H240833   6.294   4.731   5.588 -0.0239 -0.8124 -0.8043
 6448TIP3   OH240834   0.352   4.984  14.772 -0.2663 -0.3283 -1.2541
 6448TIP3    H140835   0.258   4.971  14.763 -0.6522  0.6090  0.9177
 6448TIP3    H240836   0.377   4.930  14.847  0.9925 -0.8345 -2.0226
 6449TIP3   OH240837   1.180   3.465  12.385  0.5548  0.0014 -0.5600
 6449TIP3    H140838   1.120   3.393  12.404 -0.9127  0.8530 -1.7794
 6449TIP3    H240839   1.235   3.472  12.463 -2.2324  0.4397  1.4774
 6450TIP3   OH240840   2.291   2.211   2.816  0.7231 -0.5030  0.2127
 6450TIP3    H140841   2.311   2.187   2.725 -0.4595  1.4258 -0.5881
 6450TIP3    H240842   2.327   2.140   2.868  1.3519 -1.6816 -1.7830
 6451TIP3   OH240843   4.345   5.311   5.509  0.2232  0.1093  0.0398
 6451TIP3    H140844   4.284   5.379   5.537  0.5327  0.6471 -0.5651
 6451TIP3    H240845   4.395   5.290   5.588 -0.2481  0.1854  0.3611
 6452TIP3   OH240846   5.155   4.986  15.047  0.3720 -0.1123  0.1121
 6452TIP3    H140847   5.225   4.925  15.025  0.9004  0.5678 -0.1410
 6452TIP3    H240848   5.195   5.045  15.112  0.0926  0.3766 -0.1586
 6453TIP3   OH240849   2.514   6.079   5.527 -0.3513  0.1024 -0.0884
 6453TIP3    H140850   2.450   6.115   5.589 -1.0962  0.2998 -0.9660
 6453TIP3    H240851   2.485   5.990   5.512  0.8952 -0.5572  1.2673
 6454TIP3   OH240852   0.129   6.605  14.785 -0.7986  0.5568 -0.8057
 6454TIP3    H140853   0.088   6.685  14.751 -1.1517 -0.0825 -1.8893
 6454TIP3    H240854   0.063   6.537  14.773 -0.0256 -0.1586 -1.0767
 6455TIP3   OH240855   1.953   0.015   0.744 -0.5097  0.6811 -0.5139
 6455TIP3    H140856   2.016   0.079   0.711  0.2224  0.2864  0.1067
 6455TIP3    H240857   1.877   0.067   0.770 -0.0204  1.2727 -0.2521
 6456TIP3   OH240858   2.506   1.999   4.893  0.2931  0.1082  1.0792
 6456TIP3    H140859   2.460   1.918   4.871  0.2307 -0.2526  2.4981
 6456TIP3    H240860   2.501   2.004   4.988 -0.1055  2.0173  0.9695
 6457TIP3   OH240861   0.082   2.737   0.366  0.5637 -0.2851 -0.2675
 6457TIP3    H140862   0.088   2.711   0.457 -0.6044  0.4477  0.0229
 6457TIP3    H240863   0.121   2.664   0.318  0.1350 -1.1876  0.7352
 6458TIP3   OH240864   2.809   0.305  11.216 -0.5102 -0.0760  0.8099
 6458TIP3    H140865   2.870   0.241  11.252 -2.2937 -1.5105  1.3856
 6458TIP3    H240866   2.748   0.323  11.287 -2.0978 -0.4090 -0.4278
 6459TIP3   OH240867   2.528   3.714   2.942 -0.7391  0.2331  0.2934
 6459TIP3    H140868   2.615   3.736   2.912 -0.1839 -3.2315 -0.8936
 6459TIP3    H240869   2.470   3.740   2.871 -0.3023 -0.3792 -0.2943
 6460TIP3   OH240870   1.532   4.392   3.601 -0.0642 -0.1743  0.5663
 6460TIP3    H140871   1.604   4.407   3.662  0.0659 -1.1518  0.6635
 6460TIP3    H240872   1.454   4.386   3.656 -0.0567 -0.2911  0.5629
 6461TIP3   OH240873   4.017   2.741  15.955 -0.2283  0.3907 -0.2458
 6461TIP3    H140874   4.032   2.686  15.877  1.4714  2.0047 -1.0978
 6461TIP3    H240875   3.973   2.683  16.017  2.3300 -2.2345 -0.7683
 6462TIP3   OH240876   3.602   1.653  10.963  0.6179  0.2334  1.0483
 6462TIP3    H140877   3.676   1.672  11.021  1.6815 -0.9443  0.1160
 6462TIP3    H240878   3.642   1.613  10.886 -1.0414 -0.8334  0.7142
 6463TIP3   OH240879   4.124   4.619   1.261  0.9740  0.2532  0.0178
 6463TIP3    H140880   4.073   4.568   1.197  0.9336  1.0209 -0.5728
 6463TIP3    H240881   4.070   4.696   1.278  0.9896  0.0521  0.9860
 6464TIP3   OH240882   1.750   5.254  14.524  0.5251  0.2321  0.5873
 6464TIP3    H140883   1.675   5.242  14.582 -0.8707  0.6455 -1.1193
 6464TIP3    H240884   1.746   5.180  14.463  1.9040 -0.1281  0.9098
 6465TIP3   OH240885   5.901   5.686  11.917 -0.6548  0.4283 -0.1221
 6465TIP3    H140886   5.891   5.591  11.929 -2.0178  0.4974 -0.6758
 6465TIP3    H240887   5.818   5.714  11.879  0.1440  1.6778 -0.9615
 6466TIP3   OH240888   0.201   0.378  15.557  0.2828 -0.4744 -0.1522
 6466TIP3    H140889   0.277   0.431  15.531  0.0143  0.5110  1.0273
 6466TIP3    H240890   0.236   0.289  15.564  1.0817 -0.2141 -0.6702
 6467TIP3   OH240891   3.995   3.683   5.877 -0.3680  0.4816  0.1074
 6467TIP3    H140892   4.052   3.607   5.862  1.4261  1.5188  1.4100
 6467TIP3    H240893   3.996   3.730   5.794  1.1719  0.7794  0.2727
 6468TIP3   OH240894   4.852   0.505  13.592 -0.0301  0.2289 -0.0007
 6468TIP3    H140895   4.850   0.468  13.680 -2.0184 -1.8171 -0.8632
 6468TIP3    H240896   4.779   0.566  13.589  0.8451  1.3041  0.1644
 6469TIP3   OH240897   0.880   0.568  12.704  0.7499  0.7220  0.1664
 6469TIP3    H140898   0.971   0.561  12.735  0.8731 -0.4841 -0.4214
 6469TIP3    H240899   0.871   0.496  12.641 -0.6550  0.7583  0.3143
 6470TIP3   OH240900   0.544   6.629   2.061  0.4091 -0.7566  0.1680
 6470TIP3    H140901   0.631   6.658   2.087 -0.1884  0.3003  1.0353
 6470TIP3    H240902   0.495   6.623   2.143 -0.8661  0.4661 -0.4929
 6471TIP3   OH240903   2.249   1.700   4.612 -0.3327  0.3051 -0.2442
 6471TIP3    H140904   2.179   1.735   4.556  0.5358  1.4644 -0.6266
 6471TIP3    H240905   2.287   1.628   4.562 -1.1655 -0.2646 -0.0788
 6472TIP3   OH240906   2.771   1.082  11.120 -0.0255 -0.0475 -0.0645
 6472TIP3    H140907   2.736   1.148  11.060 -1.2124  0.1898  0.8769
 6472TIP3    H240908   2.708   1.079  11.192  0.7909 -1.1536  0.6174
 6473TIP3   OH240909   0.032   2.792   3.280 -0.0979  0.1405 -0.3117
 6473TIP3    H140910  -0.049   2.809   3.328 -0.0305  1.5802 -0.6685
 6473TIP3    H240911   0.005   2.757   3.196 -0.2915 -0.6130  0.0608
 6474TIP3   OH240912   2.492   0.749   1.630  0.2485  0.3924  0.7148
 6474TIP3    H140913   2.398   0.764   1.622  0.4705  0.6328 -1.6229
 6474TIP3    H240914   2.500   0.686   1.702 -1.7767 -0.5703  0.1301
 6475TIP3   OH240915   2.535   5.587   0.757  0.1308  0.5706  0.1447
 6475TIP3    H140916   2.553   5.533   0.834 -0.6313  0.1914  0.0654
 6475TIP3    H240917   2.596   5.660   0.764  0.9716 -0.1346  0.4215
 6476TIP3   OH240918   5.538   2.440   4.325 -0.3124 -0.0603  0.3255
 6476TIP3    H140919   5.449   2.463   4.350 -0.5120 -0.5787  0.1086
 6476TIP3    H240920   5.528   2.364   4.267  0.2348  0.1693 -0.0840
 6477TIP3   OH240921   3.605   4.230  13.499  0.8689 -0.5968 -0.1262
 6477TIP3    H140922   3.639   4.305  13.451  1.6843 -0.5154  0.5643
 6477TIP3    H240923   3.561   4.177  13.433 -2.0622  1.7877 -0.1940
 6478TIP3   OH240924   2.120   0.358   4.815  0.7111  0.0338  0.1142
 6478TIP3    H140925   2.154   0.310   4.740  2.2425  0.8039  0.2884
 6478TIP3    H240926   2.032   0.385   4.789 -0.3798 -3.1984  0.1806
 6479TIP3   OH240927   4.953   2.790  14.764 -0.2104  0.1198  0.0479
 6479TIP3    H140928   4.916   2.730  14.700 -0.5728  1.7477 -1.2845
 6479TIP3    H240929   4.975   2.869  14.714  2.2751  0.3195  1.3495
 6480TIP3   OH240930   1.550   2.707  13.500 -0.0054 -0.4969  0.5092
 6480TIP3    H140931   1.535   2.796  13.469  2.7620  0.5300  1.9231
 6480TIP3    H240932   1.561   2.655  13.420  2.1801  1.1920 -0.3556
 6481TIP3   OH240933   1.419   4.644   4.480 -0.1874  1.1776 -0.3170
 6481TIP3    H140934   1.496   4.597   4.446  0.6688  2.9507 -0.9019
 6481TIP3    H240935   1.382   4.586   4.546  0.9298 -0.2561 -0.9350
 6482TIP3   OH240936   1.543   2.867   2.702 -0.5334 -0.3321 -0.3261
 6482TIP3    H140937   1.472   2.916   2.662 -0.1725  1.4934  1.1823
 6482TIP3    H240938   1.621   2.892   2.652 -0.5192 -0.1146 -0.2004
 6483TIP3   OH240939   2.171   1.706  14.634  0.3874 -0.2386  0.4297
 6483TIP3    H140940   2.202   1.688  14.722  0.8795 -0.3685  0.2265
 6483TIP3    H240941   2.248   1.697  14.578  0.1602  0.2191  0.0360
 6484TIP3   OH240942   2.820   4.988  11.358  0.2660  0.1420  0.5289
 6484TIP3    H140943   2.882   4.918  11.341 -0.6817 -0.2967 -1.2156
 6484TIP3    H240944   2.756   4.983  11.287  1.6919  4.4857 -1.2463
 6485TIP3   OH240945   5.055   2.687   2.939  0.1310  0.1276  0.1465
 6485TIP3    H140946   4.999   2.706   2.864 -0.0040 -2.5704 -0.4724
 6485TIP3    H240947   5.017   2.737   3.010 -1.3032  0.6579 -0.9621
 6486TIP3   OH240948   6.343   2.860   4.233  0.1500 -0.3730 -0.3681
 6486TIP3    H140949   6.357   2.840   4.140 -1.6853 -0.2757 -0.6847
 6486TIP3    H240950   6.425   2.837   4.275  0.8785 -0.7673 -1.9751
 6487TIP3   OH240951   2.876   5.219  11.182  0.5491  0.1212 -0.8209
 6487TIP3    H140952   2.878   5.303  11.227  1.3416  0.1931 -0.9866
 6487TIP3    H240953   2.883   5.153  11.251 -1.0080  0.1637 -0.6088
 6488TIP3   OH240954   5.643   5.387   0.979 -0.3242 -0.8484  0.4639
 6488TIP3    H140955   5.662   5.438   1.058 -0.0970  0.9147 -0.7180
 6488TIP3    H240956   5.548   5.388   0.972 -0.4432 -2.2325  1.4799
 6489TIP3   OH240957   0.199   0.085   0.696 -0.2699 -0.5197 -0.0357
 6489TIP3    H140958   0.195   0.172   0.735  0.1254 -1.0491  1.2203
 6489TIP3    H240959   0.244   0.031   0.762 -1.7187 -1.9817 -0.1946
 6490TIP3   OH240960   2.240   6.098   0.070 -0.2782 -0.0640 -0.5266
 6490TIP3    H140961   2.210   6.158   0.138  0.9742  0.1511 -0.1512
 6490TIP3    H240962   2.296   6.035   0.115  0.1123 -0.2503 -1.2558
 6491TIP3   OH240963   5.055   4.483  15.162  0.2185  0.2245 -0.2048
 6491TIP3    H140964   4.981   4.425  15.173  0.9554 -0.5119  0.9643
 6491TIP3    H240965   5.104   4.446  15.088  0.7756 -0.7619  0.6382
 6492TIP3   OH240966   3.288   6.535   0.775  0.6273 -0.4964 -0.0435
 6492TIP3    H140967   3.285   6.537   0.870  0.9173  0.4249 -0.0473
 6492TIP3    H240968   3.290   6.628   0.749 -0.0544 -0.7266 -0.9594
 6493TIP3   OH240969   6.404   4.602   1.345 -0.0368 -0.3291  0.2090
 6493TIP3    H140970   6.451   4.685   1.347 -0.3591 -0.1405 -0.0701
 6493TIP3    H240971   6.422   4.562   1.430 -2.8393  1.6822  1.8142
 6494TIP3   OH240972   0.836   1.748  13.613 -0.0571  0.1466  0.0837
 6494TIP3    H140973   0.878   1.803  13.548  0.2038  2.0372  1.8093
 6494TIP3    H240974   0.748   1.733  13.580  0.4073  0.1916 -1.1954
 6495TIP3   OH240975   4.318   2.806  11.881 -0.2232  0.2065 -0.1880
 6495TIP3    H140976   4.313   2.879  11.942  0.6684 -0.7094  0.9732
 6495TIP3    H240977   4.239   2.755  11.898 -0.9234  0.9587 -1.1055
 6496TIP3   OH240978   1.356   1.122  14.423  0.3041  0.7104 -0.1429
 6496TIP3    H140979   1.320   1.208  14.445  0.1837  0.3015  1.2874
 6496TIP3    H240980   1.301   1.090  14.352 -0.4451  1.2632  0.1870
 6497TIP3   OH240981   1.237   4.573   4.022  0.6024  0.1505 -0.1991
 6497TIP3    H140982   1.302   4.505   4.004 -1.4411 -1.9993  0.3860
 6497TIP3    H240983   1.178   4.534   4.086  0.0941  2.9376  1.1180
 6498TIP3   OH240984   4.549   3.651   1.000  0.0614 -0.6126  0.1584
 6498TIP3    H140985   4.553   3.579   1.063 -1.0917 -0.8235  0.0038
 6498TIP3    H240986   4.628   3.641   0.947  0.5977 -0.9510  1.0094
 6499TIP3   OH240987   6.181   2.034  12.590 -0.0175  0.2807 -0.0218
 6499TIP3    H140988   6.233   2.112  12.607  0.8793 -0.1197 -0.8275
 6499TIP3    H240989   6.188   2.021  12.495 -4.1901  2.0188 -0.6781
 6500TIP3   OH240990   0.302   6.101  16.276  0.4099 -0.2522  0.5358
 6500TIP3    H140991   0.321   6.022  16.327 -1.7889 -0.5737  0.9296
 6500TIP3    H240992   0.286   6.069  16.187 -1.9496 -0.4893  0.9991
 6501TIP3   OH240993   6.439   0.203   5.528  0.0539  0.1561 -0.0262
 6501TIP3    H140994   6.359   0.225   5.480  0.9900  0.6467 -1.3497
 6501TIP3    H240995   6.439   0.263   5.603  0.5116  1.9278 -1.4324
 6502TIP3   OH240996   5.728   4.266  13.604 -0.2511  0.3310 -0.2186
 6502TIP3    H140997   5.717   4.360  13.589 -1.3583  0.2266 -0.1283
 6502TIP3    H240998   5.746   4.258  13.698  0.4664  0.4935 -0.3347
 6503TIP3   OH240999   4.729   5.871   3.972 -0.3122  0.6477  0.0923
 6503TIP3    H141000   4.691   5.924   3.902  0.8274  0.3365 -0.7813
 6503TIP3    H241001   4.793   5.929   4.013 -0.7986  0.7462  0.7209
 6504TIP3   OH241002   5.617   2.696  11.500  0.0464 -0.3766 -0.4441
 6504TIP3    H141003   5.535   2.737  11.525  0.2238 -0.3322  0.0864
 6504TIP3    H241004   5.615   2.693  11.404 -0.5301 -0.2998 -0.4354
 6505TIP3   OH241005   6.218   1.968  11.445  0.2986  0.2474  0.0135
 6505TIP3    H141006   6.172   1.900  11.395  1.5913  1.2885 -2.6932
 6505TIP3    H241007   6.156   2.040  11.450  0.6234  0.6347 -1.2872
 6506TIP3   OH241008   3.132   6.048   2.558  0.7897 -0.3911 -0.9156
 6506TIP3    H141009   3.223   6.038   2.531  0.8309 -1.4858 -0.4104
 6506TIP3    H241010   3.131   6.128   2.610  1.5997 -0.7071 -0.3969
 6507TIP3   OH241011   2.854   6.646   0.247 -0.2273 -0.1281  0.2137
 6507TIP3    H141012   2.890   6.603   0.170 -0.2568  1.8359 -0.9234
 6507TIP3    H241013   2.759   6.638   0.236 -0.2296 -0.0117  0.1590
 6508TIP3   OH241014   2.555   3.413  12.188  0.4586 -0.5431 -0.2361
 6508TIP3    H141015   2.602   3.481  12.141  0.1810 -0.1821  0.0029
 6508TIP3    H241016   2.493   3.461  12.243  1.0071 -0.9481  0.7438
 6509TIP3   OH241017   0.525   2.965   0.216 -0.0522  0.7514 -0.4284
 6509TIP3    H141018   0.474   2.970   0.297 -0.7361  0.7390 -0.8532
 6509TIP3    H241019   0.605   2.918   0.241 -0.8710 -0.4854 -0.0665
 6510TIP3   OH241020   6.564   3.431  13.277 -0.2313  0.2456 -0.1753
 6510TIP3    H141021   6.476   3.393  13.284 -0.2014  0.4045  1.2763
 6510TIP3    H241022   6.622   3.362  13.309  0.0035  0.7480  0.5109
 6511TIP3   OH241023   3.778   6.292  12.250 -0.2261  0.1950  0.5152
 6511TIP3    H141024   3.813   6.217  12.298  0.6978 -0.7780 -1.5940
 6511TIP3    H241025   3.856   6.335  12.213 -0.7909  1.8712  1.2157
 6512TIP3   OH241026   6.239   3.640  12.424 -0.2979  0.7714 -0.1696
 6512TIP3    H141027   6.169   3.661  12.363 -0.5120 -0.8493 -0.5024
 6512TIP3    H241028   6.209   3.562  12.470  1.2462  0.1108 -0.2407
 6513TIP3   OH241029   1.817   2.005   2.158  0.4084  0.7900  0.3034
 6513TIP3    H141030   1.850   2.087   2.121 -2.4983  1.5748 -0.6861
 6513TIP3    H241031   1.778   2.030   2.242  0.5843  0.2219  0.5556
 6514TIP3   OH241032   0.087   0.406  12.055 -0.3484  0.3928  0.1074
 6514TIP3    H141033   0.027   0.382  11.984 -1.0569 -1.6737  1.3682
 6514TIP3    H241034   0.029   0.435  12.125  0.2584  0.6426  0.5046
 6515TIP3   OH241035   5.444   0.889   2.109 -0.4141  0.1980 -0.0489
 6515TIP3    H141036   5.516   0.826   2.119  0.0642  0.6568 -0.5825
 6515TIP3    H241037   5.403   0.866   2.026 -0.3124  0.5230 -0.1873
 6516TIP3   OH241038   1.106   2.430  14.204 -0.6108  0.0666  0.2356
 6516TIP3    H141039   1.131   2.410  14.114 -1.5722 -0.8651  0.1647
 6516TIP3    H241040   1.089   2.524  14.204  1.1377  0.3925 -0.1191
 6517TIP3   OH241041   0.023   6.587   2.247 -0.2722  0.0251 -0.0962
 6517TIP3    H141042   0.090   6.651   2.273 -0.8646  0.2257  1.0035
 6517TIP3    H241043  -0.060   6.633   2.261 -0.6409 -0.2531 -1.3567
 6518TIP3   OH241044   5.858   1.565   3.012  0.3825 -0.1213 -0.1324
 6518TIP3    H141045   5.916   1.578   3.087  0.4766  1.2928 -0.4282
 6518TIP3    H241046   5.917   1.548   2.938  0.5014  2.1793 -0.6074
 6519TIP3   OH241047   6.759   0.058  12.010  0.6045 -0.1662  0.2334
 6519TIP3    H141048   6.774   0.090  12.099  2.6910 -1.0273  0.2287
 6519TIP3    H241049   6.735  -0.034  12.021 -1.7296  0.3943  0.0349
 6520TIP3   OH241050   5.215   3.611  17.041  0.3392 -0.0120  0.4369
 6520TIP3    H141051   5.122   3.620  17.018  0.6954 -0.7793 -1.4132
 6520TIP3    H241052   5.244   3.700  17.060 -0.3122  0.4925 -0.8793
 6521TIP3   OH241053   1.560   3.466   0.344  0.3273 -0.0890  0.2166
 6521TIP3    H141054   1.516   3.466   0.259 -1.6864  0.9759  1.2192
 6521TIP3    H241055   1.545   3.379   0.380 -2.0494  0.6294  1.0565
 6522TIP3   OH241056   1.900   5.087  14.857  0.0833  0.6280 -0.1138
 6522TIP3    H141057   1.938   5.090  14.944 -1.7126 -0.7116  0.7472
 6522TIP3    H241058   1.831   5.154  14.858 -0.4959  0.0410 -0.2239
 6523TIP3   OH241059   5.180   5.369  13.551  0.3827  0.4055 -0.2540
 6523TIP3    H141060   5.253   5.357  13.490 -0.3771 -1.2961 -0.8552
 6523TIP3    H241061   5.203   5.315  13.627 -0.7857 -1.0785 -0.9393
 6524TIP3   OH241062   3.927   4.158   3.296 -0.0635 -0.0229  0.5126
 6524TIP3    H141063   3.837   4.173   3.267 -0.4842 -1.6402  0.8844
 6524TIP3    H241064   3.929   4.189   3.386 -0.3710 -0.3310  0.6293
 6525TIP3   OH241065   4.859   3.220   1.591 -0.0217 -0.1820 -0.5304
 6525TIP3    H141066   4.893   3.184   1.673 -0.8044  1.2852  0.4466
 6525TIP3    H241067   4.916   3.182   1.524  1.6067 -0.2048  0.8114
 6526TIP3   OH241068   3.197   0.162   0.253  0.0272  0.7502  0.1522
 6526TIP3    H141069   3.160   0.248   0.229 -0.1785  1.0062  1.3645
 6526TIP3    H241070   3.125   0.117   0.298  0.3234  0.1641  0.0414
 6527TIP3   OH241071   1.800   4.989  16.004  0.4716  0.7132  0.2689
 6527TIP3    H141072   1.718   5.015  16.046  1.4707 -0.2137  2.8816
 6527TIP3    H241073   1.858   4.966  16.076  2.3009 -0.8442 -1.6199
 6528TIP3   OH241074   4.248   4.520   1.514  0.0034  0.5290  0.1915
 6528TIP3    H141075   4.225   4.600   1.561 -1.3513 -0.3998  1.1569
 6528TIP3    H241076   4.221   4.536   1.423 -0.0720  1.2421  0.3427
 6529TIP3   OH241077   2.305   2.395   4.325 -0.0936  0.2078  0.1312
 6529TIP3    H141078   2.211   2.380   4.316  0.6452 -2.7826 -4.0347
 6529TIP3    H241079   2.322   2.476   4.277 -0.4533  0.5913  0.6412
 6530TIP3   OH241080   2.312   1.290   4.367 -0.3820  0.3146  0.7079
 6530TIP3    H141081   2.386   1.276   4.427  1.3710  0.6110 -1.3448
 6530TIP3    H241082   2.322   1.223   4.300 -2.2214  0.1324  0.5868
 6531TIP3   OH241083   2.025   1.107   3.516  0.6959 -0.5319  0.4684
 6531TIP3    H141084   1.935   1.075   3.511 -0.7941  2.9870  2.6760
 6531TIP3    H241085   2.072   1.039   3.564 -1.5807 -0.9470  2.1936
 6532TIP3   OH241086   0.739   0.108  13.602  0.2722 -0.2651  0.2072
 6532TIP3    H141087   0.808   0.170  13.627  0.9286 -0.5884 -0.8207
 6532TIP3    H241088   0.680   0.159  13.547  0.6486 -0.4725 -0.3875
 6533TIP3   OH241089   6.573   6.346  14.026  0.0076 -0.6005  0.4739
 6533TIP3    H141090   6.599   6.255  14.041  0.3898 -0.2845  1.7445
 6533TIP3    H241091   6.572   6.386  14.113 -0.3146  0.5756 -0.0562
 6534TIP3   OH241092   4.868   0.163  12.472  0.1874  0.6420  0.9270
 6534TIP3    H141093   4.847   0.142  12.381  0.1098  0.8962  0.8878
 6534TIP3    H241094   4.894   0.079  12.510  0.3251  0.5554  0.6422
 6535TIP3   OH241095   2.440   5.452  13.596  0.1820 -0.2047 -0.0901
 6535TIP3    H141096   2.502   5.510  13.642 -0.2769 -1.5171  2.2947
 6535TIP3    H241097   2.362   5.506  13.583  0.0355 -0.0232  1.4190
 6536TIP3   OH241098   2.173   1.721  11.410  0.1927  0.2305 -0.1798
 6536TIP3    H141099   2.221   1.652  11.455 -2.2451 -0.3076  1.6594
 6536TIP3    H241100   2.082   1.710  11.437 -0.4809  3.3203 -0.9175
 6537TIP3   OH241101   0.655   3.413  16.959  0.0554 -0.2610 -0.2310
 6537TIP3    H141102   0.666   3.508  16.950  0.1440 -0.1757  0.6775
 6537TIP3    H241103   0.613   3.385  16.878 -3.0060  1.0297  0.8720
 6538TIP3   OH241104   5.692   5.772   0.428 -0.5643  0.5042 -0.1983
 6538TIP3    H141105   5.643   5.826   0.365 -1.7650  0.3007  0.5485
 6538TIP3    H241106   5.648   5.786   0.511 -1.7197 -2.6284 -0.2197
 6539TIP3   OH241107   1.468   1.812  16.660 -1.0948  0.0104 -0.0589
 6539TIP3    H141108   1.455   1.885  16.601 -2.1891  0.2404  0.4652
 6539TIP3    H241109   1.437   1.735  16.612  0.8253 -0.2501 -0.9261
 6540TIP3   OH241110   3.252   0.290  16.166  0.1934 -0.2766  0.0258
 6540TIP3    H141111   3.179   0.302  16.227  0.5108 -1.6913  0.6880
 6540TIP3    H241112   3.313   0.360  16.189 -1.2732  1.4392 -1.0649
 6541TIP3   OH241113   0.750   3.271  13.503 -0.3656 -0.2753  0.3420
 6541TIP3    H141114   0.681   3.328  13.535 -2.6128 -3.3875  1.2718
 6541TIP3    H241115   0.779   3.312  13.421 -1.2475  2.6240  1.4220
 6542TIP3   OH241116   1.275   0.831  15.311 -0.7405 -1.0351  0.1675
 6542TIP3    H141117   1.349   0.772  15.299 -0.7397 -0.7349 -1.3425
 6542TIP3    H241118   1.201   0.773  15.329 -0.3509 -1.3884  0.6488
 6543TIP3   OH241119   2.701   0.827  11.419  0.1308 -0.5493 -0.0578
 6543TIP3    H141120   2.703   0.914  11.377 -2.1924 -1.1041 -1.4049
 6543TIP3    H241121   2.761   0.774  11.367  1.6161  0.2488  0.8142
 6544TIP3   OH241122   1.522   1.065  13.968  0.4371  0.1457  0.5375
 6544TIP3    H141123   1.587   1.017  14.019 -0.8741 -0.5570  1.5672
 6544TIP3    H241124   1.481   1.125  14.031  1.3041  1.8494 -0.4920
 6545TIP3   OH241125   3.554   6.030  12.540 -0.4868 -0.0041  0.2504
 6545TIP3    H141126   3.495   6.083  12.486 -1.7919  0.3251  1.9559
 6545TIP3    H241127   3.514   5.943  12.541  0.6904 -0.5841 -1.0575
 6546TIP3   OH241128   1.252   0.855  12.044 -0.2404  0.2228  0.3665
 6546TIP3    H141129   1.301   0.888  11.968  0.3908  0.1374  0.7320
 6546TIP3    H241130   1.239   0.932  12.100 -1.2577  0.4132 -0.1170
 6547TIP3   OH241131   3.814   4.983  15.041 -0.1914 -0.3282 -0.2720
 6547TIP3    H141132   3.753   4.941  15.102 -1.3720  0.6043 -0.7834
 6547TIP3    H241133   3.788   4.950  14.955  1.1600 -1.2699 -0.3363
 6548TIP3   OH241134   5.498   0.866   1.836 -0.0303  0.1014 -0.2752
 6548TIP3    H141135   5.549   0.947   1.845 -1.0224  0.6020  1.0425
 6548TIP3    H241136   5.552   0.799   1.878 -0.7225  0.7555  1.7304
 6549TIP3   OH241137   3.117   0.458   5.844  0.1600 -0.9506  0.4236
 6549TIP3    H141138   3.135   0.519   5.916  1.3193 -0.4429 -0.2862
 6549TIP3    H241139   3.182   0.389   5.855  0.1729 -1.0041  0.0183
 6550TIP3   OH241140   3.326   3.306  16.326  0.0865 -0.2817 -0.2091
 6550TIP3    H141141   3.397   3.364  16.298  0.1645  0.4647  1.4325
 6550TIP3    H241142   3.261   3.365  16.365 -1.2877 -0.9924 -1.4104
 6551TIP3   OH241143   1.339   2.601  13.872  0.2195  0.1521 -0.0270
 6551TIP3    H141144   1.401   2.552  13.925  0.4078  0.3205 -0.0894
 6551TIP3    H241145   1.261   2.546  13.869  1.4513 -1.5466 -2.5571
 6552TIP3   OH241146   0.454   5.233   1.380  0.2546  0.4293 -0.2003
 6552TIP3    H141147   0.422   5.189   1.459 -0.3067  1.3490  0.0948
 6552TIP3    H241148   0.402   5.195   1.309 -0.4769  0.8614  0.0973
 6553TIP3   OH241149   3.660   4.868   4.694 -0.2483 -0.1689  1.0767
 6553TIP3    H141150   3.666   4.963   4.711 -1.2504 -0.0410  0.7047
 6553TIP3    H241151   3.706   4.857   4.611 -0.5378  0.0572  0.8855
 6554TIP3   OH241152   5.458   2.119   1.486  0.7306  0.3970  0.6664
 6554TIP3    H141153   5.466   2.062   1.562 -3.2505  0.3915  1.1659
 6554TIP3    H241154   5.405   2.193   1.516  2.3931  2.3597 -1.0690
 6555TIP3   OH241155   4.171   6.324   0.235 -0.4941  0.3152  0.5035
 6555TIP3    H141156   4.198   6.256   0.173  1.5591  1.6855 -0.1378
 6555TIP3    H241157   4.249   6.338   0.290 -0.9130  2.1152  0.6539
 6556TIP3   OH241158   0.410   0.631   1.273  0.1073 -0.2248  0.1291
 6556TIP3    H141159   0.456   0.612   1.191 -0.2651  0.3094 -0.2032
 6556TIP3    H241160   0.464   0.589   1.340  0.0224 -1.2849 -0.4598
 6557TIP3   OH241161   0.346   4.302   5.330  0.7908  0.5866  0.0455
 6557TIP3    H141162   0.295   4.368   5.284  1.6363  1.8707  0.9000
 6557TIP3    H241163   0.427   4.348   5.355  1.3311 -0.7342  0.7727
 6558TIP3   OH241164   3.635   2.778   2.619 -0.2684  0.1359  0.4565
 6558TIP3    H141165   3.707   2.831   2.655  0.6619  0.7581 -2.2057
 6558TIP3    H241166   3.563   2.839   2.609  0.2487  0.5328 -0.9690
 6559TIP3   OH241167   1.760   2.693  15.259 -0.0239  0.1927  0.3725
 6559TIP3    H141168   1.674   2.705  15.219 -0.1394 -1.2570  0.1436
 6559TIP3    H241169   1.756   2.745  15.340 -0.9784  0.4459  0.1712
 6560TIP3   OH241170   6.178   0.034   0.281  0.4361  0.2912  0.1067
 6560TIP3    H141171   6.236   0.042   0.357 -0.6706  1.4450  0.8476
 6560TIP3    H241172   6.090   0.044   0.316 -0.2331 -1.3070 -1.0363
 6561TIP3   OH241173   3.075   2.570   4.989 -0.1833  0.1712 -0.2972
 6561TIP3    H141174   2.993   2.585   4.943  0.1601 -2.4322 -1.8266
 6561TIP3    H241175   3.138   2.627   4.945 -0.8274  1.0456 -0.0998
 6562TIP3   OH241176   1.856   3.427  11.297  0.2340  0.0485 -0.4497
 6562TIP3    H141177   1.764   3.448  11.315  0.1958 -0.9245  0.5940
 6562TIP3    H241178   1.904   3.465  11.371  0.4609 -1.0077 -0.0402
 6563TIP3   OH241179   1.653   0.174  12.528  0.2874 -0.2754 -0.2217
 6563TIP3    H141180   1.595   0.106  12.562 -0.9906  0.7539 -0.2996
 6563TIP3    H241181   1.676   0.146  12.440  1.6120 -1.7200  0.5401
 6564TIP3   OH241182   5.568   0.058   1.377  0.2716 -0.7090  0.1423
 6564TIP3    H141183   5.656   0.084   1.350  0.0871 -2.1743 -2.0283
 6564TIP3    H241184   5.549   0.111   1.454  3.2953 -0.8049  1.0013
 6565TIP3   OH241185   0.704   2.500   3.713 -0.2276 -0.3400  0.4873
 6565TIP3    H141186   0.638   2.562   3.745 -0.6805 -1.5347  1.9865
 6565TIP3    H241187   0.655   2.443   3.653 -0.4214 -0.7950  1.0651
 6566TIP3   OH241188   4.866   0.070   4.183  0.1498  0.3063 -0.2292
 6566TIP3    H141189   4.959   0.053   4.194  0.2488  0.6246 -0.5685
 6566TIP3    H241190   4.859   0.116   4.100 -0.2879  0.4840 -0.0993
 6567TIP3   OH241191   1.065   5.366   2.644 -0.2226  0.3282  0.3454
 6567TIP3    H141192   1.082   5.281   2.684  3.0272  0.3455 -0.7927
 6567TIP3    H241193   1.065   5.428   2.718  1.6934 -0.1424  0.7706
 6568TIP3   OH241194   5.454   6.480  12.051  0.4532  0.0643 -0.2882
 6568TIP3    H141195   5.412   6.501  11.967 -1.7617 -0.0552  0.7586
 6568TIP3    H241196   5.503   6.559  12.073 -1.6969  1.4030 -0.0951
 6569TIP3   OH241197   2.363   5.509   3.102  0.0337 -0.3089 -0.2538
 6569TIP3    H141198   2.339   5.591   3.059  0.2409 -0.9314 -1.5776
 6569TIP3    H241199   2.289   5.491   3.160 -0.0511  0.7658 -0.0129
 6570TIP3   OH241200   6.764   2.727   3.037 -0.3723  0.2080  0.6810
 6570TIP3    H141201   6.765   2.632   3.023 -2.1009  0.3308 -0.3240
 6570TIP3    H241202   6.762   2.765   2.949  2.9490  1.2742  0.9638
 6571TIP3   OH241203   5.088   3.547   4.182 -0.2667  0.5799 -0.3465
 6571TIP3    H141204   5.086   3.463   4.228  1.5877 -0.0307 -1.3363
 6571TIP3    H241205   5.015   3.596   4.220 -1.1005 -1.2953  0.5728
 6572TIP3   OH241206   1.784   2.045  11.444  0.1498 -0.5367  0.0738
 6572TIP3    H141207   1.768   1.950  11.448 -0.2134 -0.5839 -2.1883
 6572TIP3    H241208   1.858   2.054  11.384  0.6031  0.5970  0.7853
 6573TIP3   OH241209   3.654   5.018   2.611  0.2803  0.6596  0.1156
 6573TIP3    H141210   3.670   5.081   2.540  1.1837  0.6639  0.3137
 6573TIP3    H241211   3.736   5.018   2.661 -0.2975  0.5329  1.0595
 6574TIP3   OH241212   0.423   2.407  13.688  0.0539 -0.0890 -0.1098
 6574TIP3    H141213   0.490   2.460  13.645 -0.1739 -0.4989 -0.9891
 6574TIP3    H241214   0.375   2.366  13.615  1.1004 -2.5831  0.5460
 6575TIP3   OH241215   6.389   1.738  15.593  0.0937  0.3587  0.7449
 6575TIP3    H141216   6.352   1.770  15.511 -0.2555 -1.0155  0.3440
 6575TIP3    H241217   6.483   1.728  15.575 -0.0750 -0.5112  0.3060
 6576TIP3   OH241218   5.465   1.552  14.148 -0.5667 -0.0178 -0.5178
 6576TIP3    H141219   5.543   1.605  14.165 -1.1282  1.0673 -1.2062
 6576TIP3    H241220   5.453   1.501  14.228  0.7947 -0.1291 -0.3741
 6577TIP3   OH241221   6.080   1.657  14.302  0.0091  0.3719 -0.7809
 6577TIP3    H141222   6.094   1.581  14.358 -2.0142 -0.4042 -1.2723
 6577TIP3    H241223   6.057   1.620  14.217  0.4917  1.5299 -1.4189
 6578TIP3   OH241224   2.157   5.143   3.075 -0.4968  0.0742 -0.0270
 6578TIP3    H141225   2.249   5.152   3.100 -0.4209  1.1528 -0.6516
 6578TIP3    H241226   2.149   5.055   3.040  0.3245  0.0129 -0.0517
 6579TIP3   OH241227   4.087   5.594   1.023 -0.3314 -0.2813 -0.1419
 6579TIP3    H141228   4.117   5.678   1.058  0.7329 -0.5401 -0.4017
 6579TIP3    H241229   4.085   5.607   0.928  0.4637 -0.7420 -0.2247
 6580TIP3   OH241230   3.777   3.920   4.004  0.0910 -0.2480  0.5316
 6580TIP3    H141231   3.801   3.990   3.943  0.6454  1.7839  2.9790
 6580TIP3    H241232   3.850   3.858   4.000 -0.3468 -0.6356 -1.5731
 6581TIP3   OH241233   6.329   0.644  15.538 -0.4863 -1.0158 -0.4419
 6581TIP3    H141234   6.327   0.729  15.494 -1.9419 -0.6713  0.2514
 6581TIP3    H241235   6.386   0.590  15.483 -2.4321 -0.6712 -2.9298
 6582TIP3   OH241236   6.199   5.757   4.107  0.3965 -0.6764 -0.0741
 6582TIP3    H141237   6.112   5.765   4.147  0.2191  1.6326 -0.8083
 6582TIP3    H241238   6.225   5.848   4.091  2.5688 -1.3930 -0.6857
 6583TIP3   OH241239   2.184   1.406  14.879 -0.0617 -0.0805  0.3277
 6583TIP3    H141240   2.222   1.318  14.879 -2.6110 -1.2341 -0.1704
 6583TIP3    H241241   2.149   1.417  14.791  1.6307  2.1077 -0.1123
 6584TIP3   OH241242   6.001   1.977  15.598 -0.3847  0.0126 -0.4129
 6584TIP3    H141243   5.926   2.008  15.548 -0.6109 -1.2588 -0.8721
 6584TIP3    H241244   6.077   2.012  15.551 -0.6933  1.6332  0.2829
 6585TIP3   OH241245   4.887   6.774  14.827  0.5980  0.5740  0.2786
 6585TIP3    H141246   4.944   6.808  14.895  2.7350 -0.1161 -1.1165
 6585TIP3    H241247   4.873   6.682  14.851  0.7419  0.5317  0.2041
 6586TIP3   OH241248   6.630   3.842  15.472 -0.0527  0.1017  0.0566
 6586TIP3    H141249   6.593   3.784  15.538 -1.2099  0.9112  0.1432
 6586TIP3    H241250   6.649   3.923  15.519 -0.1356  0.4121 -0.4391
 6587TIP3   OH241251   0.595   3.998   2.105  0.0440 -0.2619 -0.0399
 6587TIP3    H141252   0.605   4.093   2.104  2.7104 -0.5217 -0.8933
 6587TIP3    H241253   0.606   3.974   2.197  2.3702  0.0181 -0.2040
 6588TIP3   OH241254   4.215   2.065   2.896 -0.2056 -0.4428  0.0118
 6588TIP3    H141255   4.282   2.108   2.949 -0.2028 -0.9313  0.4049
 6588TIP3    H241256   4.133   2.082   2.943 -0.2857 -0.3347 -0.1657
 6589TIP3   OH241257   5.781   0.772  16.670  0.4060 -0.3135  0.5378
 6589TIP3    H141258   5.838   0.758  16.595  0.2083 -0.1321  0.3511
 6589TIP3    H241259   5.832   0.742  16.745  0.5938 -0.5219  0.3285
 6590TIP3   OH241260   6.702   4.654   2.643  0.0854 -0.4513  0.0105
 6590TIP3    H141261   6.733   4.697   2.723 -2.2305  2.8592 -0.7720
 6590TIP3    H241262   6.637   4.591   2.674 -0.7866  0.7972  0.7839
 6591TIP3   OH241263   5.469   4.847  13.009  0.2068  0.2499  0.6480
 6591TIP3    H141264   5.534   4.787  12.973  0.3161  0.4368  0.5332
 6591TIP3    H241265   5.519   4.910  13.059  0.1329  0.5266  0.3730
 6592TIP3   OH241266   0.604   3.898  12.819  0.3125  0.3737  0.6735
 6592TIP3    H141267   0.622   3.887  12.725  0.5173  0.5448  0.6922
 6592TIP3    H241268   0.571   3.812  12.847  0.6721  0.1884  0.5382
 6593TIP3   OH241269   2.477   5.737   5.288  0.3070  0.0675  0.0817
 6593TIP3    H141270   2.521   5.720   5.205 -0.1734  0.2087 -0.2075
 6593TIP3    H241271   2.385   5.717   5.270  0.3209 -0.6913  0.8056
 6594TIP3   OH241272   3.441   0.782  16.255  0.2731 -0.0683  0.5268
 6594TIP3    H141273   3.492   0.785  16.174 -0.6292 -1.9107 -0.1289
 6594TIP3    H241274   3.400   0.868  16.261  0.8630  0.3028 -0.6155
 6595TIP3   OH241275   4.777   5.001   2.372 -0.2754  0.1053 -0.2073
 6595TIP3    H141276   4.816   4.917   2.349  0.3065  0.5199 -0.7461
 6595TIP3    H241277   4.805   5.061   2.302 -0.7591  0.7273  0.1203
 6596TIP3   OH241278   5.307   6.716   4.557  0.1122  0.1289  0.4383
 6596TIP3    H141279   5.272   6.648   4.499  0.1295  0.1547  0.3981
 6596TIP3    H241280   5.371   6.671   4.612  0.6377  0.2551 -0.0639
 6597TIP3   OH241281   1.286   5.311   2.791  0.1136  0.5631 -0.6755
 6597TIP3    H141282   1.276   5.223   2.757  1.5550  0.5555 -1.1195
 6597TIP3    H241283   1.295   5.366   2.714  0.4671  0.9315 -0.3776
 6598TIP3   OH241284   2.426   0.420   2.229 -0.2872  0.0024  0.1569
 6598TIP3    H141285   2.396   0.354   2.291  1.1526 -2.1403 -1.3650
 6598TIP3    H241286   2.372   0.407   2.151  0.6778 -0.0589 -0.5124
 6599TIP3   OH241287   4.949   0.566  11.776 -0.3941 -0.1146 -0.1251
 6599TIP3    H141288   4.898   0.511  11.834 -0.4816 -0.1710 -0.2539
 6599TIP3    H241289   5.038   0.563  11.811 -0.2465 -0.9176 -0.5462
 6600TIP3   OH241290   5.171   4.821   2.301  0.4700  0.0464 -0.1573
 6600TIP3    H141291   5.221   4.835   2.382  1.1306 -0.3861 -0.4812
 6600TIP3    H241292   5.113   4.748   2.322  2.3743 -1.7127 -0.8142
 6601TIP3   OH241293   5.544   1.580   0.638 -0.4794 -0.0963 -0.2574
 6601TIP3    H141294   5.524   1.492   0.670  0.6349 -0.3015 -0.1026
 6601TIP3    H241295   5.498   1.639   0.697  0.6043 -0.5140  1.0225
 6602TIP3   OH241296   1.058   5.574  12.730 -0.4215  0.5385 -0.1754
 6602TIP3    H141297   0.981   5.546  12.680 -0.3687 -0.2631  0.1772
 6602TIP3    H241298   1.052   5.669  12.732 -1.0254  0.5154 -0.7527
 6603TIP3   OH241299   2.194   6.564  16.493  0.2213 -0.0591  0.2591
 6603TIP3    H141300   2.213   6.541  16.402  1.5966 -2.9789  1.2121
 6603TIP3    H241301   2.195   6.660  16.495 -0.2196  0.0543 -2.8561
 6604TIP3   OH241302   3.007   4.803   6.821  0.7135  0.3512 -0.6501
 6604TIP3    H141303   3.022   4.881   6.766  0.0961 -0.1332 -1.5193
 6604TIP3    H241304   2.912   4.799   6.830  0.7950  0.2529  0.2290
 6605TIP3   OH241305   4.448   4.868  13.800  0.4089  0.0899 -0.1656
 6605TIP3    H141306   4.483   4.868  13.711  1.5203 -1.7042  0.2282
 6605TIP3    H241307   4.491   4.942  13.843 -0.6460  1.3762 -1.2900
 6606TIP3   OH241308   2.405   0.230   3.660 -0.0996 -0.1119  0.1988
 6606TIP3    H141309   2.380   0.298   3.722  0.0881 -1.0979  1.3733
 6606TIP3    H241310   2.329   0.171   3.656 -0.3811  0.3202 -1.0421
 6607TIP3   OH241311   3.900   6.249  14.069 -0.1235 -0.0946 -0.0524
 6607TIP3    H141312   3.838   6.314  14.037 -0.5419 -0.7578 -0.5950
 6607TIP3    H241313   3.916   6.274  14.160  1.3628  2.0377 -0.8485
 6608TIP3   OH241314   2.811   5.800   4.481  0.9066  0.5835  0.4453
 6608TIP3    H141315   2.748   5.775   4.413  0.3577 -2.0612  1.8619
 6608TIP3    H241316   2.883   5.840   4.433 -1.1386  2.2977 -1.3473
 6609TIP3   OH241317   0.469   0.576   0.094 -0.2795  0.5424  0.2124
 6609TIP3    H141318   0.510   0.591   0.009 -1.3340 -0.2273 -0.4415
 6609TIP3    H241319   0.481   0.658   0.141 -1.6696  1.7816 -1.5223
 6610TIP3   OH241320   6.282   3.506  15.711  0.2898  0.1108 -0.6669
 6610TIP3    H141321   6.194   3.536  15.688  0.5222  0.2238 -1.4070
 6610TIP3    H241322   6.268   3.422  15.754 -0.3786  1.3246  1.5627
 6611TIP3   OH241323   0.277   0.800  13.900  0.2232  0.5872  0.4203
 6611TIP3    H141324   0.323   0.785  13.817 -0.0470  1.7857  0.0326
 6611TIP3    H241325   0.188   0.825  13.873 -0.7176 -1.8693  1.1557
 6612TIP3   OH241326   5.350   2.175  16.507 -0.8299 -0.1174 -0.2565
 6612TIP3    H141327   5.394   2.259  16.514 -1.5250  0.1456  0.9378
 6612TIP3    H241328   5.421   2.112  16.492 -0.3527  0.7124 -1.5919
 6613TIP3   OH241329   3.198   2.748  15.311  0.1753 -0.0583 -0.5174
 6613TIP3    H141330   3.258   2.801  15.363 -0.5685  0.4281 -0.1584
 6613TIP3    H241331   3.200   2.662  15.353  1.3538 -0.3088 -1.0809
 6614TIP3   OH241332   4.486   1.525   1.144  0.1309  0.2695 -0.0658
 6614TIP3    H141333   4.405   1.544   1.096 -0.0412 -0.6002 -0.1181
 6614TIP3    H241334   4.554   1.570   1.094 -0.2209  0.4131 -0.4205
 6615TIP3   OH241335   3.503   3.056  11.612 -0.2132  0.3465  0.7361
 6615TIP3    H141336   3.448   3.055  11.533  0.4032  1.5346  0.2757
 6615TIP3    H241337   3.586   3.019  11.583 -0.5812 -0.9508  1.3024
 6616TIP3   OH241338   5.965   3.362  15.957 -0.7049  0.0020  0.4994
 6616TIP3    H141339   5.983   3.283  16.009 -0.8224  0.3076  1.0059
 6616TIP3    H241340   5.942   3.328  15.870  0.2514 -0.4797  0.4208
 6617TIP3   OH241341   4.023   6.078   4.500 -0.0102  0.0832 -0.4953
 6617TIP3    H141342   3.964   6.003   4.488  0.5160 -0.5586  0.8659
 6617TIP3    H241343   4.097   6.060   4.441 -0.1540 -0.1791 -0.5949
 6618TIP3   OH241344   5.711   1.519  16.926 -0.1182  0.0196  0.2625
 6618TIP3    H141345   5.696   1.479  17.012  0.0703  0.5700  0.5573
 6618TIP3    H241346   5.630   1.502  16.877  0.1725 -1.1723  0.2046
 6619TIP3   OH241347   1.044   3.309  14.205  0.3340 -0.3448  0.1803
 6619TIP3    H141348   0.996   3.233  14.238  0.0770 -0.5341 -0.6125
 6619TIP3    H241349   1.003   3.329  14.121  1.6651 -0.5546 -0.5468
 6620TIP3   OH241350   4.910   1.890  16.269 -0.0961  0.2804  0.5440
 6620TIP3    H141351   4.985   1.867  16.215  0.6795  2.1398  0.8163
 6620TIP3    H241352   4.846   1.820  16.252  1.7550 -1.4409  0.5040
 6621TIP3   OH241353   4.995   3.913  14.388 -0.5574  0.4208  0.4371
 6621TIP3    H141354   5.031   3.945  14.470 -0.3393  3.5983 -0.8266
 6621TIP3    H241355   4.909   3.956  14.381 -0.4651  0.3874 -1.0820
 6622TIP3   OH241356   3.092   1.422  14.090  0.2016 -0.8131  0.1850
 6622TIP3    H141357   3.084   1.475  14.011 -1.8184 -2.9170 -1.0688
 6622TIP3    H241358   3.186   1.410  14.101  0.5261 -0.3223 -1.7954
 6623TIP3   OH241359   1.159   3.281  11.919  0.3982 -0.0170  0.2678
 6623TIP3    H141360   1.231   3.316  11.972  1.1150  0.3166 -0.9189
 6623TIP3    H241361   1.133   3.355  11.863 -0.1798 -0.4465 -0.0255
 6624TIP3   OH241362   2.972   2.627   4.117 -0.3983 -0.1624 -0.2699
 6624TIP3    H141363   2.934   2.563   4.057  0.0679 -0.0093 -0.7296
 6624TIP3    H241364   2.980   2.707   4.065  1.6085 -0.5017 -0.5223
 6625TIP3   OH241365   2.421   5.409  16.982  0.5119 -0.3004 -0.1576
 6625TIP3    H141366   2.437   5.326  16.935  2.4843 -0.9086  1.5185
 6625TIP3    H241367   2.462   5.396  17.067 -3.3116  0.6589  1.9455
 6626TIP3   OH241368   2.326   3.666  10.580  0.2455  0.2773 -0.1702
 6626TIP3    H141369   2.293   3.744  10.626  3.3535  0.9089  1.1285
 6626TIP3    H241370   2.358   3.609  10.650  1.9236 -0.2774 -1.3686
 6627TIP3   OH241371   0.965   5.169  16.531 -0.1982  0.1201  0.0142
 6627TIP3    H141372   1.012   5.137  16.608  1.7508 -1.5259 -1.7791
 6627TIP3    H241373   0.931   5.089  16.489  1.5165  0.6382 -2.5169
 6628TIP3   OH241374   0.847   5.000   0.878  0.0498  0.4187  0.1230
 6628TIP3    H141375   0.765   4.952   0.872  0.0508  0.1697  1.8969
 6628TIP3    H241376   0.824   5.090   0.854 -0.3873  0.0165 -1.0070
 6629TIP3   OH241377   5.298   0.393  10.111 -0.0751  0.6610  0.2000
 6629TIP3    H141378   5.262   0.305  10.106  1.5609  0.0717 -1.5237
 6629TIP3    H241379   5.340   0.397  10.197  0.4922 -0.4929 -0.0216
 6630TIP3   OH241380   4.742   1.701  17.232  0.1715  0.3278 -0.0014
 6630TIP3    H141381   4.803   1.774  17.220 -1.1022  1.4882  0.4784
 6630TIP3    H241382   4.690   1.699  17.151  0.1894 -0.0292 -0.0064
 6631TIP3   OH241383   0.526   5.990   3.708  0.0520  0.0648 -0.0079
 6631TIP3    H141384   0.547   5.899   3.686  2.4545  0.7879 -0.8935
 6631TIP3    H241385   0.544   5.997   3.802 -0.7073 -0.5128  0.1850
 6632TIP3   OH241386   3.090   3.582   4.262 -0.4777 -0.7170 -0.1630
 6632TIP3    H141387   3.019   3.571   4.326 -2.9735 -1.0803 -2.8638
 6632TIP3    H241388   3.133   3.496   4.260 -0.2954 -0.6682  1.0951
 6633TIP3   OH241389   5.968   6.623  11.553 -0.0255 -1.0071 -0.0999
 6633TIP3    H141390   5.902   6.682  11.517 -0.1133 -1.4046 -0.6072
 6633TIP3    H241391   5.987   6.657  11.640  0.1638 -0.0434 -0.5182
 6634TIP3   OH241392   4.378   1.677   2.189 -0.1580 -0.6302  0.1614
 6634TIP3    H141393   4.434   1.599   2.186 -0.1836 -0.5976 -2.0097
 6634TIP3    H241394   4.335   1.679   2.104 -1.9312  0.4933  1.0584
 6635TIP3   OH241395   4.635   1.891   2.789 -0.1160  0.2296  0.0559
 6635TIP3    H141396   4.610   1.980   2.762  0.4452  0.2105 -0.5513
 6635TIP3    H241397   4.656   1.899   2.882  1.1740  1.0122 -0.2869
 6636TIP3   OH241398   2.230   4.273   2.782  0.3016 -0.0516  0.1796
 6636TIP3    H141399   2.263   4.189   2.816 -1.5197 -0.0111  2.1608
 6636TIP3    H241400   2.174   4.248   2.708  1.1342 -0.4349 -0.3350
 6637TIP3   OH241401   4.380   1.225  11.341  0.1865 -0.5108 -0.0687
 6637TIP3    H141402   4.343   1.147  11.382 -0.3700 -0.5459 -0.6325
 6637TIP3    H241403   4.407   1.195  11.254 -2.1243  0.4688 -1.1404
 6638TIP3   OH241404   6.192   4.023  13.915  0.8273  0.0227  0.1892
 6638TIP3    H141405   6.181   3.984  13.829  2.2919  3.0828 -1.4708
 6638TIP3    H241406   6.209   3.950  13.974 -1.5261 -2.2351 -1.8513
 6639TIP3   OH241407   1.434   4.248  13.617 -0.9206  0.2189  0.0614
 6639TIP3    H141408   1.438   4.193  13.538 -2.2856 -1.0305  0.8481
 6639TIP3    H241409   1.366   4.312  13.598  2.8746  3.8125 -2.1692
 6640TIP3   OH241410   1.774   6.438  15.470 -0.1467 -0.1852 -0.4830
 6640TIP3    H141411   1.810   6.476  15.389  0.7473 -0.1819 -0.0913
 6640TIP3    H241412   1.795   6.503  15.537  0.1351 -0.7194 -0.0559
 6641TIP3   OH241413   3.504   6.696   3.412 -0.0294 -0.1003  0.2037
 6641TIP3    H141414   3.463   6.636   3.475  0.7643 -1.5307 -0.6227
 6641TIP3    H241415   3.546   6.638   3.348  1.5547  1.3535 -0.0816
 6642TIP3   OH241416   0.930   4.247  15.125  0.7335  0.7946 -0.0133
 6642TIP3    H141417   1.016   4.274  15.092  1.4805  0.0205  1.2193
 6642TIP3    H241418   0.920   4.299  15.206 -0.3806  1.5640 -0.6407
 6643TIP3   OH241419   3.564   0.606   3.981 -0.6702  0.4643 -0.6485
 6643TIP3    H141420   3.472   0.600   4.005 -0.1171 -2.3514  0.9480
 6643TIP3    H241421   3.611   0.611   4.064  0.9002 -3.4458 -1.1931
 6644TIP3   OH241422   5.286   3.177  14.969 -0.6709 -0.0055 -0.1177
 6644TIP3    H141423   5.354   3.129  15.017 -0.0993 -0.5317 -1.4373
 6644TIP3    H241424   5.291   3.266  15.004  1.7503  0.3573 -1.2500
 6645TIP3   OH241425   4.186   3.404  15.712 -0.4531  0.2689 -0.3407
 6645TIP3    H141426   4.259   3.414  15.651 -1.1256  1.8734 -0.9283
 6645TIP3    H241427   4.108   3.425  15.659 -1.0647  1.4185  0.9822
 6646TIP3   OH241428   1.723   2.839   1.890  0.3037  0.3679 -0.7027
 6646TIP3    H141429   1.638   2.879   1.909  1.3462  1.7991  1.1447
 6646TIP3    H241430   1.710   2.746   1.906 -0.7639  0.6633  0.2129
 6647TIP3   OH241431   0.629   5.638   1.732 -0.2426 -0.4863  0.0167
 6647TIP3    H141432   0.714   5.668   1.700 -0.5899  0.8862  0.3458
 6647TIP3    H241433   0.638   5.543   1.739  0.8785 -0.4648 -1.0626
 6648TIP3   OH241434   3.015   3.793  10.491  0.2859 -0.4788 -0.2870
 6648TIP3    H141435   2.944   3.730  10.472  1.9778 -2.2320 -0.9941
 6648TIP3    H241436   3.028   3.786  10.585 -1.3700  0.8613  0.0719
 6649TIP3   OH241437   3.807   5.933  16.927  0.3870  0.1100 -0.0011
 6649TIP3    H141438   3.896   5.900  16.915  0.8480  0.6217  1.8146
 6649TIP3    H241439   3.815   6.028  16.917  0.4303  0.3531  2.0879
 6650TIP3   OH241440   1.830   0.344  15.648 -0.0425  0.3649 -0.3773
 6650TIP3    H141441   1.746   0.382  15.622  0.4203 -0.1358 -2.7273
 6650TIP3    H241442   1.892   0.416  15.639 -0.2423  0.8228  1.6723
 6651TIP3   OH241443   3.555   5.619   5.862  0.0833 -0.2890 -1.0736
 6651TIP3    H141444   3.605   5.647   5.786  0.8126 -0.7562 -0.7678
 6651TIP3    H241445   3.620   5.581   5.921 -0.0761  2.3792  0.8907
 6652TIP3   OH241446   2.662   1.367  16.832 -0.0318  0.1821 -0.0958
 6652TIP3    H141447   2.627   1.396  16.747  1.4305 -0.5891 -0.9757
 6652TIP3    H241448   2.617   1.284  16.849  0.3385 -0.1193 -0.5645
 6653TIP3   OH241449   3.217   0.625   1.691  0.0488 -0.2555  0.4141
 6653TIP3    H141450   3.235   0.572   1.769 -2.2497 -0.0715  1.1210
 6653TIP3    H241451   3.241   0.714   1.717  1.3479 -0.5119  0.1455
 6654TIP3   OH241452   0.868   4.350  13.802 -0.0346  0.4084  0.1791
 6654TIP3    H141453   0.874   4.429  13.749  1.2115 -1.2549 -2.2532
 6654TIP3    H241454   0.779   4.318  13.788 -0.6325  1.4871  1.3877
 6655TIP3   OH241455   4.819   4.464  14.250  0.3535 -0.1191  0.3098
 6655TIP3    H141456   4.832   4.429  14.338 -1.6920  0.7623  0.9960
 6655TIP3    H241457   4.852   4.554  14.255  0.7509 -0.2460  0.0131
 6656TIP3   OH241458   3.578   3.926  15.564  0.5102 -0.5002  0.4709
 6656TIP3    H141459   3.578   3.876  15.482  2.1252 -1.5573  1.1010
 6656TIP3    H241460   3.639   3.880  15.621  1.5234  1.8103  1.3174
 6657TIP3   OH241461   4.212   1.338   1.243  0.6304 -0.2241  0.3828
 6657TIP3    H141462   4.200   1.351   1.149 -1.0766 -1.4932  0.3904
 6657TIP3    H241463   4.168   1.413   1.283 -1.3480 -1.2660  0.2193
 6658TIP3   OH241464   2.690   5.815  12.053 -0.0538  0.3022 -0.2463
 6658TIP3    H141465   2.626   5.809  11.982  1.4006  0.1985 -1.5890
 6658TIP3    H241466   2.667   5.895  12.100 -1.7595 -0.2517 -0.0982
 6659TIP3   OH241467   2.396   0.146  13.449 -0.1614 -0.0308 -0.1761
 6659TIP3    H141468   2.395   0.128  13.543 -1.9061 -0.0538 -0.1895
 6659TIP3    H241469   2.387   0.060  13.408 -2.2407  0.2117 -0.3088
 6660TIP3   OH241470   4.920   6.341   2.122 -0.4713  0.1220 -0.4250
 6660TIP3    H141471   4.961   6.386   2.048 -0.3298  0.2336 -0.2792
 6660TIP3    H241472   4.975   6.364   2.197  0.0679 -0.9534 -0.4868
 6661TIP3   OH241473   0.612   1.699  10.467  0.5392 -0.1372 -0.2046
 6661TIP3    H141474   0.589   1.621  10.518 -0.9791  0.3697 -0.0733
 6661TIP3    H241475   0.699   1.723  10.499  0.3024 -0.7807  0.9838
 6662TIP3   OH241476   2.437   6.240  15.426 -0.4653 -0.1439  0.4125
 6662TIP3    H141477   2.502   6.270  15.363 -0.7836  3.5249  1.7222
 6662TIP3    H241478   2.482   6.171  15.475  0.9452 -0.6286 -1.4736
 6663TIP3   OH241479   6.732   2.280   4.618  0.0305  0.9125  0.1338
 6663TIP3    H141480   6.754   2.308   4.707  1.0413 -0.7018  0.4250
 6663TIP3    H241481   6.788   2.334   4.562  2.2475 -0.6877  0.7047
 6664TIP3   OH241482   1.162   5.983   6.703 -0.0726 -0.2503 -0.2602
 6664TIP3    H141483   1.107   6.035   6.644 -0.4790 -0.8164 -0.3878
 6664TIP3    H241484   1.226   5.941   6.645  0.8718  0.8626 -0.0464
 6665TIP3   OH241485   5.630   0.094   4.056  0.2873 -0.1066  0.4871
 6665TIP3    H141486   5.615   0.028   4.123  0.0341 -1.6741 -1.0913
 6665TIP3    H241487   5.661   0.171   4.104  0.2368 -1.2544  2.3693
 6666TIP3   OH241488   3.524   1.840   0.722 -0.1775  0.3729 -0.0828
 6666TIP3    H141489   3.573   1.855   0.642  0.8552 -0.8168  0.3164
 6666TIP3    H241490   3.502   1.928   0.754 -0.6550  0.8484 -1.6777
 6667TIP3   OH241491   6.644   6.107  16.479  0.4801  0.5391  0.0655
 6667TIP3    H141492   6.626   6.015  16.457  0.5076  0.6083 -0.2470
 6667TIP3    H241493   6.579   6.128  16.547  0.2055  0.4092 -0.1546
 6668TIP3   OH241494   0.939   4.532   0.296 -0.3771 -0.3819  0.5120
 6668TIP3    H141495   0.942   4.585   0.217 -1.1410  0.4872  1.0575
 6668TIP3    H241496   0.856   4.555   0.337 -0.2294 -1.2192  1.2956
 6669TIP3   OH241497   2.731   5.770   0.781  0.6393 -0.2234  0.3269
 6669TIP3    H141498   2.783   5.794   0.857  1.9955 -1.0939 -0.2961
 6669TIP3    H241499   2.729   5.849   0.727  1.3701 -0.1928  0.3366
 6670TIP3   OH241500   1.130   3.879  11.857  0.2683  0.2538 -0.5407
 6670TIP3    H141501   1.216   3.845  11.831  1.0683  0.1222  2.1392
 6670TIP3    H241502   1.082   3.803  11.888 -1.0426  0.2450 -2.4935
 6671TIP3   OH241503   3.778   2.517  10.768  0.2576 -0.0054  0.4544
 6671TIP3    H141504   3.717   2.467  10.823  0.9715 -0.1754  1.1016
 6671TIP3    H241505   3.785   2.602  10.812 -0.9698  0.6961 -0.6522
 6672TIP3   OH241506   2.473   1.447  12.973 -0.0693  0.3525 -0.3136
 6672TIP3    H141507   2.499   1.359  12.948 -0.4132 -0.0288  0.6467
 6672TIP3    H241508   2.387   1.459  12.932 -0.3643 -0.0447  0.1855
 6673TIP3   OH241509   5.984   0.109   5.079 -0.1532  0.2615 -0.1407
 6673TIP3    H141510   5.894   0.114   5.110 -0.0859  0.8954 -0.0293
 6673TIP3    H241511   6.019   0.197   5.096  0.9976 -0.4763  1.3772
 6674TIP3   OH241512   2.304   5.054   5.943 -0.5349  0.2783 -0.7116
 6674TIP3    H141513   2.329   5.124   5.882 -1.3681 -0.1282 -1.5385
 6674TIP3    H241514   2.307   5.095   6.029  2.0951  0.4657 -0.8753
 6675TIP3   OH241515   2.718   1.739   3.380  0.2818  0.0046  0.1049
 6675TIP3    H141516   2.677   1.699   3.456 -1.6005  2.5768  0.5237
 6675TIP3    H241517   2.647   1.789   3.338  2.1560  1.6868 -1.1769
 6676TIP3   OH241518   4.208   5.721  15.591 -0.1010  0.1358  0.5605
 6676TIP3    H141519   4.163   5.804  15.602  0.2368  0.3818  0.0798
 6676TIP3    H241520   4.286   5.742  15.540  0.3241 -0.3639  0.9898
 6677TIP3   OH241521   6.156   4.053  15.450 -0.3680 -0.3050 -0.3744
 6677TIP3    H141522   6.221   4.122  15.460  0.2700 -0.6949 -1.6967
 6677TIP3    H241523   6.160   4.003  15.531  1.0415 -0.3748 -0.4790
 6678TIP3   OH241524   0.301   1.762   4.588  0.0016 -0.3926 -1.0311
 6678TIP3    H141525   0.226   1.822   4.593 -1.7395 -2.6448  0.5210
 6678TIP3    H241526   0.335   1.774   4.499 -0.2561  2.9082 -0.7462
 6679TIP3   OH241527   4.100   3.727   0.457 -0.0906 -0.3794  0.1598
 6679TIP3    H141528   4.058   3.784   0.392 -0.9224 -1.6598 -0.4561
 6679TIP3    H241529   4.104   3.780   0.536  0.2172  0.9331 -0.7145
 6680TIP3   OH241530   6.369   5.297   4.984  0.9833 -0.1856 -0.7170
 6680TIP3    H141531   6.441   5.315   4.923  0.2185 -0.8722 -1.8473
 6680TIP3    H241532   6.408   5.244   5.053  2.2068  1.8563  0.1990
 6681TIP3   OH241533   2.180   4.268  14.034  0.9835 -0.2758 -0.4943
 6681TIP3    H141534   2.091   4.235  14.018  0.7286  0.0056  0.3341
 6681TIP3    H241535   2.199   4.322  13.958  0.2569  0.0535 -0.4470
 6682TIP3   OH241536   0.146   2.376  16.843 -0.0809  0.1479 -0.1271
 6682TIP3    H141537   0.213   2.342  16.903 -0.0741 -0.9402 -0.7322
 6682TIP3    H241538   0.137   2.468  16.866  0.3488 -0.1222  1.1506
 6683TIP3   OH241539   2.485   0.990  17.192  0.1551  0.7557 -0.4884
 6683TIP3    H141540   2.463   1.083  17.186 -2.9916  0.0411 -0.7472
 6683TIP3    H241541   2.519   0.968  17.105 -1.0880  1.1858 -1.0947
 6684TIP3   OH241542   5.702   5.452  16.648 -0.1393 -0.3520  1.0600
 6684TIP3    H141543   5.795   5.436  16.666  0.2448 -0.9464 -1.2070
 6684TIP3    H241544   5.671   5.370  16.609 -1.3850  0.1635  0.9401
 6685TIP3   OH241545   0.851   0.802   3.763  0.0354 -0.2761  0.8892
 6685TIP3    H141546   0.787   0.742   3.725 -0.0813  0.7757 -0.5942
 6685TIP3    H241547   0.853   0.877   3.704  1.9483  0.1302  1.4200
 6686TIP3   OH241548   0.120   1.493   5.717  0.3785 -0.5440 -0.1192
 6686TIP3    H141549   0.185   1.477   5.648 -0.9052  0.3197 -1.5674
 6686TIP3    H241550   0.071   1.412   5.723  0.6862 -0.7238  0.0081
 6687TIP3   OH241551   2.077   5.697  14.976  0.1349 -0.7580 -0.0523
 6687TIP3    H141552   2.157   5.689  14.923  0.9523 -0.8103  1.1650
 6687TIP3    H241553   2.013   5.735  14.917  1.1540 -0.4278 -0.9675
 6688TIP3   OH241554   4.189   5.301  11.311 -0.1188 -0.2707  0.2462
 6688TIP3    H141555   4.229   5.385  11.289  1.8834 -1.3671 -0.4094
 6688TIP3    H241556   4.185   5.254  11.228 -3.4560  0.0467  0.1595
 6689TIP3   OH241557   0.900   3.905  15.020  0.3891  0.3164  0.3798
 6689TIP3    H141558   0.936   3.928  15.105 -0.6558  0.6675  0.7445
 6689TIP3    H241559   0.948   3.826  14.994 -0.5027 -0.8584  2.1351
 6690TIP3   OH241560   6.803   6.584   0.441 -0.2256  0.8337  0.3164
 6690TIP3    H141561   6.766   6.531   0.511  0.7533  1.7043  1.5173
 6690TIP3    H241562   6.858   6.524   0.391 -0.2456  0.4011  0.8123
 6691TIP3   OH241563   3.298   5.288   0.496  0.1772  0.0580  0.6047
 6691TIP3    H141564   3.324   5.206   0.539  1.8871  0.2562 -0.0246
 6691TIP3    H241565   3.365   5.351   0.523 -1.1715  1.2940  1.1532
 6692TIP3   OH241566   4.854   4.586   6.361  0.8788 -0.4417 -0.2443
 6692TIP3    H141567   4.891   4.513   6.412  2.1516 -1.4127 -2.4627
 6692TIP3    H241568   4.902   4.663   6.391 -0.5275 -0.4259  2.1803
 6693TIP3   OH241569   2.210   5.123  15.775  0.0568  0.1383 -0.3687
 6693TIP3    H141570   2.192   5.186  15.706 -2.5523  2.2438  2.0933
 6693TIP3    H241571   2.132   5.066  15.776  1.7750 -2.3404 -1.6542
 6694TIP3   OH241572   0.062   4.783   3.475  0.2216  0.0840 -1.0137
 6694TIP3    H141573   0.155   4.805   3.468  0.3292  0.1682  0.4772
 6694TIP3    H241574   0.044   4.729   3.398  1.9523 -1.4765 -0.3635
 6695TIP3   OH241575   4.882   6.090   1.576 -0.0471  0.6067  0.1290
 6695TIP3    H141576   4.845   6.019   1.630 -0.2500  0.8583  0.3210
 6695TIP3    H241577   4.844   6.076   1.489 -0.0649  0.4608  0.1598
 6696TIP3   OH241578   1.092   1.964   3.866 -0.1140 -0.6188  0.1033
 6696TIP3    H141579   1.094   1.893   3.802  1.2497  0.7244 -1.3790
 6696TIP3    H241580   1.173   2.013   3.850 -1.5983  1.9564  0.3282
 6697TIP3   OH241581   1.779   3.879   3.507 -0.1320  0.0789 -0.2247
 6697TIP3    H141582   1.828   3.906   3.585 -0.8489 -0.0544  0.2716
 6697TIP3    H241583   1.728   3.956   3.483  1.5377  0.7722 -1.7204
 6698TIP3   OH241584   0.353   5.352   6.499 -0.0726 -0.0811  0.1463
 6698TIP3    H141585   0.266   5.324   6.471  0.0920  0.6022 -1.0659
 6698TIP3    H241586   0.413   5.308   6.439  0.4490 -0.8185  1.1876
 6699TIP3   OH241587   5.927   0.174   3.212  0.9970 -0.1998  0.1778
 6699TIP3    H141588   5.906   0.238   3.143  2.6884  1.1109  0.8387
 6699TIP3    H241589   5.965   0.226   3.282 -1.3418 -1.4291  2.4528
 6700TIP3   OH241590   4.762   5.941   2.026  0.0850 -0.3222  0.5172
 6700TIP3    H141591   4.706   5.866   2.047  1.5131 -1.2791  0.9770
 6700TIP3    H241592   4.770   5.938   1.930  0.4937 -1.0399  0.5640
 6701TIP3   OH241593   6.203   0.096   3.027 -0.1350 -0.1163 -0.5649
 6701TIP3    H141594   6.294   0.082   3.056  0.5626  1.2034 -2.0134
 6701TIP3    H241595   6.179   0.180   3.067 -0.3913 -0.0179 -0.9305
 6702TIP3   OH241596   2.979   3.292   5.010  0.6598  0.2231  0.3711
 6702TIP3    H141597   3.071   3.281   5.032  1.3887  2.1300 -1.4765
 6702TIP3    H241598   2.962   3.385   5.025 -0.1949  0.4713 -1.9476
 6703TIP3   OH241599   0.155   2.552   1.016  0.0626  0.0529  0.2341
 6703TIP3    H141600   0.194   2.516   0.936 -0.8002  0.0584 -0.2052
 6703TIP3    H241601   0.183   2.644   1.017  3.3769 -0.9134  2.0701
 6704TIP3   OH241602   6.102   5.232  11.948  0.2173  0.1112 -0.2996
 6704TIP3    H141603   6.020   5.281  11.941  0.0720 -0.0808  0.0435
 6704TIP3    H241604   6.113   5.190  11.863 -0.4696 -0.5282 -0.0829
 6705TIP3   OH241605   1.564   6.714   4.698  0.3361 -0.0324  0.0407
 6705TIP3    H141606   1.481   6.760   4.711  1.0031  1.0488  0.5400
 6705TIP3    H241607   1.603   6.709   4.786  0.0918 -1.9008  0.0549
 6706TIP3   OH241608   0.541   5.818  16.007 -0.5106  0.5688  0.1386
 6706TIP3    H141609   0.529   5.768  15.927 -0.7588  0.9232 -0.0451
 6706TIP3    H241610   0.628   5.795  16.037 -0.0736  1.1133 -0.7037
 6707TIP3   OH241611   6.754   3.668   2.814  0.3290  0.2514  0.0326
 6707TIP3    H141612   6.707   3.703   2.889  1.6000  0.9052  0.5381
 6707TIP3    H241613   6.789   3.584   2.843 -1.2577 -0.6608 -0.6299
 6708TIP3   OH241614   2.862   1.396  16.357  0.1187 -0.2296  0.2350
 6708TIP3    H141615   2.918   1.322  16.335  0.7211 -0.2007  1.5669
 6708TIP3    H241616   2.804   1.363  16.425 -0.8233  0.0178 -0.4437
 6709TIP3   OH241617   6.468   4.461  11.250  0.2613 -0.1671 -0.2492
 6709TIP3    H141618   6.509   4.500  11.327  0.6385 -0.9882 -0.0363
 6709TIP3    H241619   6.401   4.525  11.224  0.2983  0.2260  0.6073
 6710TIP3   OH241620   3.750   1.936   3.373  0.5141 -0.3671  0.3938
 6710TIP3    H141621   3.672   1.907   3.421  0.1425 -0.1763 -0.1014
 6710TIP3    H241622   3.716   1.985   3.299  1.0335 -2.4101 -1.2338
 6711TIP3   OH241623   3.586   4.460  14.360 -0.7309 -0.4088 -0.0025
 6711TIP3    H141624   3.594   4.536  14.303  0.8277 -1.3500 -1.0611
 6711TIP3    H241625   3.610   4.492  14.447 -3.6079  1.1556  0.2849
 6712TIP3   OH241626   5.733   1.973  15.444 -0.5257  0.3858  0.3280
 6712TIP3    H141627   5.780   1.932  15.371  0.8078  3.0298 -0.3844
 6712TIP3    H241628   5.651   1.924  15.451 -0.7211  0.1269 -3.0183
 6713TIP3   OH241629   5.565   0.721   4.603  0.7278  0.0969  0.2939
 6713TIP3    H141630   5.603   0.712   4.691 -0.6864  1.3940  1.0548
 6713TIP3    H241631   5.575   0.814   4.582 -0.2013  0.0529 -0.3440
 6714TIP3   OH241632   1.725   5.472  16.595 -0.0854  0.6524 -0.2308
 6714TIP3    H141633   1.630   5.469  16.583  0.1639  0.2454 -2.2474
 6714TIP3    H241634   1.754   5.383  16.577  0.4678  0.1672  2.6956
 6715TIP3   OH241635   5.734   6.577   2.609  0.2186 -0.3918 -0.4036
 6715TIP3    H141636   5.715   6.590   2.516  0.0294 -1.9621 -0.5950
 6715TIP3    H241637   5.656   6.610   2.654  0.8547  1.6230 -0.7029
 6716TIP3   OH241638   2.073   0.356   3.899 -0.3551 -0.0526  0.7805
 6716TIP3    H141639   2.060   0.449   3.913  0.4319  0.8724 -3.6437
 6716TIP3    H241640   2.166   0.348   3.878 -0.7842 -1.4807 -0.7670
 6717TIP3   OH241641   3.475   5.103   6.513 -0.1890 -0.2563 -0.0560
 6717TIP3    H141642   3.383   5.127   6.520  0.0239  0.2744  1.1171
 6717TIP3    H241643   3.520   5.186   6.496  0.2324 -0.2706  0.9536
 6718TIP3   OH241644   1.088   4.189   7.062  0.1828  0.5080 -0.0601
 6718TIP3    H141645   1.091   4.283   7.042  0.8390  0.3634 -0.6813
 6718TIP3    H241646   1.177   4.168   7.091 -0.0563  0.1502  0.4102
 6719TIP3   OH241647   5.250   6.078  15.613  0.0320 -0.1988  0.4513
 6719TIP3    H141648   5.341   6.059  15.589 -0.1730 -0.8671  0.2171
 6719TIP3    H241649   5.243   6.050  15.704 -0.1477 -0.8230  0.2419
 6720TIP3   OH241650   3.530   4.969   1.802  0.1832  0.3066  0.2273
 6720TIP3    H141651   3.451   5.024   1.794  0.4956  1.0897  2.3044
 6720TIP3    H241652   3.500   4.891   1.848 -0.0638 -0.9173 -1.9420
 6721TIP3   OH241653   5.107   5.433  12.255 -0.1955  0.4362 -0.3255
 6721TIP3    H141654   5.063   5.468  12.333 -1.5576 -2.4569  0.2488
 6721TIP3    H241655   5.037   5.396  12.202  1.2380 -2.0021 -0.5768
 6722TIP3   OH241656   4.852   2.524  11.861 -0.2150 -0.2228 -0.2712
 6722TIP3    H141657   4.925   2.469  11.831 -1.1320 -2.1893  1.0330
 6722TIP3    H241658   4.801   2.542  11.782  1.5606  1.0279 -1.1636
 6723TIP3   OH241659   0.537   4.265   1.627 -0.2838  0.3124 -0.6014
 6723TIP3    H141660   0.461   4.207   1.617 -0.3940  0.5958 -1.4634
 6723TIP3    H241661   0.506   4.337   1.681  0.0842 -0.8402  1.1861
 6724TIP3   OH241662   6.147   5.277   1.244  0.0700  0.7509  0.1346
 6724TIP3    H141663   6.074   5.302   1.187  0.3109 -0.0022 -0.5162
 6724TIP3    H241664   6.177   5.194   1.209 -0.3278 -0.1588  1.8878
 6725TIP3   OH241665   5.506   0.653  16.403 -0.0408  0.0884 -0.3414
 6725TIP3    H141666   5.577   0.592  16.387 -0.4642 -0.4138 -0.3032
 6725TIP3    H241667   5.548   0.739  16.408  0.8101 -0.4178  1.5593
 6726TIP3   OH241668   6.460   1.103   0.433  0.5857  0.1304  0.3404
 6726TIP3    H141669   6.382   1.046   0.436  0.9424 -0.5235 -2.0009
 6726TIP3    H241670   6.533   1.044   0.449  0.6865  0.5934  1.6343
 6727TIP3   OH241671   2.535   5.527   1.263 -0.0670 -0.4668  0.1807
 6727TIP3    H141672   2.510   5.472   1.189  1.6445 -1.1115  0.0587
 6727TIP3    H241673   2.546   5.614   1.225 -0.5077 -0.5219 -0.0753
 6728TIP3   OH241674   4.253   4.850  11.917 -0.0701 -0.0377 -0.2938
 6728TIP3    H141675   4.234   4.796  11.994  1.3071 -3.3922 -2.1993
 6728TIP3    H241676   4.340   4.886  11.934 -0.6226  0.9230  0.5901
 6729TIP3   OH241677   3.623   5.421  15.513 -0.7154 -0.1318  0.0499
 6729TIP3    H141678   3.712   5.450  15.530 -0.6719  0.8103 -1.7072
 6729TIP3    H241679   3.568   5.493  15.543 -0.7963  0.0765 -0.5968
 6730TIP3   OH241680   4.168   6.148  12.353 -0.0687  0.1716  0.6207
 6730TIP3    H141681   4.197   6.109  12.435 -1.1139  0.4005  1.1110
 6730TIP3    H241682   4.113   6.081  12.313 -1.0161  0.7381  0.9660
 6731TIP3   OH241683   1.118   5.389   1.876  0.2720  0.4329 -0.0589
 6731TIP3    H141684   1.049   5.342   1.923  1.1870 -2.4014 -1.4418
 6731TIP3    H241685   1.077   5.417   1.794  0.3301  0.1032 -0.2012
 6732TIP3   OH241686   4.511   1.980   3.972  0.3283  0.3874 -0.2670
 6732TIP3    H141687   4.574   1.910   3.958 -0.5052 -0.6531  0.9918
 6732TIP3    H241688   4.451   1.945   4.039 -0.2680  2.1884  0.1727
 6733TIP3   OH241689   4.231   5.436  13.764 -0.0814  0.4776 -0.3379
 6733TIP3    H141690   4.282   5.416  13.686 -0.3855  0.2255 -0.4716
 6733TIP3    H241691   4.149   5.472  13.730 -1.0905 -1.6158 -0.2047
 6734TIP3   OH241692   2.958   4.896   2.669 -0.1613  0.1398 -0.0165
 6734TIP3    H141693   2.997   4.952   2.736  0.9875 -1.0123  0.3078
 6734TIP3    H241694   2.982   4.938   2.586  0.6832  0.1425  0.2247
 6735TIP3   OH241695   4.204   5.070   3.645  0.1829  0.3834  0.1819
 6735TIP3    H141696   4.156   5.070   3.728 -0.6175 -1.1496 -0.2789
 6735TIP3    H241697   4.222   4.978   3.627  3.1151  0.9049  0.2203
 6736TIP3   OH241698   1.748   1.995   1.715  0.0263  0.4143 -0.1573
 6736TIP3    H141699   1.732   1.955   1.801 -1.0144  1.0993 -0.0261
 6736TIP3    H241700   1.661   2.015   1.681  0.5279  3.2396  0.0902
 6737TIP3   OH241701   5.859   4.860  16.005 -0.2125 -0.0485 -0.6047
 6737TIP3    H141702   5.812   4.861  16.089  1.0610  1.7439  0.1065
 6737TIP3    H241703   5.878   4.767  15.989 -3.8920 -0.8450 -0.8872
 6738TIP3   OH241704   2.370   3.548  13.447 -0.2296  0.5262  0.1072
 6738TIP3    H141705   2.384   3.528  13.539  1.8363 -3.2897 -0.9359
 6738TIP3    H241706   2.449   3.596  13.421 -0.4341  0.8723  0.1241
 6739TIP3   OH241707   5.762   1.145   0.286  0.4361 -0.5502 -0.1678
 6739TIP3    H141708   5.788   1.097   0.207 -2.4276 -0.5779 -1.1265
 6739TIP3    H241709   5.813   1.226   0.282 -0.0048 -0.3549 -2.2820
 6740TIP3   OH241710   4.300   1.035   0.005  0.1134  0.3547 -0.4385
 6740TIP3    H141711   4.298   0.979  -0.072 -0.5710 -1.3961  0.8313
 6740TIP3    H241712   4.227   1.096  -0.008 -0.5901 -0.5318 -0.7323
 6741TIP3   OH241713   6.610   4.673  15.423  0.1674 -0.0515  0.2894
 6741TIP3    H141714   6.653   4.647  15.504 -1.6456 -2.5275  0.5444
 6741TIP3    H241715   6.546   4.739  15.449  1.6889  1.4289  0.3595
 6742TIP3   OH241716   3.229   4.871   4.876 -0.5623 -0.5070 -0.3698
 6742TIP3    H141717   3.277   4.814   4.816  0.3667  0.1022 -0.2175
 6742TIP3    H241718   3.279   4.867   4.958 -0.9561 -0.1274 -0.1088
 6743TIP3   OH241719   5.655   4.490  11.382  0.4976 -0.0684  0.2291
 6743TIP3    H141720   5.718   4.448  11.441  0.3344 -0.5665  0.0501
 6743TIP3    H241721   5.688   4.470  11.294 -0.0851 -0.5938  0.1328
 6744TIP3   OH241722   2.087   4.109   2.586  0.1458 -0.3181 -0.1828
 6744TIP3    H141723   2.051   4.025   2.557  0.0003  0.1170 -1.3291
 6744TIP3    H241724   2.165   4.122   2.532 -2.2549  2.3230 -3.2743
 6745TIP3   OH241725   6.549   4.722   3.864  0.2758 -0.2826  0.3311
 6745TIP3    H141726   6.631   4.730   3.815  0.2411 -0.3056  0.2707
 6745TIP3    H241727   6.533   4.628   3.870 -0.3862 -0.2498 -0.7100
 6746TIP3   OH241728   0.105   0.103   2.530  0.2415  0.1044  0.4762
 6746TIP3    H141729   0.083   0.038   2.597 -0.1871 -0.6587 -0.3984
 6746TIP3    H241730   0.022   0.145   2.509  0.1202 -0.6183 -0.5656
 6747TIP3   OH241731   6.547   4.121   3.409  0.2840 -0.0427 -0.4893
 6747TIP3    H141732   6.467   4.073   3.430 -0.7825  2.1088  0.6658
 6747TIP3    H241733   6.613   4.054   3.392 -1.3923 -1.8634  0.0412
 6748TIP3   OH241734   3.784   2.245  14.259  0.3536 -0.2899 -0.0628
 6748TIP3    H141735   3.789   2.150  14.263 -0.3453 -0.3130  0.4597
 6748TIP3    H241736   3.733   2.270  14.337  1.5523  0.5970  0.4470
 6749TIP3   OH241737   5.959   3.698  11.400 -0.2436 -0.3183  0.4527
 6749TIP3    H141738   5.958   3.746  11.317 -0.5261 -1.6701 -0.3435
 6749TIP3    H241739   6.038   3.729  11.444  0.1387  0.1081 -0.5093
 6750TIP3   OH241740   4.896   4.481   2.193  0.1672  0.3615  0.3163
 6750TIP3    H141741   4.905   4.516   2.105  2.2680  0.6957  0.6463
 6750TIP3    H241742   4.985   4.480   2.228 -0.3009 -2.0051  1.5797
 6751TIP3   OH241743   2.604   1.429   1.563  0.3016  0.6959 -0.0536
 6751TIP3    H141744   2.601   1.360   1.629  1.6566  0.2663 -0.4262
 6751TIP3    H241745   2.650   1.501   1.606  2.4062 -0.0732 -0.9430
 6752TIP3   OH241746   6.466   6.483  16.760 -0.5612 -0.2838  0.0330
 6752TIP3    H141747   6.435   6.409  16.708 -1.7846  0.0788  0.2092
 6752TIP3    H241748   6.482   6.552  16.696 -4.4576  0.9732  0.2900
 6753TIP3   OH241749   6.191   4.423   1.458  0.4338 -0.0692  0.6491
 6753TIP3    H141750   6.215   4.488   1.523 -1.6813  0.0228  1.3977
 6753TIP3    H241751   6.133   4.470   1.397  2.2951 -0.1751 -1.2506
 6754TIP3   OH241752   5.630   0.646   5.662  0.1982  0.1365  0.4287
 6754TIP3    H141753   5.561   0.705   5.691  1.0354  0.4619  1.8314
 6754TIP3    H241754   5.700   0.703   5.632  0.9700 -0.1266  1.6963
 6755TIP3   OH241755   2.638   4.826  16.216  0.0162 -0.0949  0.2321
 6755TIP3    H141756   2.702   4.813  16.285 -0.6531  1.1390  1.1163
 6755TIP3    H241757   2.643   4.747  16.162  0.2313 -1.2665  1.9542
 6756TIP3   OH241758   5.124   0.753   1.034  0.2864  0.2839 -0.2061
 6756TIP3    H141759   5.070   0.790   1.103  1.3736 -1.9861  1.9655
 6756TIP3    H241760   5.073   0.679   1.000  0.5863  0.1950 -0.4726
 6757TIP3   OH241761   3.832   0.990  15.317 -0.0103  0.4728 -0.6229
 6757TIP3    H141762   3.897   0.920  15.309  0.2248  0.4363  1.4573
 6757TIP3    H241763   3.763   0.966  15.254  0.1158 -1.5705 -0.0111
 6758TIP3   OH241764   1.802   4.786  12.079  0.2039  0.6485  0.0055
 6758TIP3    H141765   1.779   4.766  11.988 -1.4876 -0.5208  0.6598
 6758TIP3    H241766   1.842   4.873  12.075 -0.2527  0.7914 -1.8039
 6759TIP3   OH241767   0.969   1.384  11.296  0.3831  0.5619  0.4639
 6759TIP3    H141768   0.983   1.294  11.325  1.5680  0.5094 -0.2491
 6759TIP3    H241769   0.951   1.433  11.376  2.3079  0.1738  1.1622
 6760TIP3   OH241770   3.700   0.483   0.277  0.1178 -0.2860  0.1324
 6760TIP3    H141771   3.743   0.564   0.304 -0.4449  0.3770 -0.9124
 6760TIP3    H241772   3.684   0.436   0.359  2.0859 -0.1890  0.5929
 6761TIP3   OH241773   1.938   5.884  11.751  0.2703 -0.1859  0.7058
 6761TIP3    H141774   1.874   5.840  11.807 -0.2012 -0.4712 -0.0526
 6761TIP3    H241775   1.993   5.814  11.717  2.3163  0.2287  2.9645
 6762TIP3   OH241776   3.403   1.509   2.084  0.2426 -0.3123 -0.0819
 6762TIP3    H141777   3.430   1.587   2.036  1.1935 -0.5518  0.0568
 6762TIP3    H241778   3.441   1.519   2.171 -1.4454  0.1033  0.6433
 6763TIP3   OH241779   0.949   2.467  12.574 -0.0955 -0.0204  0.5144
 6763TIP3    H141780   0.917   2.557  12.581 -1.7213 -0.5803  0.4159
 6763TIP3    H241781   0.939   2.444  12.482 -1.9111 -1.0933  0.9526
 6764TIP3   OH241782   6.076   5.556  14.654 -0.5547  0.1097 -0.5840
 6764TIP3    H141783   6.150   5.540  14.712 -0.0146  1.3361 -0.9349
 6764TIP3    H241784   6.008   5.496  14.686  1.0535 -2.0953 -1.1655
 6765TIP3   OH241785   5.781   2.653  11.730 -0.6574 -0.5303 -0.4512
 6765TIP3    H141786   5.851   2.610  11.682 -1.5334 -4.0955  1.2864
 6765TIP3    H241787   5.717   2.678  11.663  0.9178  0.1105 -1.7292
 6766TIP3   OH241788   4.417   0.758  10.820 -0.5315 -0.1294  0.4913
 6766TIP3    H141789   4.362   0.708  10.760  0.7856  0.2856 -1.1085
 6766TIP3    H241790   4.420   0.846  10.783  0.2776  0.1433  1.1858
 6767TIP3   OH241791   0.308   1.013   6.458  0.2070 -0.1100  0.4257
 6767TIP3    H141792   0.265   0.952   6.519 -0.1816 -0.1266  0.1359
 6767TIP3    H241793   0.282   1.100   6.489  0.4716 -0.1011  0.6244
 6768TIP3   OH241794   4.576   0.048   3.455  0.6039 -0.4056 -0.2742
 6768TIP3    H141795   4.626   0.002   3.388  1.6824  3.1096 -1.9812
 6768TIP3    H241796   4.486   0.049   3.421  1.3253  2.2487 -2.2459
 6769TIP3   OH241797   3.148   5.125   1.488  0.0414  0.6396  0.8575
 6769TIP3    H141798   3.131   5.202   1.542 -1.3686  2.2111 -1.7267
 6769TIP3    H241799   3.199   5.158   1.414 -0.5889 -0.8801 -0.2908
 6770TIP3   OH241800   2.098   6.364  16.060  0.0727 -0.2281 -0.3266
 6770TIP3    H141801   2.139   6.294  16.009  1.5419  1.7047 -1.9005
 6770TIP3    H241802   2.058   6.421  15.994  0.3925  1.3245  0.7855
 6771TIP3   OH241803   0.845   5.153   3.199  0.2866 -0.0656 -0.2496
 6771TIP3    H141804   0.877   5.117   3.116  0.2472  0.8995 -0.6907
 6771TIP3    H241805   0.782   5.220   3.173 -0.9562 -0.8978  0.5981
 6772TIP3   OH241806   3.075   6.439   3.328 -0.0323 -0.5904 -0.2237
 6772TIP3    H141807   3.118   6.392   3.399 -0.0847  1.5190  1.2447
 6772TIP3    H241808   3.139   6.505   3.301 -0.9804  0.2742 -0.3993
 6773TIP3   OH241809   5.434   1.385   3.629  0.1955  0.6175  0.5016
 6773TIP3    H141810   5.521   1.426   3.627  1.0137 -1.0305  1.5732
 6773TIP3    H241811   5.408   1.389   3.721 -1.8064  2.9567 -0.1152
 6774TIP3   OH241812   6.021   1.871  15.989 -0.4674  0.5150 -0.4784
 6774TIP3    H141813   5.971   1.952  15.978 -0.9837  0.0817 -1.3432
 6774TIP3    H241814   6.086   1.873  15.919 -1.1795 -0.3332 -1.1770
 6775TIP3   OH241815   2.004   2.470  10.756  0.0032 -0.2211 -0.2820
 6775TIP3    H141816   2.097   2.482  10.773  0.0640 -0.8076 -0.2148
 6775TIP3    H241817   1.979   2.547  10.705  0.1065  0.8723  1.2840
 6776TIP3   OH241818   1.000   4.272   1.393  0.3933 -0.2267  0.6180
 6776TIP3    H141819   0.990   4.188   1.436 -0.2494 -0.2241  0.4846
 6776TIP3    H241820   0.910   4.300   1.373  0.5927  0.5128  0.7150
 6777TIP3   OH241821   4.113   4.919  12.374 -0.0291 -0.9511 -0.5102
 6777TIP3    H141822   4.037   4.919  12.433 -0.8019 -0.2915 -1.4805
 6777TIP3    H241823   4.186   4.890  12.428 -0.7102 -0.2569  0.8003
 6778TIP3   OH241824   2.940   0.248  13.418  0.6108 -0.1542  0.4224
 6778TIP3    H141825   2.928   0.340  13.440  0.7698  0.0902 -0.4927
 6778TIP3    H241826   3.032   0.230  13.439  0.8181  0.1322 -0.2252
 6779TIP3   OH241827   3.124   5.702  14.779  0.0234  0.6722 -0.1292
 6779TIP3    H141828   3.070   5.779  14.761 -0.8667  0.4036  1.2694
 6779TIP3    H241829   3.071   5.628  14.750  0.8826  0.5881 -1.4768
 6780TIP3   OH241830   1.770   4.222   2.344  0.5555  0.3869 -0.1250
 6780TIP3    H141831   1.823   4.287   2.298 -0.4518  0.7696 -0.7597
 6780TIP3    H241832   1.680   4.253   2.334 -0.1437 -2.0978 -2.0673
 6781TIP3   OH241833   6.082   2.463  16.710 -0.5865  0.2371  0.1914
 6781TIP3    H141834   6.148   2.462  16.779  1.0206 -0.9913 -1.3108
 6781TIP3    H241835   6.000   2.444  16.755  0.5865 -1.6386  1.6286
 6782TIP3   OH241836   6.303   6.408  11.944  0.6480 -0.0576 -1.0666
 6782TIP3    H141837   6.264   6.335  11.896 -0.3514 -0.3415  0.1492
 6782TIP3    H241838   6.396   6.404  11.923  0.1341  0.3591 -3.6700
 6783TIP3   OH241839   4.123   0.158  11.782 -0.3318 -0.7737  0.0076
 6783TIP3    H141840   4.148   0.089  11.721  0.0687 -0.6516  0.0280
 6783TIP3    H241841   4.160   0.130  11.866  0.3416 -0.2466 -0.1099
 6784TIP3   OH241842   4.674   1.533  13.097  0.9175  0.6822 -0.0437
 6784TIP3    H141843   4.732   1.456  13.100  0.3194  0.2524  1.0519
 6784TIP3    H241844   4.692   1.579  13.179  1.6987  2.0437 -0.9629
 6785TIP3   OH241845   1.472   3.440   1.663 -0.4477  0.6087  0.0437
 6785TIP3    H141846   1.546   3.481   1.707  0.3781 -0.0945 -0.6820
 6785TIP3    H241847   1.400   3.445   1.727 -0.1409  2.4198  0.2752
 6786TIP3   OH241848   5.726   1.133  14.870 -0.0471  0.4777 -0.2095
 6786TIP3    H141849   5.793   1.104  14.808  0.0464  0.9051 -0.3058
 6786TIP3    H241850   5.709   1.055  14.924 -2.2791 -0.7939 -2.6368
 6787TIP3   OH241851   1.720   4.397   4.718  0.6803  0.5183 -0.1172
 6787TIP3    H141852   1.673   4.316   4.737 -0.0662  0.4998 -1.9558
 6787TIP3    H241853   1.770   4.414   4.798 -2.3563  0.5131  1.8846
 6788TIP3   OH241854   4.290   4.601  15.281  0.1961  0.1690 -0.5525
 6788TIP3    H141855   4.262   4.595  15.372  1.2333 -0.8118 -0.2841
 6788TIP3    H241856   4.262   4.688  15.253  0.9098  0.9532  1.0755
 6789TIP3   OH241857   0.788   1.013   3.598 -0.5997 -0.6290  0.7084
 6789TIP3    H141858   0.712   0.989   3.545  0.2003 -1.0205 -0.2817
 6789TIP3    H241859   0.849   1.051   3.536 -0.2066  0.2005  1.5955
 6790TIP3   OH241860   5.232   0.298   3.834  0.3276  0.2348 -0.0469
 6790TIP3    H141861   5.287   0.285   3.912  0.4059 -1.5403 -0.3784
 6790TIP3    H241862   5.288   0.347   3.774  0.4251  1.2218  0.8197
 6791TIP3   OH241863   0.243   4.756  13.415  0.0013  0.5472 -0.4292
 6791TIP3    H141864   0.190   4.827  13.450 -0.1851  0.0512  0.3282
 6791TIP3    H241865   0.266   4.703  13.492 -0.2149 -0.4405 -1.0265
 6792TIP3   OH241866   0.945   5.596  11.313 -0.3691 -0.2126 -0.4340
 6792TIP3    H141867   0.910   5.515  11.276  0.1458  0.2819 -2.0139
 6792TIP3    H241868   0.895   5.666  11.271  0.1874  0.3608 -0.1533
 6793TIP3   OH241869   3.420   1.643   3.875 -0.3750 -0.0509 -0.0035
 6793TIP3    H141870   3.338   1.693   3.880 -0.2671  0.0427  0.7621
 6793TIP3    H241871   3.437   1.615   3.964  0.4259 -0.0883 -0.1667
 6794TIP3   OH241872   1.300   2.649  13.074  0.3376  1.0667  0.3606
 6794TIP3    H141873   1.242   2.575  13.094  1.1568  0.3795  0.2349
 6794TIP3    H241874   1.241   2.719  13.048 -0.5098  0.7283  1.3019
 6795TIP3   OH241875   1.821   6.280   5.273  1.2954 -0.1842  0.3813
 6795TIP3    H141876   1.891   6.219   5.250 -1.8963 -2.9867 -2.3393
 6795TIP3    H241877   1.756   6.226   5.318 -0.7846  1.5891 -0.4230
 6796TIP3   OH241878   2.376   0.433   4.535  0.4065  0.8373  0.0222
 6796TIP3    H141879   2.336   0.515   4.506 -0.0195  0.0623 -1.6289
 6796TIP3    H241880   2.396   0.448   4.627 -2.2557  1.7941  0.4819
 6797TIP3   OH241881   1.978   4.847   0.614  0.1039 -0.4757 -0.4664
 6797TIP3    H141882   2.063   4.890   0.599  0.2762 -0.1841  1.2262
 6797TIP3    H241883   1.919   4.889   0.551  0.1157  2.7656  1.5731
 6798TIP3   OH241884   1.285   0.230   2.877 -0.0306 -0.2147  0.0813
 6798TIP3    H141885   1.236   0.151   2.857 -0.5599  0.3074 -0.7289
 6798TIP3    H241886   1.220   0.289   2.917  0.1658  0.1240 -0.0964
 6799TIP3   OH241887   1.073   4.873   5.550 -0.0783 -0.6325  0.5726
 6799TIP3    H141888   1.104   4.929   5.479 -1.2004  1.6870  1.8381
 6799TIP3    H241889   1.115   4.789   5.535  1.4551  0.4718 -1.5557
 6800TIP3   OH241890   4.791   2.199   2.613 -0.0656 -0.6911  0.2120
 6800TIP3    H141891   4.744   2.227   2.535  1.1351  0.3781 -0.1516
 6800TIP3    H241892   4.723   2.173   2.675 -1.2460  3.2041  0.6223
 6801TIP3   OH241893   6.224   1.627   0.417  0.5266 -0.1683  0.3010
 6801TIP3    H141894   6.278   1.566   0.466  1.0589  0.3108  0.3104
 6801TIP3    H241895   6.276   1.648   0.339  0.5468  0.6534  0.5386
 6802TIP3   OH241896   6.550   0.938   4.486 -0.3108 -0.3660 -0.0253
 6802TIP3    H141897   6.515   0.968   4.569  0.9272  0.1513  0.3188
 6802TIP3    H241898   6.535   1.010   4.426  2.5848  0.9672  0.7798
 6803TIP3   OH241899   3.487   3.404   5.827  0.6415 -0.1055 -0.2567
 6803TIP3    H141900   3.495   3.383   5.920 -1.5646 -0.9738 -0.2450
 6803TIP3    H241901   3.463   3.497   5.825  0.4891 -0.1386  0.0437
 6804TIP3   OH241902   0.270   5.389  17.050 -0.0124 -0.0369  0.3682
 6804TIP3    H141903   0.274   5.439  16.969 -1.8248 -0.5948 -0.0734
 6804TIP3    H241904   0.345   5.329  17.045 -0.2448 -0.2154 -0.9746
 6805TIP3   OH241905   3.142   3.484   6.603 -0.0075 -0.3521  0.3383
 6805TIP3    H141906   3.093   3.470   6.522  0.2737  0.5600  0.0028
 6805TIP3    H241907   3.231   3.455   6.583  0.2109  0.4721  0.1243
 6806TIP3   OH241908   4.396   2.639  10.448 -0.8637 -0.3197  0.1526
 6806TIP3    H141909   4.437   2.556  10.422 -1.9347 -0.5733 -0.7555
 6806TIP3    H241910   4.466   2.704  10.438 -0.3495 -0.9271 -0.2832
 6807TIP3   OH241911   1.909   0.537   1.794 -0.4662  0.3684  0.4491
 6807TIP3    H141912   1.971   0.570   1.859 -1.6331 -0.1819  1.8682
 6807TIP3    H241913   1.826   0.576   1.818 -1.0520 -0.3855 -0.3207
 6808TIP3   OH241914   3.736   0.792  14.808  0.3817  0.3452 -0.0946
 6808TIP3    H141915   3.662   0.738  14.781  1.5172 -0.7419 -1.0734
 6808TIP3    H241916   3.802   0.730  14.838  1.2278  1.2565 -0.0554
 6809TIP3   OH241917   3.673   0.406  14.370  0.8282 -0.8074  0.7384
 6809TIP3    H141918   3.702   0.359  14.448  0.6554 -0.6902  0.8719
 6809TIP3    H241919   3.578   0.409  14.376  0.7467 -1.7025  0.0089
 6810TIP3   OH241920   2.970   6.621   0.968  0.6136 -0.1162 -0.2545
 6810TIP3    H141921   2.979   6.593   0.877  0.0066  1.3798 -0.7875
 6810TIP3    H241922   3.032   6.566   1.016  1.5330 -0.3575 -1.6808
 6811TIP3   OH241923   2.083   5.515   0.565 -0.0676 -0.0659 -0.1755
 6811TIP3    H141924   2.086   5.427   0.529 -1.3096  0.5554 -1.8572
 6811TIP3    H241925   2.175   5.538   0.580  0.2135 -1.9257  1.0392
 6812TIP3   OH241926   0.368   3.980  16.002 -0.0819  0.7767  0.0920
 6812TIP3    H141927   0.421   3.912  15.959  0.5363  0.2289  1.6852
 6812TIP3    H241928   0.310   4.012  15.933  0.8100 -0.1653 -1.1227
 6813TIP3   OH241929   4.475   6.726  13.263 -0.0240  0.3079  0.2499
 6813TIP3    H141930   4.500   6.636  13.244 -0.3950 -0.0080  1.2153
 6813TIP3    H241931   4.442   6.723  13.353 -1.6969  1.0769 -0.3156
 6814TIP3   OH241932   5.456   0.502  15.442 -0.3104  0.0022 -0.6429
 6814TIP3    H141933   5.460   0.534  15.352  0.3010  0.3538 -0.4945
 6814TIP3    H241934   5.530   0.441  15.449 -0.5666 -0.2872 -0.4860
 6815TIP3   OH241935   3.734   4.556  15.131  0.1609 -0.2995  0.0295
 6815TIP3    H141936   3.723   4.465  15.159 -1.3266 -0.3673 -0.7254
 6815TIP3    H241937   3.816   4.584  15.171  2.5543 -3.1135 -2.6135
 6816TIP3   OH241938   5.012   6.113   2.686  0.5641 -0.0091  0.3245
 6816TIP3    H141939   4.994   6.121   2.592 -1.3633 -1.2965  0.5514
 6816TIP3    H241940   5.064   6.033   2.693 -0.0598 -0.4081  0.4358
 6817TIP3   OH241941   0.472   4.507   2.892 -0.2999  0.1483  0.1319
 6817TIP3    H141942   0.397   4.486   2.837 -0.8338 -1.5021  1.4773
 6817TIP3    H241943   0.463   4.451   2.969  2.0861  0.2161  0.5097
 6818TIP3   OH241944   3.906   6.599   4.671  0.2981  0.2574 -0.0906
 6818TIP3    H141945   3.820   6.638   4.686  0.6386  1.1817 -0.5049
 6818TIP3    H241946   3.960   6.629   4.744  0.6102  0.7342 -0.5098
 6819TIP3   OH241947   3.562   4.868   5.298  0.2245 -0.0298 -0.2081
 6819TIP3    H141948   3.487   4.916   5.331  0.5456  0.3292  0.0066
 6819TIP3    H241949   3.637   4.925   5.315  0.5778 -0.4954 -0.1814
 6820TIP3   OH241950   2.578   3.662   0.478  0.3856 -0.4688 -0.2065
 6820TIP3    H141951   2.575   3.734   0.541  2.1169 -2.6935  2.4819
 6820TIP3    H241952   2.486   3.640   0.462 -0.0483 -0.6455  2.4256
 6821TIP3   OH241953   3.207   6.299   4.276 -0.0783  0.2705  0.1353
 6821TIP3    H141954   3.230   6.207   4.268 -0.4760  0.1264  0.6509
 6821TIP3    H241955   3.226   6.336   4.189  0.6738 -0.1571  0.1153
 6822TIP3   OH241956   5.878   4.031   2.809 -0.2397 -0.3483 -0.1031
 6822TIP3    H141957   5.925   4.041   2.726  2.3666  1.3534  1.5200
 6822TIP3    H241958   5.895   3.940   2.835  0.0551 -0.4804 -0.7447
 6823TIP3   OH241959   0.713   5.807  12.920 -0.5037  0.1541  0.2855
 6823TIP3    H141960   0.676   5.722  12.898 -0.2375 -0.1580  1.0283
 6823TIP3    H241961   0.656   5.841  12.990 -3.1220  2.4423 -2.8181
 6824TIP3   OH241962   1.896   6.573   0.051 -0.1637 -1.0259 -0.4045
 6824TIP3    H141963   1.906   6.634   0.123 -0.4998 -1.7880  0.2914
 6824TIP3    H241964   1.888   6.487   0.092 -1.4049 -1.3523 -1.2898
 6825TIP3   OH241965   4.717   0.480  16.759 -0.2834 -0.0558 -0.4605
 6825TIP3    H141966   4.697   0.569  16.731 -1.7475 -0.0261  0.6131
 6825TIP3    H241967   4.661   0.424  16.705  2.0351 -0.4773 -2.4800
 6826TIP3   OH241968   2.876   5.075  16.081  0.0038 -0.3172  0.7165
 6826TIP3    H141969   2.911   4.987  16.094  0.2132 -0.1328  1.4363
 6826TIP3    H241970   2.836   5.097  16.165  1.1103  0.7965  0.9720
 6827TIP3   OH241971   2.202   1.304   0.142  0.6564  0.0173 -0.0151
 6827TIP3    H141972   2.184   1.379   0.198 -0.2180  1.4225 -2.1394
 6827TIP3    H241973   2.153   1.321   0.061  1.4961 -2.1961 -1.0442
 6828TIP3   OH241974   0.648   0.510   0.660  0.5881 -0.3539 -0.2995
 6828TIP3    H141975   0.731   0.532   0.617  0.8372 -1.5716 -0.4576
 6828TIP3    H241976   0.673   0.455   0.734  0.0204  0.3760  0.4424
 6829TIP3   OH241977   0.007   0.986   4.788 -0.7491  0.3351  0.2536
 6829TIP3    H141978  -0.044   0.907   4.806 -0.4995  0.1272  0.0551
 6829TIP3    H241979  -0.038   1.056   4.835 -0.2762 -0.1467  1.4319
 6830TIP3   OH241980   3.249   1.648  17.272  0.0676 -0.6182 -0.2877
 6830TIP3    H141981   3.313   1.711  17.240  0.8166 -0.9059  0.6315
 6830TIP3    H241982   3.264   1.643  17.366 -1.2755 -0.7271 -0.0598
 6831TIP3   OH241983   5.644   1.458  17.177 -0.1022 -0.0257 -0.3488
 6831TIP3    H141984   5.596   1.378  17.197 -0.5755  0.2795 -0.2496
 6831TIP3    H241985   5.668   1.494  17.263 -0.9603  0.5772 -0.3501
 6832TIP3   OH241986   6.099   0.127   5.951  0.7122  0.0748  0.2748
 6832TIP3    H141987   6.061   0.092   5.871  1.7586  1.4692 -0.8767
 6832TIP3    H241988   6.171   0.067   5.972  0.3317 -0.3845  0.2562
 6833TIP3   OH241989   4.607   6.631   5.351  0.2281 -0.5198 -0.0396
 6833TIP3    H141990   4.612   6.667   5.263 -0.9085 -1.9642 -0.7325
 6833TIP3    H241991   4.513   6.623   5.368  0.4359 -2.4255  0.3623
 6834TIP3   OH241992   6.061   3.333   1.910  0.1145  0.0992 -0.0556
 6834TIP3    H141993   6.001   3.260   1.897  0.0490  0.3501 -1.2272
 6834TIP3    H241994   6.110   3.339   1.828  1.5978  0.0327  0.8028
 6835TIP3   OH241995   6.791   2.512  17.208 -0.4064  0.6002 -0.0324
 6835TIP3    H141996   6.766   2.420  17.197 -0.2930  0.7571 -1.7989
 6835TIP3    H241997   6.751   2.538  17.290  1.0333 -1.5256  1.3922
 6836TIP3   OH241998   0.891   5.801  11.690  0.2265 -0.9467  0.4940
 6836TIP3    H141999   0.800   5.817  11.667 -0.4218 -2.2123  2.0990
 6836TIP3    H242000   0.921   5.735  11.628  0.9168  1.4618 -1.8263
 6837TIP3   OH242001   1.146   5.082   1.689  0.4123 -0.2746  0.1095
 6837TIP3    H142002   1.225   5.133   1.673 -0.3341  0.4669 -1.4034
 6837TIP3    H242003   1.174   4.991   1.683  1.5175 -0.0470  1.5766
 6838TIP3   OH242004   6.545   3.438  15.700  0.4942 -0.3523  0.1866
 6838TIP3    H142005   6.450   3.443  15.688  0.5714  2.5880  0.5400
 6838TIP3    H242006   6.557   3.420  15.793  0.2864  1.9353  0.6861
 6839TIP3   OH242007   4.165   4.904  14.851 -0.0175  0.4319  0.3046
 6839TIP3    H142008   4.225   4.901  14.925 -1.2545  0.4198  1.3234
 6839TIP3    H242009   4.143   4.812  14.834 -0.2637  0.4786  0.3642
 6840TIP3   OH242010   5.907   1.407   0.938  0.6705  0.0447  0.1311
 6840TIP3    H142011   5.879   1.458   1.014  0.0090  0.8995 -0.6738
 6840TIP3    H242012   6.002   1.417   0.936  0.9356 -1.8018  2.1265
 6841TIP3   OH242013   2.999   6.565   2.209  0.1812  0.3673 -0.1964
 6841TIP3    H142014   2.980   6.489   2.154 -2.9401  0.2014  1.0086
 6841TIP3    H242015   3.039   6.629   2.150  1.2205 -1.5581 -1.5962
 6842TIP3   OH242016   5.283   6.554   3.516  0.2007  0.4269  0.0765
 6842TIP3    H142017   5.229   6.631   3.532 -1.3689  0.0363 -2.9098
 6842TIP3    H242018   5.297   6.554   3.421  2.5430 -1.4253  0.3730
 6843TIP3   OH242019   2.944   0.072  16.994 -0.3917  0.1651  0.0200
 6843TIP3    H142020   3.029   0.075  16.949 -0.1615 -0.6520  0.3860
 6843TIP3    H242021   2.960   0.114  17.078 -0.3529  0.0470  0.0726
 6844TIP3   OH242022   3.147   4.639  16.282 -0.0783  0.2042 -0.1961
 6844TIP3    H142023   3.140   4.626  16.187 -0.2969 -0.2407 -0.1207
 6844TIP3    H242024   3.241   4.643  16.299 -0.0275  3.2193 -0.8212
 6845TIP3   OH242025   4.143   5.835   0.331 -0.0651  0.2014 -0.1542
 6845TIP3    H142026   4.207   5.906   0.334 -1.6919  1.6707  1.0560
 6845TIP3    H242027   4.058   5.880   0.328 -1.0399 -1.6935 -2.5672
 6846TIP3   OH242028   1.257   5.943  17.127  0.2450 -0.2706 -0.2386
 6846TIP3    H142029   1.270   5.934  17.222  0.1313  0.4642 -0.1487
 6846TIP3    H242030   1.344   5.929  17.090  0.5153  0.5963  0.0610
 6847TIP3   OH242031   6.362   2.675   2.878  0.0385  0.2831 -0.1495
 6847TIP3    H142032   6.421   2.602   2.896 -0.2619 -0.1445 -0.8907
 6847TIP3    H242033   6.360   2.682   2.782 -1.0558  0.3370 -0.1264
 6848TIP3   OH242034   6.523   1.888  13.500  0.2331 -0.1526  0.5367
 6848TIP3    H142035   6.558   1.976  13.487 -0.6078  0.4155  2.0135
 6848TIP3    H242036   6.514   1.879  13.595 -2.4578 -0.7118  0.2896
 6849TIP3   OH242037   0.037   6.409   6.096 -0.0927 -0.2908  0.1858
 6849TIP3    H142038   0.075   6.369   6.174 -1.2678 -1.2504  0.2995
 6849TIP3    H242039  -0.050   6.437   6.124  0.6903  2.3411  0.0847
 6850TIP3   OH242040   6.026   6.554  14.586  0.1009 -0.4454 -0.1926
 6850TIP3    H142041   6.016   6.623  14.652 -1.8085  0.4987 -1.3849
 6850TIP3    H242042   5.951   6.567  14.528  0.7077 -2.4383 -1.4631
 6851TIP3   OH242043   6.677   5.510   2.454 -0.0011 -0.3255 -0.2975
 6851TIP3    H142044   6.604   5.450   2.439  0.5094 -1.2404  0.8126
 6851TIP3    H242045   6.727   5.507   2.372 -1.6482  0.9714 -1.3910
 6852TIP3   OH242046   3.011   0.085  16.430 -0.2110  0.1005 -0.1546
 6852TIP3    H142047   3.085   0.035  16.394 -1.3987 -1.1353 -0.9109
 6852TIP3    H242048   3.040   0.176  16.426  0.9626 -0.3005 -1.1861
 6853TIP3   OH242049   6.362   6.654   0.197  0.1480 -0.1671 -0.0017
 6853TIP3    H142050   6.353   6.587   0.265 -0.4111  0.4163  0.5036
 6853TIP3    H242051   6.297   6.720   0.220  1.3519  1.0266  0.0638
 6854TIP3   OH242052   0.338   5.060   5.887 -0.3060 -0.0629  0.2341
 6854TIP3    H142053   0.312   5.026   5.801 -0.2662  0.1585  0.1329
 6854TIP3    H242054   0.421   5.105   5.870 -2.1608  3.3218 -0.3747
 6855TIP3   OH242055   5.014   4.444   1.951 -0.2288 -0.2487  0.7699
 6855TIP3    H142056   5.101   4.471   1.980 -0.3361  0.1056  0.7650
 6855TIP3    H242057   5.030   4.373   1.889  0.2326  1.9301 -1.6925
 6856TIP3   OH242058   5.912   0.581   5.963 -0.1648 -0.1855 -0.3921
 6856TIP3    H142059   5.995   0.606   6.005 -0.0759 -0.5724 -0.3401
 6856TIP3    H242060   5.846   0.589   6.032 -0.5639  2.4364 -1.0257
 6857TIP3   OH242061   0.168   3.632  13.324  0.2214 -0.4921  0.6336
 6857TIP3    H142062   0.186   3.539  13.310 -1.7974 -0.7073 -0.8008
 6857TIP3    H242063   0.165   3.669  13.236  1.7791  1.1012  1.2358
 6858TIP3   OH242064   5.239   1.303  15.800  0.2873 -0.1953 -0.0014
 6858TIP3    H142065   5.233   1.325  15.893  0.0267  0.7142 -0.2263
 6858TIP3    H242066   5.151   1.319  15.766  0.1502 -1.3975 -0.2238
 6859TIP3   OH242067   6.670   4.665  15.991  0.1418 -0.3254  0.6151
 6859TIP3    H142068   6.737   4.708  16.044  0.8815  0.0661 -0.6251
 6859TIP3    H242069   6.709   4.658  15.904 -0.6659 -1.8860  0.3647
 6860TIP3   OH242070   0.937   0.253  13.025 -0.3727  0.5819  0.3339
 6860TIP3    H142071   0.892   0.338  13.023  0.5342  1.0962  1.1044
 6860TIP3    H242072   0.894   0.206  13.097 -0.7045  0.4816  0.0721
 6861TIP3   OH242073   2.401   0.158   4.004 -0.4985  0.2964 -0.3757
 6861TIP3    H142074   2.332   0.103   3.968  0.0429 -2.9108  3.2282
 6861TIP3    H242075   2.355   0.231   4.045 -1.8615 -1.6850  1.7642
 6862TIP3   OH242076   0.597   6.304   4.186 -0.2166 -0.1452 -0.0703
 6862TIP3    H142077   0.625   6.348   4.266  0.4527 -1.2690  0.3173
 6862TIP3    H242078   0.665   6.239   4.169  0.7225  1.3917 -2.6461
 6863TIP3   OH242079   3.385   1.045   6.217  0.0231  0.3062 -0.0921
 6863TIP3    H142080   3.366   0.998   6.299  2.1659  1.1088  0.8806
 6863TIP3    H242081   3.439   0.984   6.167 -2.2450 -0.6510 -1.4467
 6864TIP3   OH242082   3.798   4.920  16.510  0.1002 -0.7080  0.2462
 6864TIP3    H142083   3.773   4.971  16.588 -1.3761 -0.3217 -0.4591
 6864TIP3    H242084   3.845   4.983  16.455  0.4712 -0.7804  0.4751
 6865TIP3   OH242085   2.767   4.879   2.399 -0.2590  0.0761  0.0042
 6865TIP3    H142086   2.699   4.906   2.461  0.5460  0.0148  0.9092
 6865TIP3    H242087   2.805   4.962   2.369 -0.9733  0.1297 -0.7927
 6866TIP3   OH242088   0.171   0.235  14.837  0.0710  0.3715  0.5381
 6866TIP3    H142089   0.156   0.233  14.931  1.3928 -0.5737  0.7561
 6866TIP3    H242090   0.245   0.175  14.824 -0.9074 -0.4910 -1.2465
 6867TIP3   OH242091   3.465   3.002   2.361 -0.3091 -1.2832 -0.2273
 6867TIP3    H142092   3.441   3.024   2.451  0.8756  0.5233 -0.3066
 6867TIP3    H242093   3.402   2.936   2.334 -1.0645 -1.3864  1.7174
 6868TIP3   OH242094   2.092   6.668  14.878  0.6058 -0.0758  0.5219
 6868TIP3    H142095   2.107   6.736  14.812  0.4497  0.5610  1.1266
 6868TIP3    H242096   2.157   6.687  14.946  1.5635 -1.4436  0.0075
 6869TIP3   OH242097   1.650   3.576   3.248  0.3519 -0.3010  0.0066
 6869TIP3    H142098   1.700   3.599   3.327  0.8831 -0.0268 -0.4104
 6869TIP3    H242099   1.713   3.531   3.192  0.3090  0.6596 -0.8138
 6870TIP3   OH242100   5.342   1.145   1.981  0.1207 -0.0575 -0.4354
 6870TIP3    H142101   5.369   1.053   1.979  0.9703  0.2032 -1.3539
 6870TIP3    H242102   5.401   1.189   1.920  0.0143  1.1760  0.3182
 6871TIP3   OH242103   3.447   2.389   3.188 -0.5288  0.1764 -0.2571
 6871TIP3    H142104   3.351   2.384   3.196 -0.4799 -1.2079 -0.4692
 6871TIP3    H242105   3.480   2.324   3.250  0.2363 -0.1903 -1.0333
 6872TIP3   OH242106   3.161   5.564  14.366  0.2128  0.1561  0.1649
 6872TIP3    H142107   3.165   5.659  14.373 -0.4829  0.1898  0.2154
 6872TIP3    H242108   3.132   5.535  14.453 -1.2692  0.0325 -0.3445
 6873TIP3   OH242109   2.963   1.078   3.753 -0.4471  0.1467  0.0555
 6873TIP3    H142110   3.058   1.070   3.762 -0.6797 -2.2813  0.6480
 6873TIP3    H242111   2.951   1.150   3.691  1.8635 -1.2061 -2.0560
 6874TIP3   OH242112   6.038   2.822  16.901  0.2031  0.2877  0.3651
 6874TIP3    H142113   6.080   2.883  16.841  0.2795  0.0455  0.1709
 6874TIP3    H242114   5.972   2.778  16.848 -0.3182  0.6872  0.6718
 6875TIP3   OH242115   5.810   2.736  15.161  0.1468 -1.0160  0.2230
 6875TIP3    H142116   5.877   2.798  15.131 -0.5094  0.6424  2.0524
 6875TIP3    H242117   5.860   2.660  15.192  0.9423 -1.6596 -2.5014
 6876TIP3   OH242118   4.061   4.124   4.181  0.3552  0.1227 -0.3676
 6876TIP3    H142119   4.109   4.171   4.250  0.2919 -0.8897  0.3845
 6876TIP3    H242120   4.112   4.140   4.102  1.1383  0.2484  0.1496
 6877TIP3   OH242121   3.544   2.548   4.190 -0.2014 -0.1567  0.8145
 6877TIP3    H142122   3.634   2.546   4.225  0.6728 -1.6805 -1.4209
 6877TIP3    H242123   3.500   2.476   4.233 -0.5795  1.0219  2.4411
 6878TIP3   OH242124   0.501   6.108  16.057  0.2874  0.3842  0.0011
 6878TIP3    H142125   0.537   6.109  16.146 -0.2155  0.8097  0.2005
 6878TIP3    H242126   0.503   6.016  16.032 -0.0442  0.1961  0.6477
 6879TIP3   OH242127   4.431   4.289  16.847 -0.0903 -0.7809  0.0554
 6879TIP3    H142128   4.410   4.227  16.777  1.1253  0.5977 -1.5507
 6879TIP3    H242129   4.346   4.311  16.886 -0.6031 -2.9932  0.3056
 6880TIP3   OH242130   5.780   4.963   4.025 -0.0155 -0.2320 -0.4453
 6880TIP3    H142131   5.772   4.939   4.117 -1.7614 -1.9583 -1.0173
 6880TIP3    H242132   5.863   5.011   4.019 -0.4023  0.8372  2.2019
 6881TIP3   OH242133   1.299   4.796   0.202 -0.5787  0.1876 -0.7975
 6881TIP3    H142134   1.353   4.861   0.247 -0.2720 -1.1171  0.7785
 6881TIP3    H242135   1.209   4.825   0.216 -0.4478  0.2085  0.0137
 6882TIP3   OH242136   3.854   4.557   0.937  0.7307  0.5635 -0.0940
 6882TIP3    H142137   3.797   4.629   0.963  0.2839  0.0726  0.3189
 6882TIP3    H242138   3.808   4.478   0.967 -0.5181 -0.1486 -3.6763
 6883TIP3   OH242139   2.689   5.353  15.032  0.2821  0.6437  0.0405
 6883TIP3    H142140   2.728   5.305  15.105  0.1913  0.4715 -0.0235
 6883TIP3    H242141   2.659   5.435  15.071 -0.8344  0.0538  0.4551
 6884TIP3   OH242142   2.407   2.469  16.517 -0.0072 -0.1741  0.3424
 6884TIP3    H142143   2.487   2.519  16.534 -0.5617  0.3009  1.6268
 6884TIP3    H242144   2.358   2.474  16.600 -1.1980 -0.7545 -0.3227
 6885TIP3   OH242145   2.413   3.579  12.865 -0.5047  0.2934 -0.3604
 6885TIP3    H142146   2.465   3.499  12.876 -2.4180 -0.9689 -0.2157
 6885TIP3    H242147   2.359   3.584  12.944  1.7374  3.4323  1.0883
 6886TIP3   OH242148   5.180   2.909   0.793 -0.2448  0.2949 -0.0397
 6886TIP3    H142149   5.145   2.979   0.848  0.4643  0.5467  0.0945
 6886TIP3    H242150   5.219   2.847   0.855 -0.8099 -0.1950 -0.1614
 6887TIP3   OH242151   2.352   3.661  12.112 -0.1781  0.3011 -0.0889
 6887TIP3    H142152   2.317   3.737  12.065 -0.6522  0.4113  0.4478
 6887TIP3    H242153   2.443   3.655  12.083 -0.9988 -0.8379 -2.5833
 6888TIP3   OH242154   2.077   0.720  14.502 -0.5274  0.5940  0.5272
 6888TIP3    H142155   2.033   0.755  14.425 -0.0139 -0.1516 -0.1113
 6888TIP3    H242156   2.073   0.791  14.566  0.5615  1.8626 -0.7713
 6889TIP3   OH242157   3.593   3.644   2.807  0.2176 -0.3283  0.5091
 6889TIP3    H142158   3.675   3.595   2.811 -0.7804 -2.0172  0.5297
 6889TIP3    H242159   3.556   3.622   2.721  0.9653  2.3629 -0.5402
 6890TIP3   OH242160   2.439   3.619   2.175  0.4795  0.5058  0.2230
 6890TIP3    H142161   2.490   3.546   2.210  1.4320  1.0206 -0.0728
 6890TIP3    H242162   2.349   3.601   2.202  0.8959 -0.1522  1.1878
 6891TIP3   OH242163   1.142   3.266  17.160  0.0378  0.0401  0.1002
 6891TIP3    H142164   1.179   3.180  17.178  0.1276  0.1606  0.5128
 6891TIP3    H242165   1.048   3.250  17.148 -0.3129  0.1700  2.4201
 6892TIP3   OH242166   3.865   0.313   2.995 -0.1157 -0.3835  0.6251
 6892TIP3    H142167   3.955   0.323   3.024  0.3280 -0.0715 -0.7917
 6892TIP3    H242168   3.813   0.315   3.075  1.0903 -0.0725  1.4102
 6893TIP3   OH242169   0.568   1.649  14.517 -0.2940  1.0389  0.0617
 6893TIP3    H142170   0.542   1.579  14.457  1.1641  1.2812 -0.8873
 6893TIP3    H242171   0.583   1.604  14.601 -2.7409  0.7581  0.4065
 6894TIP3   OH242172   6.592   4.339  16.736  0.0604 -0.5463 -0.1800
 6894TIP3    H142173   6.625   4.257  16.771  1.0159  0.3325  1.0400
 6894TIP3    H242174   6.670   4.396  16.732 -0.6892  0.4695 -0.4664
 6895TIP3   OH242175   5.171   4.160   3.615  0.2634  0.3749  0.0164
 6895TIP3    H142176   5.221   4.085   3.583  0.3514 -0.0545  1.1380
 6895TIP3    H242177   5.236   4.229   3.628 -0.1245  1.4249 -3.2298
 6896TIP3   OH242178   2.430   6.300  17.290 -0.4454 -0.9521 -0.1165
 6896TIP3    H142179   2.410   6.378  17.238 -2.4698  0.9285  3.2784
 6896TIP3    H242180   2.346   6.253  17.295 -0.2084 -1.2438  1.1801
 6897TIP3   OH242181   0.286   5.518   0.025  0.4474  0.3365 -0.9105
 6897TIP3    H142182   0.342   5.596   0.029  3.2361 -1.6244 -0.5639
 6897TIP3    H242183   0.277   5.501  -0.069 -0.8752  1.5558 -1.0114
 6898TIP3   OH242184   6.581   5.550  16.297  0.4007  0.6142 -0.2272
 6898TIP3    H142185   6.492   5.581  16.313 -0.5378 -2.1245  0.1784
 6898TIP3    H242186   6.633   5.586  16.368 -0.5862  1.4092  0.1007
 6899TIP3   OH242187   4.626   5.295   3.121  0.3596  0.0741  0.2767
 6899TIP3    H142188   4.654   5.367   3.066 -1.1928  0.8287  0.4322
 6899TIP3    H242189   4.644   5.216   3.069  0.2367  0.6942 -0.7204
 6900TIP3   OH242190   1.780   2.618  13.844 -0.0618  0.2105 -0.4681
 6900TIP3    H142191   1.726   2.540  13.838 -1.1766  0.9545 -0.2405
 6900TIP3    H242192   1.718   2.690  13.858  1.0155  0.9851  0.5155
 6901TIP3   OH242193   0.092   1.028  13.416 -0.4092 -0.1804 -0.5442
 6901TIP3    H142194   0.185   1.047  13.426 -0.7076  0.4263  1.2896
 6901TIP3    H242195   0.088   0.934  13.402  0.4618 -0.2726 -0.2079
 6902TIP3   OH242196   1.837   1.889   1.034  0.0419 -0.3235  0.2388
 6902TIP3    H142197   1.842   1.886   1.129 -0.2112  0.8105  0.3017
 6902TIP3    H242198   1.773   1.959   1.016 -1.3170 -1.7800 -0.7303
 6903TIP3   OH242199   1.574   4.428   0.334  0.1123  0.0117  0.0848
 6903TIP3    H142200   1.497   4.384   0.298 -0.7193  0.4260  1.3467
 6903TIP3    H242201   1.628   4.358   0.370  0.5691 -0.3270 -1.2182
 6904TIP3   OH242202   3.988   1.307   1.836 -0.3853 -0.5484  0.7455
 6904TIP3    H142203   4.076   1.272   1.825  0.0780  1.1440 -1.2896
 6904TIP3    H242204   3.933   1.230   1.853  1.0619 -1.9331 -0.6617
 6905TIP3   OH242205   6.103   6.519   5.131 -0.4640 -0.0057 -0.1020
 6905TIP3    H142206   6.055   6.440   5.154 -1.5884  0.3483 -1.1903
 6905TIP3    H242207   6.188   6.509   5.175 -1.2373 -0.9884  1.2028
 6906TIP3   OH242208   0.777   5.363  13.875 -0.8204 -0.5176  0.2603
 6906TIP3    H142209   0.846   5.429  13.871 -0.0556 -1.3692 -0.7457
 6906TIP3    H242210   0.703   5.409  13.915 -1.2075  1.7677 -2.8371
 6907TIP3   OH242211   6.804   5.446  10.639 -0.1113 -0.0154  0.0677
 6907TIP3    H142212   6.831   5.525  10.686 -0.8324  0.9887 -1.1545
 6907TIP3    H242213   6.722   5.471  10.595  0.2832 -1.0644 -1.3103
 6908TIP3   OH242214   1.231   5.694   2.897  0.3153  0.3258  0.3448
 6908TIP3    H142215   1.304   5.755   2.901  0.5526  0.1945 -1.7197
 6908TIP3    H242216   1.169   5.733   2.836 -1.3250  0.3851  2.0028
 6909TIP3   OH242217   4.694   3.943   0.778  0.1421  0.0898 -0.9875
 6909TIP3    H142218   4.632   3.979   0.842  1.3911  1.2362 -0.4162
 6909TIP3    H242219   4.735   3.870   0.824 -1.6688 -1.4784 -1.8021
 6910TIP3   OH242220   1.651   3.224   5.080  0.4811 -0.0418  0.4424
 6910TIP3    H142221   1.675   3.131   5.090 -0.9332 -0.3936  0.6393
 6910TIP3    H242222   1.690   3.267   5.156 -0.0266 -0.7124  1.0956
 6911TIP3   OH242223   2.081   5.364   1.026 -0.4365 -0.2477  0.1182
 6911TIP3    H142224   2.073   5.338   1.117 -3.1626 -0.9197 -0.2745
 6911TIP3    H242225   1.997   5.405   1.004  1.3167  2.8885 -1.2063
 6912TIP3   OH242226   5.532   1.168  12.964  0.3575 -0.1318 -0.2868
 6912TIP3    H142227   5.581   1.175  12.882  0.7115 -0.4995 -0.1037
 6912TIP3    H242228   5.563   1.087  13.004 -0.3862 -0.3546 -0.1591
 6913TIP3   OH242229   3.245   0.713  15.075 -0.0429 -0.3068 -0.1195
 6913TIP3    H142230   3.192   0.639  15.046 -1.6854  0.5061  0.7890
 6913TIP3    H242231   3.272   0.690  15.163  2.3415 -1.3561 -1.0778
 6914TIP3   OH242232   5.291   5.843  15.394  0.5529 -0.8900  0.1418
 6914TIP3    H142233   5.300   5.788  15.316  0.6654 -0.5737 -0.0674
 6914TIP3    H242234   5.214   5.898  15.376  2.5320  1.5746 -1.2175
 6915TIP3   OH242235   2.861   3.543   2.980  0.6972  0.3688  0.6046
 6915TIP3    H142236   2.837   3.601   2.908  1.0909  1.2869  1.2013
 6915TIP3    H242237   2.951   3.568   3.002  0.0121  1.2332  2.4906
 6916TIP3   OH242238   6.757   0.729   4.902 -0.0397  0.5134 -0.4654
 6916TIP3    H142239   6.712   0.672   4.839  1.1806  2.2403 -3.0114
 6916TIP3    H242240   6.714   0.712   4.985 -2.4430 -1.1076 -1.9805
 6917TIP3   OH242241   3.070   4.372   3.660  0.0705  0.3879  0.0441
 6917TIP3    H142242   3.098   4.389   3.571  0.6859  0.4412  0.2482
 6917TIP3    H242243   3.074   4.457   3.704  2.2505 -0.0910  0.8124
 6918TIP3   OH242244   4.789   2.038   6.242  0.2968  0.0392  0.7130
 6918TIP3    H142245   4.725   2.058   6.174  0.1317 -0.0135  0.8499
 6918TIP3    H242246   4.853   2.109   6.238 -0.9109  1.2335  1.9598
 6919TIP3   OH242247   6.597   6.706   2.912  0.0414  0.0021  0.2329
 6919TIP3    H142248   6.517   6.660   2.938  0.3014 -0.9576 -0.6414
 6919TIP3    H242249   6.664   6.672   2.971  0.6673 -2.3036 -1.7450
 6920TIP3   OH242250   5.597   2.958   1.912 -0.0468  0.4183 -0.9338
 6920TIP3    H142251   5.611   2.924   1.823 -1.7818 -0.0178 -1.0454
 6920TIP3    H242252   5.533   2.899   1.951  0.3375  0.8961  0.4629
 6921TIP3   OH242253   0.691   5.772  13.659 -0.5971  0.6539 -0.5183
 6921TIP3    H142254   0.598   5.775  13.684 -0.8507 -0.7336 -1.2230
 6921TIP3    H242255   0.735   5.826  13.724 -1.8290  0.8492  0.1791
 6922TIP3   OH242256   1.696   5.829  15.862 -0.0901 -0.0549  0.1740
 6922TIP3    H142257   1.703   5.737  15.836 -0.0512 -0.5605  1.9111
 6922TIP3    H242258   1.603   5.842  15.880  0.2918 -0.6163  2.8526
 6923TIP3   OH242259   3.767   6.169   2.982  0.1808 -0.2051  0.0075
 6923TIP3    H142260   3.846   6.216   2.955  0.0390  0.2388  0.3738
 6923TIP3    H242261   3.758   6.187   3.075 -0.8702  0.5098 -0.2205
 6924TIP3   OH242262   6.413   5.775  12.759  0.3815 -0.0389  0.3938
 6924TIP3    H142263   6.507   5.792  12.768  0.3113  0.5277  0.0891
 6924TIP3    H242264   6.371   5.845  12.809  0.1247 -0.6032  0.9916
 6925TIP3   OH242265   4.750   0.018   0.360  0.7508  0.6269  0.5553
 6925TIP3    H142266   4.715   0.080   0.424 -0.8885  0.1313  0.1725
 6925TIP3    H242267   4.842   0.041   0.351  0.4240  2.2526  1.2877
 6926TIP3   OH242268   3.662   1.692  14.600  0.5051 -0.2116  0.4866
 6926TIP3    H142269   3.615   1.610  14.617  0.9646 -0.6083 -0.0951
 6926TIP3    H242270   3.743   1.664  14.557  0.9923  0.5046  0.9278
 6927TIP3   OH242271   6.716   5.801   6.219 -0.3241  0.1940  1.3655
 6927TIP3    H142272   6.761   5.884   6.233 -1.0144  0.6021  1.1946
 6927TIP3    H242273   6.625   5.826   6.204 -0.6907 -0.6522  2.1679
 6928TIP3   OH242274   2.097   6.635   1.654  0.0405  0.5151 -0.0425
 6928TIP3    H142275   2.153   6.712   1.642  0.2312  0.4880  0.6482
 6928TIP3    H242276   2.008   6.669   1.647  0.0065  1.5230  4.0787
 6929TIP3   OH242277   2.000   1.436  12.839 -0.0640 -0.4939  0.5180
 6929TIP3    H142278   1.953   1.459  12.919 -1.9994  1.9120 -1.2401
 6929TIP3    H242279   2.060   1.510  12.824 -1.2625  0.1378 -1.3725
 6930TIP3   OH242280   4.897   0.137   3.911 -0.4734  0.0965 -0.0382
 6930TIP3    H142281   4.928   0.061   3.862 -0.5907 -0.3141  0.5136
 6930TIP3    H242282   4.930   0.213   3.862  0.1492 -0.3178 -0.2659
 6931TIP3   OH242283   1.221   3.141   0.221  0.2064  0.1797  0.1500
 6931TIP3    H142284   1.139   3.154   0.174  0.1553  0.5995  0.3589
 6931TIP3    H242285   1.213   3.053   0.259 -0.5397  0.5899  0.9599
 6932TIP3   OH242286   1.232   1.356   4.135  0.4446 -0.8257 -0.0848
 6932TIP3    H142287   1.279   1.357   4.218 -0.5124 -2.0917  0.4878
 6932TIP3    H242288   1.140   1.362   4.160  0.2066  0.0603 -1.1238
 6933TIP3   OH242289   3.161   2.243  12.898  0.5615  0.9903  0.3404
 6933TIP3    H142290   3.221   2.275  12.966  0.7597  1.1895  0.0739
 6933TIP3    H242291   3.218   2.216  12.826  0.3492  0.8281  0.2300
 6934TIP3   OH242292   6.484   1.256  13.652 -0.6775  0.0605 -0.5749
 6934TIP3    H142293   6.429   1.189  13.613 -1.7886  0.7659 -0.2306
 6934TIP3    H242294   6.573   1.234  13.623 -0.9399 -1.9081  0.0382
 6935TIP3   OH242295   1.873   2.061  15.746 -0.0658 -0.2266 -0.2806
 6935TIP3    H142296   1.791   2.048  15.698 -0.3614  1.3176 -0.2233
 6935TIP3    H242297   1.863   2.006  15.824 -0.1985 -1.6018 -1.2576
 6936TIP3   OH242298   5.174   5.025   4.083  0.4845  0.3146  0.2037
 6936TIP3    H142299   5.097   4.971   4.100  0.2343  0.0077 -1.8562
 6936TIP3    H242300   5.155   5.109   4.126 -0.6356 -0.0260  0.3769
 6937TIP3   OH242301   6.323   1.551  11.315 -0.6989 -0.5772  0.0470
 6937TIP3    H142302   6.229   1.566  11.327 -0.9354 -1.7832 -0.2357
 6937TIP3    H242303   6.359   1.552  11.403 -0.9042  0.3009  0.1282
 6938TIP3   OH242304   0.176   2.429   2.024  0.6020  0.1237 -0.7938
 6938TIP3    H142305   0.128   2.493   1.971 -0.3786 -1.2165 -1.5538
 6938TIP3    H242306   0.125   2.422   2.105  2.4778  2.6896  0.6711
 6939TIP3   OH242307   1.701   4.206   6.574 -0.2195  0.0716 -0.1553
 6939TIP3    H142308   1.765   4.240   6.637 -0.7236 -1.6759  1.3401
 6939TIP3    H242309   1.623   4.188   6.627 -1.9173  1.9820 -1.9164
 6940TIP3   OH242310   4.889   0.943   0.396  0.2347  0.0514  0.4719
 6940TIP3    H142311   4.820   0.880   0.375 -0.2115  0.4412  0.7400
 6940TIP3    H242312   4.842   1.026   0.409  0.8104  0.4363  0.1333
 6941TIP3   OH242313   2.519   1.457  16.599 -0.0939  0.2661 -0.5411
 6941TIP3    H142314   2.547   1.538  16.556 -2.4306  0.5210 -1.6428
 6941TIP3    H242315   2.442   1.429  16.549  0.8483 -2.8010 -0.3593
 6942TIP3   OH242316   2.181   4.972  16.506  0.2710 -0.2084  0.2459
 6942TIP3    H142317   2.155   4.913  16.436 -0.4980 -1.0377  1.2068
 6942TIP3    H242318   2.212   5.051  16.461 -2.0669  0.0519 -1.0095
 6943TIP3   OH242319   3.809   6.008  14.196  0.1962  0.5177 -0.2112
 6943TIP3    H142320   3.778   5.964  14.116 -2.3517  1.7802  0.0232
 6943TIP3    H242321   3.829   6.097  14.167 -1.5586  1.2237  0.7021
 6944TIP3   OH242322   6.418   2.702  15.556  0.0209  0.0069 -0.0914
 6944TIP3    H142323   6.448   2.737  15.640  0.1061  0.2094 -0.2073
 6944TIP3    H242324   6.366   2.625  15.580  0.6531 -0.3619  0.1068
 6945TIP3   OH242325   5.793   5.934  11.745  0.0069 -0.0634 -0.1564
 6945TIP3    H142326   5.852   5.998  11.705 -0.5862  0.7096  0.2030
 6945TIP3    H242327   5.715   5.937  11.691 -1.0370  1.4223  1.3628
 6946TIP3   OH242328   3.155   3.682   3.082 -0.0987  0.5782  0.3832
 6946TIP3    H142329   3.243   3.677   3.046 -1.3532 -0.8902 -2.6659
 6946TIP3    H242330   3.122   3.767   3.053 -0.4056  0.2411 -0.2679
 6947TIP3   OH242331   6.598   2.393  15.084 -0.1334  0.1539  0.2813
 6947TIP3    H142332   6.567   2.479  15.110 -0.9229  0.1669 -0.6952
 6947TIP3    H242333   6.574   2.385  14.992  0.0130 -1.0683  0.3410
 6948TIP3   OH242334   4.363   0.113   5.070  0.3830 -0.7025  0.1968
 6948TIP3    H142335   4.312   0.052   5.016  1.4715  0.5047 -2.2654
 6948TIP3    H242336   4.305   0.188   5.083  0.7051 -0.2943 -0.6961
 6949TIP3   OH242337   4.894   5.057  11.441 -0.4191 -0.7568  0.3130
 6949TIP3    H142338   4.856   5.014  11.517  0.6973 -1.5298  0.4427
 6949TIP3    H242339   4.830   5.044  11.371 -0.7278 -1.3932  0.7129
 6950TIP3   OH242340   0.918   3.371  16.117 -0.3834  0.0908 -0.2777
 6950TIP3    H142341   0.823   3.359  16.117 -0.5234  1.1221 -1.1352
 6950TIP3    H242342   0.934   3.433  16.187 -0.1891 -1.1065  0.7577
 6951TIP3   OH242343   4.023   3.315  12.788 -0.1391 -0.5139 -0.1764
 6951TIP3    H142344   3.970   3.390  12.815  1.0233 -0.2536  1.4710
 6951TIP3    H242345   3.996   3.298  12.698 -0.6765  1.6657 -0.4614
 6952TIP3   OH242346   2.493   2.914   4.994 -0.1554  0.3542  0.2093
 6952TIP3    H142347   2.477   2.822   5.014  1.1606  0.3184  1.1571
 6952TIP3    H242348   2.514   2.915   4.901  0.1836 -0.3488  0.2758
 6953TIP3   OH242349   3.509   5.918  16.628 -0.0948  0.7649 -0.6480
 6953TIP3    H142350   3.549   5.835  16.653  0.9104  1.6832  0.8610
 6953TIP3    H242351   3.502   5.968  16.710 -1.8200  1.7024 -1.3164
 6954TIP3   OH242352   1.716   4.773   1.239  0.3584 -0.1143 -0.1277
 6954TIP3    H142353   1.703   4.684   1.270 -1.1297  0.3040  0.4953
 6954TIP3    H242354   1.775   4.813   1.303 -0.6746 -0.0205  0.7747
 6955TIP3   OH242355   1.439   5.817   2.704  0.1891  0.1239  0.0695
 6955TIP3    H142356   1.455   5.835   2.612  1.1643  0.1126  0.2338
 6955TIP3    H242357   1.482   5.889   2.751  0.7683 -0.5441  0.5658
 6956TIP3   OH242358   6.522   5.648   0.206  0.3087  0.4888 -0.6493
 6956TIP3    H142359   6.579   5.715   0.170  0.7772  0.8630  0.7794
 6956TIP3    H242360   6.435   5.689   0.209  0.7045  1.2589  0.7847
 6957TIP3   OH242361   5.894   1.041   3.302 -0.4634 -0.6510 -0.2631
 6957TIP3    H142362   5.860   1.085   3.380 -1.0689 -0.8278 -0.4217
 6957TIP3    H242363   5.988   1.032   3.318 -0.3550  0.5468 -0.1552
 6958TIP3   OH242364   1.953   5.341   6.717  0.1191 -0.0480  0.3044
 6958TIP3    H142365   2.004   5.372   6.792 -0.3015 -1.8533  1.3662
 6958TIP3    H242366   1.869   5.386   6.725  0.8348  1.4407 -0.3481
 6959TIP3   OH242367   5.156   1.071   1.204  0.2078  0.0566  0.7292
 6959TIP3    H142368   5.145   1.074   1.109 -2.0022  2.4066  1.0021
 6959TIP3    H242369   5.143   0.979   1.227  1.1592 -0.6081 -1.2526
 6960TIP3   OH242370   1.607   4.574  16.550  0.0023  0.0246 -0.0750
 6960TIP3    H142371   1.633   4.634  16.480  1.9268 -0.1406  0.4868
 6960TIP3    H242372   1.653   4.492  16.530 -1.4801 -0.8351 -0.0414
 6961TIP3   OH242373   2.093   3.698   0.684  0.3711 -0.2593  0.2842
 6961TIP3    H142374   2.036   3.751   0.627  0.0817  0.7692  1.4913
 6961TIP3    H242375   2.032   3.649   0.739  0.6480 -1.4415 -0.4511
 6962TIP3   OH242376   3.963   0.101   4.889  0.3925  0.2457 -0.1518
 6962TIP3    H142377   4.001   0.089   4.976 -0.0761 -0.4717 -0.0455
 6962TIP3    H242378   3.871   0.078   4.899  0.5715 -0.9040 -1.0842
 6963TIP3   OH242379   2.636   1.398   2.130 -0.4566 -0.6582  0.0903
 6963TIP3    H142380   2.643   1.473   2.070 -2.6878 -0.3349  0.1880
 6963TIP3    H242381   2.633   1.437   2.217 -0.6083 -0.9191  0.2027
 6964TIP3   OH242382   0.580   3.078   4.897 -0.5456  0.2213  0.1263
 6964TIP3    H142383   0.491   3.100   4.923 -0.2199 -0.0331  1.5040
 6964TIP3    H242384   0.571   2.995   4.849 -1.1131  0.4995 -0.2481
 6965TIP3   OH242385   1.796   0.990  16.938  0.2638  0.5246 -0.3812
 6965TIP3    H142386   1.812   1.042  17.018  2.3664 -0.8328  0.1271
 6965TIP3    H242387   1.751   0.912  16.970 -1.4537  1.2817 -0.9264
 6966TIP3   OH242388   4.593   3.840   0.157  0.5198  0.1190 -0.1157
 6966TIP3    H142389   4.637   3.877   0.234  1.7815  1.2839 -1.3761
 6966TIP3    H242390   4.517   3.896   0.143  0.1316 -0.2614  0.4307
 6967TIP3   OH242391   0.171   4.181  14.200 -0.0590  0.0048 -0.1097
 6967TIP3    H142392   0.234   4.109  14.198  1.2381  1.1348 -0.4326
 6967TIP3    H242393   0.106   4.157  14.134  1.1995 -0.1329 -1.3275
 6968TIP3   OH242394   6.626   2.288  15.421  0.3125 -0.0051 -0.2495
 6968TIP3    H142395   6.660   2.219  15.364  0.4624 -0.1355 -0.0019
 6968TIP3    H242396   6.704   2.335  15.450  0.2799 -0.2629  0.2659
 6969TIP3   OH242397   5.387   1.239  14.589  0.4703 -0.1924  0.0967
 6969TIP3    H142398   5.356   1.159  14.632  0.0985  0.3239  0.7986
 6969TIP3    H242399   5.483   1.233  14.593  0.4935  0.8667  3.0008
 6970TIP3   OH242400   2.162   1.305   2.594 -0.7955  0.0770 -0.2401
 6970TIP3    H142401   2.229   1.245   2.626  1.3413  2.0034 -0.9319
 6970TIP3    H242402   2.146   1.364   2.668 -1.4486 -0.1176 -0.2210
 6971TIP3   OH242403   6.584   2.075   4.364  0.5301  0.4771 -0.0654
 6971TIP3    H142404   6.545   2.157   4.395 -0.5647  0.5322 -1.5641
 6971TIP3    H242405   6.633   2.099   4.286  3.0370  0.2714  1.3812
 6972TIP3   OH242406   6.513   1.637   3.646 -0.3714 -0.1724 -0.2469
 6972TIP3    H142407   6.557   1.575   3.586  2.3344  1.0457  0.3938
 6972TIP3    H242408   6.457   1.689   3.589  0.1407 -0.7914 -1.3500
 6973TIP3   OH242409   0.315   2.483   5.478 -0.6832 -0.3664  0.3744
 6973TIP3    H142410   0.377   2.493   5.406 -4.3235  1.7629 -2.5948
 6973TIP3    H242411   0.273   2.399   5.463  0.6770 -1.3583  1.8511
 6974TIP3   OH242412   1.617   0.956  12.820  0.0943 -0.0813  0.2347
 6974TIP3    H142413   1.593   0.892  12.753 -0.9269  0.7589 -0.2053
 6974TIP3    H242414   1.573   1.037  12.794 -1.9913 -0.2554  3.0236
 6975TIP3   OH242415   6.211   3.319   5.302 -0.2648  0.0276  0.3333
 6975TIP3    H142416   6.198   3.284   5.391 -0.8638 -0.5059  0.0407
 6975TIP3    H242417   6.295   3.283   5.274 -0.2330 -0.0735  0.5560
 6976TIP3   OH242418   0.351   3.062  10.842 -0.2817 -0.0626 -0.1128
 6976TIP3    H142419   0.398   3.023  10.915 -3.3050 -0.8544  1.4734
 6976TIP3    H242420   0.390   3.148  10.831  0.9280 -0.3612  1.7013
 6977TIP3   OH242421   4.326   0.597  10.468  0.2111 -0.0850 -0.0897
 6977TIP3    H142422   4.284   0.675  10.505  0.5621 -0.3960  0.9922
 6977TIP3    H242423   4.417   0.622  10.457 -0.2137  0.5516 -2.3346
 6978TIP3   OH242424   4.321   5.371  13.503 -0.5367 -0.3423  0.9227
 6978TIP3    H142425   4.401   5.372  13.450 -0.3805 -0.6073  1.1563
 6978TIP3    H242426   4.261   5.429  13.455 -0.0616  0.2013  0.9693
 6979TIP3   OH242427   0.715   5.367   1.697  0.2036  0.4366 -0.3208
 6979TIP3    H142428   0.629   5.328   1.684 -0.4832  2.0763 -0.8380
 6979TIP3    H242429   0.743   5.395   1.610 -0.2453  2.9079  0.2687
 6980TIP3   OH242430   5.614   3.606  12.504 -0.1777 -0.2141 -0.2243
 6980TIP3    H142431   5.533   3.657  12.515  0.1903  0.1007  1.0950
 6980TIP3    H242432   5.684   3.670  12.510  0.2562 -0.7684  0.6313
 6981TIP3   OH242433   0.537   0.401  16.080  0.3163 -0.4191 -0.6381
 6981TIP3    H142434   0.465   0.431  16.135  0.3280 -1.3306 -0.1284
 6981TIP3    H242435   0.549   0.309  16.103 -1.0119 -1.3972 -3.6046
 6982TIP3   OH242436   3.811   2.620  12.883  0.5478 -0.2982 -0.1984
 6982TIP3    H142437   3.838   2.533  12.912 -0.2398 -0.8959 -1.2282
 6982TIP3    H242438   3.831   2.621  12.789  0.0982  0.4605 -0.2867
 6983TIP3   OH242439   0.859   5.766   4.630 -1.0091  0.0694 -0.1243
 6983TIP3    H142440   0.933   5.705   4.639 -1.2612 -0.1016  0.8749
 6983TIP3    H242441   0.897   5.845   4.594 -0.2337  0.1638  0.8810
 6984TIP3   OH242442   5.129   3.562   0.268 -0.5499  0.3271 -0.3557
 6984TIP3    H142443   5.116   3.650   0.303  0.4264  0.7356 -1.0016
 6984TIP3    H242444   5.079   3.561   0.186 -1.3035 -0.0235  0.0997
 6985TIP3   OH242445   5.028   1.219  13.710  0.0463 -0.2205 -0.1506
 6985TIP3    H142446   5.056   1.139  13.666  1.2464  0.6277 -0.9753
 6985TIP3    H242447   4.933   1.217  13.704  0.0629 -1.5923 -0.1358
 6986TIP3   OH242448   4.318   6.234   5.419  0.2641 -0.1454  0.0085
 6986TIP3    H142449   4.380   6.223   5.491  0.6402  1.7519  0.0149
 6986TIP3    H242450   4.370   6.274   5.349 -0.9268  1.5545  0.0471
 6987TIP3   OH242451   0.622   4.834  11.847 -0.3763  0.2457  0.2114
 6987TIP3    H142452   0.621   4.831  11.751 -0.3945  0.4153  0.2056
 6987TIP3    H242453   0.534   4.806  11.873 -0.2888 -0.0563  0.1879
 6988TIP3   OH242454   6.497   6.666  11.371 -0.1117 -0.3757 -0.5189
 6988TIP3    H142455   6.473   6.670  11.279 -1.4495  0.2246 -0.1568
 6988TIP3    H242456   6.417   6.641  11.416  1.1132 -3.1034  0.2693
 6989TIP3   OH242457   2.822   3.698  16.950 -0.0884  0.2293 -0.1828
 6989TIP3    H142458   2.737   3.687  16.993  1.3735  1.3016  3.1059
 6989TIP3    H242459   2.879   3.733  17.018  3.0003 -0.4171 -2.3456
 6990TIP3   OH242460   0.803   0.549   5.813  0.0677 -0.4178 -0.6463
 6990TIP3    H142461   0.763   0.603   5.745 -2.7555 -1.2639  0.2783
 6990TIP3    H242462   0.781   0.459   5.789  0.4490 -0.8390  0.5032
 6991TIP3   OH242463   3.447   5.249  12.907 -0.3341 -0.3294 -0.6394
 6991TIP3    H142464   3.433   5.264  13.000  0.0828  0.7653 -0.7420
 6991TIP3    H242465   3.374   5.294  12.864 -0.2764 -0.4421 -0.8575
 6992TIP3   OH242466   4.947   2.244  16.696 -0.3409 -0.2124  0.6353
 6992TIP3    H142467   5.001   2.295  16.636  1.3734 -0.9041  1.5300
 6992TIP3    H242468   4.927   2.163  16.648 -0.3986 -0.0367  0.3678
 6993TIP3   OH242469   2.372   0.657   0.099 -0.2374  0.6266 -0.1779
 6993TIP3    H142470   2.340   0.747   0.109  0.6160  0.9712 -0.5230
 6993TIP3    H242471   2.425   0.659   0.019 -0.2171 -0.1868 -0.1915
 6994TIP3   OH242472   0.304   3.946   4.098  0.5811 -0.0841 -0.1772
 6994TIP3    H142473   0.348   3.881   4.044  1.1226 -0.0289  0.1889
 6994TIP3    H242474   0.326   4.030   4.056  2.1689  0.0700  0.9157
 6995TIP3   OH242475   6.351   4.120   2.239 -0.1706  0.2923 -0.1900
 6995TIP3    H142476   6.356   4.070   2.158  1.1897  1.0852 -0.6160
 6995TIP3    H242477   6.311   4.203   2.214 -1.3320 -0.1018  0.2926
 6996TIP3   OH242478   3.893   6.051   1.822 -0.5532 -0.3508  0.2628
 6996TIP3    H142479   3.907   6.145   1.833  1.2095 -0.8457  2.6246
 6996TIP3    H242480   3.980   6.016   1.802 -1.5936 -1.2223 -3.0195
 6997TIP3   OH242481   0.955   0.765  16.615  0.0210 -0.1516  0.2178
 6997TIP3    H142482   0.865   0.749  16.642 -0.6645 -1.7262 -2.8794
 6997TIP3    H242483   1.005   0.693  16.654 -0.1916  0.1411  1.0508
 6998TIP3   OH242484   4.544   6.344  15.934 -0.2325  0.0633  0.6085
 6998TIP3    H142485   4.518   6.435  15.921 -0.0638  0.2849  1.8161
 6998TIP3    H242486   4.519   6.301  15.852  1.0763  1.5034 -0.5836
 6999TIP3   OH242487   1.969   5.721  15.567 -0.5637  0.1090 -0.5887
 6999TIP3    H142488   1.904   5.677  15.512 -1.9047  0.8230  0.3985
 6999TIP3    H242489   1.943   5.813  15.565 -1.8358 -0.1159  2.8281
 7000TIP3   OH242490   4.742   4.731   4.373 -0.3623 -0.4069  0.1359
 7000TIP3    H142491   4.725   4.822   4.347  2.4501  0.2915  0.5127
 7000TIP3    H242492   4.788   4.694   4.298 -1.0566 -1.3784  0.1917
 7001TIP3   OH242493   3.950   0.879  15.910 -0.3530  0.4432 -0.3193
 7001TIP3    H142494   3.855   0.893  15.904 -0.7314 -2.5990 -2.3282
 7001TIP3    H242495   3.987   0.943  15.849 -1.2777  0.0933 -1.2637
 7002TIP3   OH242496   0.172   1.447  15.299  0.2456  0.1833 -0.3402
 7002TIP3    H142497   0.239   1.383  15.274 -1.4994 -1.3000 -1.3560
 7002TIP3    H242498   0.182   1.518  15.236  1.4131  0.3703  0.0445
 7003TIP3   OH242499   0.285   1.009  16.015  0.3935 -0.1829 -0.4179
 7003TIP3    H142500   0.374   1.043  16.017  0.4031 -0.1584 -1.0906
 7003TIP3    H242501   0.271   0.971  16.102  1.4177 -1.1424 -0.6683
 7004TIP3   OH242502   1.354   1.594   2.231 -0.0302 -0.3327  0.0609
 7004TIP3    H142503   1.446   1.582   2.254 -0.2145 -1.0648  0.4099
 7004TIP3    H242504   1.352   1.676   2.181  1.0839 -1.3236 -1.6307
 7005TIP3   OH242505   0.519   3.324  11.353 -0.1630  0.6862  0.2387
 7005TIP3    H142506   0.449   3.384  11.377 -0.5295  0.6813 -0.7616
 7005TIP3    H242507   0.593   3.348  11.408 -1.1182  0.3367  1.7055
 7006TIP3   OH242508   4.416   3.048   0.409 -0.2395  0.2873 -0.1184
 7006TIP3    H142509   4.456   3.048   0.322  1.9050 -0.3112  0.8477
 7006TIP3    H242510   4.326   3.080   0.394  0.1504  0.3391 -2.5082
 7007TIP3   OH242511   5.475   0.322  13.762 -0.1877  0.2267 -0.2481
 7007TIP3    H142512   5.508   0.238  13.795 -1.0415  0.2673  0.7170
 7007TIP3    H242513   5.386   0.328  13.796 -1.0561  0.3392 -2.4138
 7008TIP3   OH242514   2.367   2.369  16.841 -0.0295 -0.2921  0.3158
 7008TIP3    H142515   2.372   2.418  16.923 -1.1328  0.2768  0.0556
 7008TIP3    H242516   2.327   2.285  16.865  0.8735 -0.6538  0.5774
 7009TIP3   OH242517   5.530   5.066   2.477  0.7808 -0.8059  0.0107
 7009TIP3    H142518   5.481   5.141   2.444 -0.9277 -2.6517 -1.7957
 7009TIP3    H242519   5.490   5.047   2.562  0.6908 -0.1785  0.1106
 7010TIP3   OH242520   3.997   5.165   0.903 -0.9587  0.3121 -0.5834
 7010TIP3    H142521   3.950   5.198   0.979 -0.5397 -0.3298 -0.0363
 7010TIP3    H242522   4.048   5.240   0.871 -0.5318  0.3812  0.2443
 7011TIP3   OH242523   2.860   4.708   0.709  0.0911 -0.4279  0.8483
 7011TIP3    H142524   2.866   4.801   0.730  1.8234  0.0538 -1.6059
 7011TIP3    H242525   2.773   4.699   0.669 -0.0114  0.1828  0.9219
 7012TIP3   OH242526   2.773   6.757   1.081 -0.3234 -0.3808  0.7678
 7012TIP3    H142527   2.852   6.717   1.044  0.5950  2.4271 -0.4105
 7012TIP3    H242528   2.792   6.764   1.174  0.5403 -0.3487  0.5983
 7013TIP3   OH242529   2.073   2.275   1.799 -0.2238  0.0083  0.4788
 7013TIP3    H142530   2.015   2.254   1.872 -0.2749 -0.9004  0.1797
 7013TIP3    H242531   2.154   2.303   1.842 -0.2848 -0.4268  0.8947
 7014TIP3   OH242532   2.642   2.815  14.544 -0.0098  0.1571 -0.6210
 7014TIP3    H142533   2.562   2.865  14.563 -1.3145 -1.7103 -1.0633
 7014TIP3    H242534   2.663   2.838  14.454 -0.0712  0.6230 -0.5196
 7015TIP3   OH242535   4.375   0.441   1.832 -0.2921  0.0306 -0.0402
 7015TIP3    H142536   4.347   0.529   1.808 -1.1600 -0.7789 -2.1078
 7015TIP3    H242537   4.463   0.453   1.869 -0.6619  1.8226  0.2794
 7016TIP3   OH242538   4.984   0.543   1.835 -0.2371 -0.1832  0.0473
 7016TIP3    H142539   5.042   0.495   1.775 -0.5362 -0.1710 -0.2515
 7016TIP3    H242540   4.902   0.494   1.833 -0.7335  0.6575 -0.6929
 7017TIP3   OH242541   4.452   2.523   2.937 -0.3115 -0.2288  0.3833
 7017TIP3    H142542   4.420   2.563   3.018  0.7564 -3.8623  2.7109
 7017TIP3    H242543   4.547   2.535   2.941 -0.2038 -0.9203 -0.0596
 7018TIP3   OH242544   3.439   2.334   5.187 -0.3070  0.3397 -0.3024
 7018TIP3    H142545   3.397   2.264   5.236 -1.9128  1.3134 -0.2313
 7018TIP3    H242546   3.524   2.299   5.162 -0.2195 -0.8453  1.5580
 7019TIP3   OH242547   0.026   0.434  16.672 -0.2436 -0.3241  0.7409
 7019TIP3    H142548   0.034   0.452  16.766 -0.7107  0.8350  0.5626
 7019TIP3    H242549  -0.068   0.426  16.657 -0.1858 -0.2025  0.3074
 7020TIP3   OH242550   2.285   1.670  14.893 -0.0358 -0.0713  0.2801
 7020TIP3    H142551   2.267   1.576  14.886 -0.8726  0.1474 -0.6499
 7020TIP3    H242552   2.252   1.695  14.979 -3.0114  0.0477 -0.8384
 7021TIP3   OH242553   5.454   4.414  13.029 -0.3294  0.3489  0.1465
 7021TIP3    H142554   5.450   4.336  13.085 -1.2236 -0.7397 -1.3749
 7021TIP3    H242555   5.434   4.487  13.088 -0.8830 -0.7288  1.3220
 7022TIP3   OH242556   5.375   0.572  14.612 -0.0620  0.4253 -0.3604
 7022TIP3    H142557   5.463   0.603  14.595 -0.5903  2.4988  0.4945
 7022TIP3    H242558   5.318   0.642  14.580 -1.2148  1.5874  3.8613
 7023TIP3   OH242559   0.464   5.632   2.456  0.0620 -0.3709  0.5195
 7023TIP3    H142560   0.549   5.637   2.500 -0.6965  2.4124  1.7806
 7023TIP3    H242561   0.467   5.701   2.390 -0.8525 -0.9408 -0.1331
 7024TIP3   OH242562   0.810   2.516   1.150 -0.4620 -0.2594  0.2882
 7024TIP3    H142563   0.880   2.513   1.215  0.0210  1.2626 -0.1336
 7024TIP3    H242564   0.759   2.437   1.166  1.1370 -1.2054  0.8510
 7025TIP3   OH242565   4.610   4.567  12.396  0.2715 -0.1574 -0.3046
 7025TIP3    H142566   4.631   4.613  12.315 -1.0581 -0.3930 -0.7952
 7025TIP3    H242567   4.600   4.475  12.370 -1.1764 -0.0721 -0.0536
 7026TIP3   OH242568   6.455   3.263   4.973  0.2030 -0.1724  0.0683
 7026TIP3    H142569   6.468   3.332   5.039  0.3124 -1.8132  1.7855
 7026TIP3    H242570   6.540   3.257   4.929  0.8882 -0.7402  1.4340
 7027TIP3   OH242571   2.377   2.702  16.871  0.1982 -0.2288  0.1251
 7027TIP3    H142572   2.393   2.688  16.965 -0.3625  0.6974  0.3729
 7027TIP3    H242573   2.332   2.623  16.842  1.1223 -0.8828  0.4466
 7028TIP3   OH242574   0.004   5.394  13.134 -0.0116 -0.3689 -0.1616
 7028TIP3    H142575   0.063   5.338  13.184  0.5924 -1.0676 -1.6320
 7028TIP3    H242576  -0.083   5.355  13.146  0.1339 -0.5609  0.2868
 7029TIP3   OH242577   6.694   1.691   4.173 -0.0384  0.6224 -0.6516
 7029TIP3    H142578   6.714   1.777   4.210 -0.2157  0.7800 -0.9148
 7029TIP3    H242579   6.777   1.662   4.134  0.2355  0.3070  0.1519
 7030TIP3   OH242580   4.096   2.542   4.313 -0.2595  0.1625  0.1985
 7030TIP3    H142581   4.081   2.632   4.342  0.0415  0.3785 -0.3058
 7030TIP3    H242582   4.192   2.532   4.316 -0.1872  0.3364 -1.1460
 7031TIP3   OH242583   5.223   4.148  16.071  0.3546 -0.4986  0.5216
 7031TIP3    H142584   5.231   4.053  16.077  0.4502 -0.4285  1.7222
 7031TIP3    H242585   5.171   4.173  16.148 -0.8900  0.2844 -0.5576
 7032TIP3   OH242586   4.260   4.410  11.822  0.1468  0.7893 -0.1203
 7032TIP3    H142587   4.298   4.325  11.843 -0.0194  0.8380  0.3935
 7032TIP3    H242588   4.181   4.390  11.772 -0.1131  0.6221  0.3481
 7033TIP3   OH242589   4.530   4.333   4.106  0.0579  0.5590 -0.4850
 7033TIP3    H142590   4.435   4.327   4.099 -0.1305  1.6078  1.0153
 7033TIP3    H242591   4.557   4.376   4.025 -0.9887  2.4735  0.1690
 7034TIP3   OH242592   1.948   5.632   6.666  0.1556 -0.6596  0.0011
 7034TIP3    H142593   1.947   5.627   6.761  0.7207 -1.1728 -0.0112
 7034TIP3    H242594   1.984   5.718   6.646  0.5278 -0.7545  0.2570
 7035TIP3   OH242595   5.606   1.794   1.235  0.0440  0.0271  0.3420
 7035TIP3    H142596   5.532   1.754   1.281 -0.5013  0.0453 -0.5082
 7035TIP3    H242597   5.643   1.856   1.298 -1.3552  0.8352  0.3839
 7036TIP3   OH242598   0.842   4.924  16.022  0.2866 -0.1608 -0.1274
 7036TIP3    H142599   0.861   4.987  16.092  1.3359 -1.4813  0.8086
 7036TIP3    H242600   0.751   4.900  16.036  0.2383  0.2289  0.2532
 7037TIP3   OH242601   1.737   1.433   2.835  0.1311  0.3924  0.1389
 7037TIP3    H142602   1.674   1.455   2.903 -0.6748 -0.3008 -0.3839
 7037TIP3    H242603   1.739   1.337   2.834  1.2986  0.4103  0.2508
 7038TIP3   OH242604   1.154   2.255   1.333  0.5551 -0.0465 -0.6908
 7038TIP3    H142605   1.114   2.168   1.322  0.7348 -0.4946  1.8486
 7038TIP3    H242606   1.210   2.246   1.410  1.2173  2.1235 -0.8835
 7039TIP3   OH242607   2.861   2.402   0.427  0.1081  0.7008 -0.4643
 7039TIP3    H142608   2.938   2.455   0.407  1.5558 -0.4015  1.9375
 7039TIP3    H242609   2.854   2.405   0.522 -2.8553  0.7958 -0.6348
 7040TIP3   OH242610   4.483   1.381  16.368 -0.4329 -0.2245  0.2899
 7040TIP3    H142611   4.477   1.422  16.282 -2.7263 -1.8348 -0.3588
 7040TIP3    H242612   4.553   1.316  16.359 -0.7864 -0.5124 -0.4174
 7041TIP3   OH242613   1.763   4.906  11.120 -0.0103 -0.2013 -0.6911
 7041TIP3    H142614   1.733   4.846  11.051  0.9008 -0.1146 -1.1743
 7041TIP3    H242615   1.708   4.885  11.195 -0.8004 -0.5282 -1.3412
 7042TIP3   OH242616   3.078   2.855   0.128 -0.0370  0.4581 -0.2447
 7042TIP3    H142617   3.141   2.889   0.065  0.3617  0.2894  0.0586
 7042TIP3    H242618   2.993   2.866   0.086  0.2997 -0.4964 -1.1918
 7043TIP3   OH242619   3.877   3.618   2.796 -0.3532  0.6219  0.1184
 7043TIP3    H142620   3.905   3.705   2.825 -1.2901  0.4495  1.6542
 7043TIP3    H242621   3.933   3.558   2.844 -0.7129  0.3611  0.2174
 7044TIP3   OH242622   6.376   3.152   5.878 -0.3568 -0.1540 -0.1649
 7044TIP3    H142623   6.423   3.233   5.897  1.7485 -1.2359 -0.6479
 7044TIP3    H242624   6.380   3.102   5.960  0.4488 -0.7865 -0.5875
 7045TIP3   OH242625   3.620   1.654   1.088 -0.6107  0.0978 -0.0653
 7045TIP3    H142626   3.538   1.608   1.107  0.8384 -1.9669  1.4644
 7045TIP3    H242627   3.677   1.633   1.162  1.1735  1.8452 -0.8881
 7046TIP3   OH242628   1.164   4.514   5.898  0.0536  0.1254 -0.2540
 7046TIP3    H142629   1.201   4.444   5.952  1.0525 -0.0970 -1.2316
 7046TIP3    H242630   1.071   4.492   5.892  0.0602 -0.2294  0.7903
 7047TIP3   OH242631   1.802   4.294  16.440 -0.2320 -0.1964  0.1532
 7047TIP3    H142632   1.816   4.265  16.530  1.1279  1.3409  0.4726
 7047TIP3    H242633   1.711   4.273  16.421 -0.2481 -1.4373  1.5413
 7048TIP3   OH242634   4.319   6.057   1.607  0.0419 -0.4410  0.0377
 7048TIP3    H142635   4.288   6.134   1.560  0.7630  0.8660  1.6683
 7048TIP3    H242636   4.251   6.041   1.673  0.2960 -0.6937  0.2381
 7049TIP3   OH242637   0.391   1.910   1.278  0.0563  0.3091  0.2287
 7049TIP3    H142638   0.379   1.986   1.335  0.9949 -0.0404  0.8962
 7049TIP3    H242639   0.473   1.928   1.232 -0.8192  0.7055 -1.2048
 7050TIP3   OH242640   3.130   3.749   1.458  0.3407  0.2717  0.1931
 7050TIP3    H142641   3.089   3.663   1.460  0.7385  0.1129  2.1719
 7050TIP3    H242642   3.224   3.732   1.451  0.3299  0.5848 -0.8711
 7051TIP3   OH242643   1.119   3.812   1.463 -0.6201  0.9998 -0.4957
 7051TIP3    H142644   1.119   3.885   1.401  1.1433  1.7605  0.3738
 7051TIP3    H242645   1.165   3.742   1.417 -0.6698  1.0461 -0.6178
 7052TIP3   OH242646   5.263   4.146   5.833  0.2537 -0.6460 -0.2543
 7052TIP3    H142647   5.175   4.180   5.852  0.4597 -0.9695  1.3772
 7052TIP3    H242648   5.248   4.078   5.767 -0.7329 -0.7636  0.0773
 7053TIP3   OH242649   2.566   2.080  11.782  0.0467 -0.5708  0.0678
 7053TIP3    H142650   2.589   2.077  11.689 -1.4112 -0.2666 -0.3197
 7053TIP3    H242651   2.527   1.994  11.799  0.5169 -0.7046  0.4454
 7054TIP3   OH242652   5.394   3.976  13.938  0.9907 -0.5154 -0.4797
 7054TIP3    H142653   5.475   3.987  13.888  1.0787 -0.5392 -0.3412
 7054TIP3    H242654   5.332   3.939  13.875  1.0806 -0.4760 -0.5914
 7055TIP3   OH242655   1.717   3.837  14.684 -0.0644  0.0421 -0.5136
 7055TIP3    H142656   1.717   3.792  14.768 -1.5680  0.5664 -0.2143
 7055TIP3    H242657   1.681   3.774  14.622 -1.1849  0.4638 -0.2987
 7056TIP3   OH242658   3.056   3.102   3.784  0.7275 -0.7756 -0.9001
 7056TIP3    H142659   3.079   3.046   3.710  1.5718  0.4392 -1.5686
 7056TIP3    H242660   2.962   3.089   3.796  0.6292 -1.1535 -2.0257
 7057TIP3   OH242661   4.132   3.533  13.627  0.1533 -0.0208  0.6524
 7057TIP3    H142662   4.174   3.448  13.641 -0.6761 -0.6040 -0.2855
 7057TIP3    H242663   4.174   3.591  13.690  2.1920 -0.6351 -0.0913
 7058TIP3   OH242664   2.179   2.256   2.222  0.2631 -0.2066  0.6013
 7058TIP3    H142665   2.199   2.163   2.216  1.0257 -0.0150  0.2005
 7058TIP3    H242666   2.171   2.273   2.316  1.2091 -0.4425  0.7269
 7059TIP3   OH242667   3.581   0.469  15.654  0.2718  0.1086  0.4221
 7059TIP3    H142668   3.649   0.422  15.701 -0.2720 -0.6141  0.4966
 7059TIP3    H242669   3.612   0.471  15.563  0.8988  0.7283  0.6455
 7060TIP3   OH242670   5.085   5.896   3.367  0.2396 -0.4349 -0.2771
 7060TIP3    H142671   5.066   5.989   3.374 -1.2456 -0.6308 -1.5193
 7060TIP3    H242672   5.152   5.890   3.299 -1.3818 -0.4529 -1.9139
 7061TIP3   OH242673   1.395   3.918   0.175 -0.1902  0.2241  0.1681
 7061TIP3    H142674   1.396   3.883   0.085 -2.3069 -0.2448  0.3056
 7061TIP3    H242675   1.302   3.924   0.197  0.3258 -0.5705  2.6852
 7062TIP3   OH242676   4.772   3.355   3.205 -0.3866 -0.5854  0.3924
 7062TIP3    H142677   4.686   3.396   3.191 -0.3244 -0.7819 -0.6194
 7062TIP3    H242678   4.832   3.407   3.152  0.0091 -0.8286  0.6085
 7063TIP3   OH242679   1.842   2.834   2.593  0.0418  0.0137 -0.7361
 7063TIP3    H142680   1.823   2.783   2.514  0.7544 -0.6038 -0.5095
 7063TIP3    H242681   1.855   2.769   2.661 -1.0665  0.5583  0.0106
 7064TIP3   OH242682   3.139   1.023  13.737 -0.1367 -0.2754  0.4981
 7064TIP3    H142683   3.134   1.002  13.644 -1.2989 -1.4948  0.8164
 7064TIP3    H242684   3.062   0.981  13.775  1.5518 -1.7510  2.3907
 7065TIP3   OH242685   5.028   2.052   1.380 -0.9509 -0.1980 -0.0194
 7065TIP3    H142686   5.013   2.001   1.459  0.0408  1.9017  1.5574
 7065TIP3    H242687   5.094   2.003   1.332 -0.6657 -0.8630  1.0393
 7066TIP3   OH242688   1.975   6.272   5.510 -0.3738  0.0886 -0.1132
 7066TIP3    H142689   1.975   6.365   5.533  0.9137  0.9059 -3.1573
 7066TIP3    H242690   1.891   6.258   5.467 -0.1018  0.1073 -0.6490
 7067TIP3   OH242691   0.695   5.622   0.062 -0.4523  0.0148 -0.1517
 7067TIP3    H142692   0.665   5.555   0.001  0.1575  1.1812 -1.7491
 7067TIP3    H242693   0.790   5.609   0.067 -0.4421  0.2081  0.2248
 7068TIP3   OH242694   3.708   1.675   2.595 -0.4045 -0.3543 -0.5037
 7068TIP3    H142695   3.689   1.627   2.675 -1.6951 -1.1985 -1.2891
 7068TIP3    H242696   3.799   1.703   2.604 -0.5025 -0.5265  1.1973
 7069TIP3   OH242697   2.181   6.653   0.907  0.0651 -0.0365 -0.1283
 7069TIP3    H142698   2.138   6.700   0.835 -1.2394 -1.9342 -0.6199
 7069TIP3    H242699   2.206   6.722   0.969  0.7082  1.5805 -2.1271
 7070TIP3   OH242700   0.668   2.011  11.499 -0.4372  0.2463 -0.2988
 7070TIP3    H142701   0.716   1.993  11.418 -0.6830  1.0959 -0.6452
 7070TIP3    H242702   0.693   2.100  11.522 -0.7942  0.2015  0.2622
 7071TIP3   OH242703   5.516   0.875  12.713 -0.3948  0.6356 -0.2418
 7071TIP3    H142704   5.515   0.845  12.804 -1.1078 -1.1783 -0.8248
 7071TIP3    H242705   5.441   0.934  12.706  0.6102  2.0767  0.7384
 7072TIP3   OH242706   3.938   4.052  16.751  0.4477 -0.3476  0.2430
 7072TIP3    H142707   4.017   4.076  16.801  1.6939  0.1433 -1.8710
 7072TIP3    H242708   3.899   4.136  16.727  1.9259 -0.4410 -2.7206
 7073TIP3   OH242709   5.162   4.242  11.152  0.2267  0.0517  0.2106
 7073TIP3    H142710   5.082   4.294  11.142  0.0443  0.0707  1.5768
 7073TIP3    H242711   5.136   4.168  11.207  1.3189  0.5029  1.3802
 7074TIP3   OH242712   0.215   5.479  12.049  0.1448 -0.2399  0.1941
 7074TIP3    H142713   0.264   5.561  12.054 -1.6957  0.9126 -0.1899
 7074TIP3    H242714   0.190   5.472  11.957  0.0571 -1.1189  0.2759
 7075TIP3   OH242715   6.598   4.520  13.467  0.5675  0.3582 -0.5664
 7075TIP3    H142716   6.681   4.521  13.420  0.7460  0.5429 -0.2523
 7075TIP3    H242717   6.607   4.590  13.533 -0.1040  0.8432 -0.9896
 7076TIP3   OH242718   0.412   0.330   5.069 -0.3345  0.4509  0.0620
 7076TIP3    H142719   0.480   0.267   5.045 -1.1010  0.5664 -2.6521
 7076TIP3    H242720   0.375   0.296   5.150  0.5679 -1.5412 -0.3265
 7077TIP3   OH242721   2.506   0.205  13.963  0.4914  0.5780  0.6266
 7077TIP3    H142722   2.587   0.172  13.926  0.7584 -0.3695  1.9852
 7077TIP3    H242723   2.440   0.140  13.937  0.1745  1.3088 -0.4178
 7078TIP3   OH242724   2.434   0.478  16.293  0.4352 -0.0108 -0.2103
 7078TIP3    H142725   2.477   0.562  16.309 -1.9635  1.1913  0.2624
 7078TIP3    H242726   2.484   0.414  16.343  1.3851  1.4052  0.6571
 7079TIP3   OH242727   4.039   4.038   6.138  0.1254  0.6525 -0.3443
 7079TIP3    H142728   4.084   4.114   6.174  0.8231  0.0081  0.1652
 7079TIP3    H242729   4.074   4.028   6.050 -0.2784  1.1665 -0.5690
 7080TIP3   OH242730   6.602   0.707  16.971  0.3733  0.3330  0.1153
 7080TIP3    H142731   6.637   0.795  16.957  0.7236  0.0725 -0.6394
 7080TIP3    H242732   6.551   0.715  17.052 -0.0466  1.3583 -0.2406
 7081TIP3   OH242733   6.708   0.123  14.963  0.2955 -0.3633  0.7393
 7081TIP3    H142734   6.636   0.181  14.937 -0.0717 -1.1666 -0.0982
 7081TIP3    H242735   6.727   0.147  15.053 -0.2953  0.6029  0.6155
 7082TIP3   OH242736   1.895   4.579  14.682 -0.3146  0.0154  0.0795
 7082TIP3    H142737   1.905   4.659  14.629 -1.8551  0.9228  1.1289
 7082TIP3    H242738   1.900   4.610  14.772  2.0517 -1.4884  0.5238
 7083TIP3   OH242739   4.468   5.307  14.072  0.1975 -0.3640  0.5278
 7083TIP3    H142740   4.562   5.325  14.070 -0.1940  1.7194 -0.3356
 7083TIP3    H242741   4.442   5.305  13.980 -0.3902 -2.2368  0.7125
 7084TIP3   OH242742   3.932   4.869  13.006 -0.2839  0.0350 -0.4524
 7084TIP3    H142743   3.995   4.847  13.075  0.7237 -0.8074 -1.6146
 7084TIP3    H242744   3.970   4.833  12.926 -0.5402  2.5922 -1.7745
 7085TIP3   OH242745   0.763   5.424   3.170  0.3473 -0.4090 -0.0643
 7085TIP3    H142746   0.840   5.437   3.115 -0.1605  1.3513 -0.3916
 7085TIP3    H242747   0.789   5.455   3.257  0.1249 -0.1661 -0.0840
 7086TIP3   OH242748   6.757   0.781  10.929 -0.5469 -0.7526  0.4442
 7086TIP3    H142749   6.800   0.835  10.995 -0.7152  1.6665 -1.3677
 7086TIP3    H242750   6.827   0.763  10.865 -0.8786 -1.3943  0.2632
 7087TIP3   OH242751   2.158   1.948   3.684 -0.2272 -0.0287 -0.6214
 7087TIP3    H142752   2.215   2.010   3.730 -1.2109  0.4888 -0.1054
 7087TIP3    H242753   2.090   1.925   3.747  0.6167 -2.3336 -0.5033
 7088TIP3   OH242754   0.504   3.863   1.021  0.4053 -0.0229 -0.5904
 7088TIP3    H142755   0.520   3.914   0.942 -1.5207  1.0222 -0.3318
 7088TIP3    H242756   0.504   3.772   0.991 -0.4323  0.3731 -1.8197
 7089TIP3   OH242757   3.223   4.151  14.311  0.0024  0.3734  0.0208
 7089TIP3    H142758   3.211   4.061  14.342  0.6726  0.7776  1.4897
 7089TIP3    H242759   3.193   4.149  14.220 -0.4668 -1.2166  0.1934
 7090TIP3   OH242760   6.374   4.853   5.473 -0.4590  0.4651  0.1223
 7090TIP3    H142761   6.300   4.878   5.417 -0.3949  0.9900  0.2753
 7090TIP3    H242762   6.397   4.933   5.520  2.4302  1.2473 -2.4568
 7091TIP3   OH242763   5.829   5.685   6.196 -0.8537 -0.0067 -0.1788
 7091TIP3    H142764   5.853   5.618   6.260 -0.3298  1.0712  0.7638
 7091TIP3    H242765   5.913   5.719   6.164 -1.0363  3.2190  2.5409
 7092TIP3   OH242766   1.141   5.100  15.530 -0.0329 -0.5652 -0.0929
 7092TIP3    H142767   1.173   5.021  15.574  2.7011 -0.3663 -1.6366
 7092TIP3    H242768   1.166   5.172  15.588  1.9016 -0.4578 -1.0249
 7093TIP3   OH242769   5.183   0.751  15.792  0.3142  0.1719  0.4132
 7093TIP3    H142770   5.276   0.772  15.805  0.4445  0.8519 -1.3894
 7093TIP3    H242771   5.183   0.682  15.726 -0.4048 -0.9165  1.5429
 7094TIP3   OH242772   3.993   1.410   4.329  0.1460  0.0891 -0.0545
 7094TIP3    H142773   4.029   1.396   4.416  1.5773 -1.5065 -0.8730
 7094TIP3    H242774   3.925   1.343   4.320 -0.7819  0.9702  0.2307
 7095TIP3   OH242775   5.754   1.373   1.280  0.2559  0.4174 -0.0419
 7095TIP3    H142776   5.658   1.379   1.278  0.1656 -0.3799  1.1245
 7095TIP3    H242777   5.784   1.444   1.224 -1.0099  1.2939  0.3693
 7096TIP3   OH242778   6.278   3.126   2.971  0.4092 -0.0217  0.1127
 7096TIP3    H142779   6.196   3.174   2.962  0.9777  0.8668 -0.3267
 7096TIP3    H242780   6.252   3.039   3.001 -0.9217 -0.6789 -2.7800
 7097TIP3   OH242781   6.393   0.516   1.114  0.5271  0.0088 -0.4795
 7097TIP3    H142782   6.457   0.455   1.151  0.2370 -0.6949 -1.1345
 7097TIP3    H242783   6.328   0.528   1.183  0.5619 -0.4595 -0.3674
 7098TIP3   OH242784   5.944   3.982   0.205  0.0701 -0.8616 -0.1138
 7098TIP3    H142785   5.941   3.982   0.109 -2.1264  1.3874 -0.0712
 7098TIP3    H242786   6.025   4.028   0.227 -0.7861  1.0292 -0.8836
 7099TIP3   OH242787   3.488   0.987  11.435 -0.5874  0.2877 -0.3582
 7099TIP3    H142788   3.540   0.910  11.416 -1.7244 -0.0698 -2.0883
 7099TIP3    H242789   3.548   1.061  11.422  0.5992 -0.2755  1.6425
 7100TIP3   OH242790   1.353   6.209   5.824 -0.2874  0.1696  0.3007
 7100TIP3    H142791   1.338   6.123   5.786 -3.1033  1.5603 -1.9332
 7100TIP3    H242792   1.354   6.269   5.749  1.4387  2.1151  1.8215
 7101TIP3   OH242793   2.096   1.514   2.780 -0.0030  0.0801  0.1132
 7101TIP3    H142794   2.060   1.473   2.858 -0.4812  1.1829  0.4717
 7101TIP3    H242795   2.020   1.538   2.728  0.3419 -2.4721 -1.6612
 7102TIP3   OH242796   2.274   5.006   0.262  0.5133  0.3745 -0.2884
 7102TIP3    H142797   2.218   5.068   0.308  0.3024 -1.9073  2.6645
 7102TIP3    H242798   2.342   4.983   0.325  2.4765  0.0940 -2.4609
 7103TIP3   OH242799   6.431   5.898   3.417  0.0003 -0.7992 -0.2228
 7103TIP3    H142800   6.448   5.805   3.431  0.6951 -0.7627 -0.7827
 7103TIP3    H242801   6.460   5.914   3.327 -1.2296 -0.3051 -0.5524
 7104TIP3   OH242802   4.008   4.659   3.251 -0.1957 -0.0319 -0.7598
 7104TIP3    H142803   4.089   4.688   3.209 -0.0510  0.6769 -0.0165
 7104TIP3    H242804   3.958   4.740   3.265 -0.2974 -0.2606  0.2905
 7105TIP3   OH242805   4.812   1.037   1.910  0.1205  0.5523  0.3169
 7105TIP3    H142806   4.872   1.090   1.963  0.1198 -1.2847  2.2053
 7105TIP3    H242807   4.798   1.089   1.831  1.8970  2.3320  1.1295
 7106TIP3   OH242808   6.236   3.192   0.734 -0.0257 -0.0891  0.3871
 7106TIP3    H142809   6.208   3.234   0.815  0.6207 -1.3249  1.2871
 7106TIP3    H242810   6.302   3.128   0.763 -0.1286 -0.8636 -1.0617
 7107TIP3   OH242811   5.638   1.701  12.219 -0.6304  0.2357 -0.2200
 7107TIP3    H142812   5.709   1.641  12.198  0.6575  1.4886  0.4883
 7107TIP3    H242813   5.592   1.659  12.292 -0.3485 -0.3593 -0.3788
 7108TIP3   OH242814   6.390   0.001   5.098  0.2226 -0.1139  0.1303
 7108TIP3    H142815   6.403  -0.013   5.192  0.1995  1.4255  0.3759
 7108TIP3    H242816   6.417   0.092   5.083 -0.7054 -0.0326 -1.1678
 7109TIP3   OH242817   3.404   6.024  10.898 -0.1892 -0.8679 -0.1575
 7109TIP3    H142818   3.424   6.111  10.934  0.9623 -2.0475  2.1490
 7109TIP3    H242819   3.490   5.985  10.881 -0.6162 -2.6221  1.5191
 7110TIP3   OH242820   5.169   1.720   4.964 -0.0285  0.1549  0.3753
 7110TIP3    H142821   5.156   1.691   4.873 -1.5733 -0.0644  0.6400
 7110TIP3    H242822   5.156   1.814   4.961 -1.1537  0.0157  0.5305
 7111TIP3   OH242823   4.512   1.649  12.653  0.4274  0.0466 -0.2833
 7111TIP3    H142824   4.589   1.691  12.689 -0.1940 -0.0290  1.1893
 7111TIP3    H242825   4.459   1.626  12.730 -0.3858 -1.1815 -1.1831
 7112TIP3   OH242826   0.658   6.048   1.517  0.6682  0.0706  0.2111
 7112TIP3    H142827   0.613   5.965   1.532  0.7159 -0.3810 -1.9723
 7112TIP3    H242828   0.724   6.028   1.451  0.4644  1.9116 -0.5782
 7113TIP3   OH242829   5.036   5.720  15.685  0.1825  0.5240 -0.4927
 7113TIP3    H142830   5.125   5.694  15.708  0.9458  1.7071 -1.9746
 7113TIP3    H242831   5.024   5.686  15.596 -0.6601  0.8057 -0.4898
 7114TIP3   OH242832   3.673   1.299   1.393 -0.1887  0.0228 -0.0440
 7114TIP3    H142833   3.707   1.350   1.467  1.0353  0.6126 -1.0073
 7114TIP3    H242834   3.749   1.280   1.339 -0.8630 -1.5894 -0.4661
 7115TIP3   OH242835   1.896   1.898  14.985  0.6447  0.3070 -0.0754
 7115TIP3    H142836   1.855   1.984  14.972 -1.9659 -0.6946  1.2395
 7115TIP3    H242837   1.834   1.850  15.039  1.2346 -3.0713 -2.2738
 7116TIP3   OH242838   3.997   6.024   3.263 -0.1854  0.0224 -0.1295
 7116TIP3    H142839   3.952   6.108   3.259  1.8490  1.1671  0.7765
 7116TIP3    H242840   3.926   5.960   3.271 -1.6521  1.7896  1.5257
 7117TIP3   OH242841   6.021   1.659  11.462  0.2489 -0.2329 -0.0020
 7117TIP3    H142842   6.023   1.714  11.383  1.0041 -0.0054  0.1730
 7117TIP3    H242843   5.956   1.702  11.518  0.7062  0.3962  0.0609
 7118TIP3   OH242844   5.847   6.701  15.176  0.0362  0.2969  0.1148
 7118TIP3    H142845   5.824   6.752  15.254 -1.1141 -0.9314  0.5920
 7118TIP3    H242846   5.938   6.675  15.190  1.0307  3.1141 -0.6473
 7119TIP3   OH242847   2.006   2.279  12.749 -0.1267  0.3386 -0.1379
 7119TIP3    H142848   2.034   2.212  12.686 -0.0235 -1.1995  1.5187
 7119TIP3    H242849   1.916   2.298  12.724  0.1526  0.3137 -1.2270
 7120TIP3   OH242850   3.923   1.526   5.868  0.4380  0.5064  0.1228
 7120TIP3    H142851   4.001   1.574   5.895  0.7253 -0.5606  1.2481
 7120TIP3    H242852   3.945   1.434   5.882 -1.0677  0.1924  0.6346
 7121TIP3   OH242853   6.367   4.905  16.236  0.0226  0.0047  0.1054
 7121TIP3    H142854   6.424   4.910  16.313  1.0748 -1.2293 -0.5799
 7121TIP3    H242855   6.413   4.954  16.168  0.1540 -0.7852 -0.3809
 7122TIP3   OH242856   3.030   5.869   0.779 -0.6284 -0.5320 -0.0221
 7122TIP3    H142857   3.039   5.902   0.690  0.1924 -1.4531 -0.2866
 7122TIP3    H242858   3.067   5.938   0.835  0.6481 -0.7863 -0.5334
 7123TIP3   OH242859   3.589   4.587  16.366  0.1763  0.2281  0.2155
 7123TIP3    H142860   3.544   4.601  16.448 -0.3016 -1.2850  0.2360
 7123TIP3    H242861   3.520   4.567  16.303  0.4951  1.8565 -0.6717
 7124TIP3   OH242862   3.960   2.393  16.982  0.3167 -0.1656 -0.1405
 7124TIP3    H142863   4.003   2.353  17.058 -0.9753 -0.6950  0.3194
 7124TIP3    H242864   3.912   2.321  16.941 -2.0292  0.9069  0.6966
 7125TIP3   OH242865   3.931   4.887   3.395  0.3634  0.0989 -0.4019
 7125TIP3    H142866   3.842   4.887   3.431  1.4435  0.0408  2.3607
 7125TIP3    H242867   3.950   4.979   3.379  0.1602  0.1900 -0.1234
 7126TIP3   OH242868   0.506   5.639  11.178  0.0240  0.2627 -0.2864
 7126TIP3    H142869   0.490   5.581  11.103  1.6165 -1.0491  0.3517
 7126TIP3    H242870   0.467   5.593  11.252  0.2539  0.5803  0.0314
 7127TIP3   OH242871   3.336   5.329   2.395  0.0083 -0.4937  0.2413
 7127TIP3    H142872   3.260   5.361   2.346  1.0375  0.4156 -0.7665
 7127TIP3    H242873   3.341   5.236   2.371  1.8909  0.4101 -3.3272
 7128TIP3   OH242874   6.007   0.157  16.171 -0.5831 -0.1587  0.2447
 7128TIP3    H142875   6.029   0.231  16.113  0.9921 -1.4000 -0.7869
 7128TIP3    H242876   6.080   0.154  16.233 -1.2586 -0.1073  1.0470
 7129TIP3   OH242877   1.595   5.275   0.292 -0.2636  0.5027 -0.2175
 7129TIP3    H142878   1.574   5.323   0.212  0.1329 -0.4524 -0.9037
 7129TIP3    H242879   1.521   5.291   0.351 -0.1505  1.9218 -0.4415
 7130TIP3   OH242880   3.104   2.196   4.132  0.4925  0.1599 -0.2527
 7130TIP3    H142881   3.157   2.143   4.191 -1.4597 -1.4897  0.1013
 7130TIP3    H242882   3.044   2.243   4.190  3.0323  3.8546 -0.4528
 7131TIP3   OH242883   6.296   5.737  14.214  0.2531 -0.6629  0.4446
 7131TIP3    H142884   6.265   5.708  14.300  1.8666 -1.3785  0.7958
 7131TIP3    H242885   6.390   5.719  14.215  0.7368  1.6504 -0.5333
 7132TIP3   OH242886   2.490   0.939   0.974  0.4453 -0.2784 -0.3551
 7132TIP3    H142887   2.538   1.011   0.932  1.4685  0.3959  1.8727
 7132TIP3    H242888   2.422   0.983   1.025 -0.5013 -1.0495 -0.9435
 7133TIP3   OH242889   1.211   0.438   0.110 -0.1937 -0.4906 -0.5231
 7133TIP3    H142890   1.189   0.498   0.039  0.7151  0.2307 -0.2062
 7133TIP3    H242891   1.186   0.352   0.077  0.3055 -0.1768 -1.7576
 7134TIP3   OH242892   6.459   1.261   5.074  0.0750 -0.2099  0.1497
 7134TIP3    H142893   6.399   1.235   5.144  0.7561  1.3981  1.3701
 7134TIP3    H242894   6.411   1.243   4.993 -1.0791 -1.2429  1.0425
 7135TIP3   OH242895   2.493   3.174  14.083  0.1832 -0.3992  0.1664
 7135TIP3    H142896   2.467   3.263  14.107 -0.3661 -0.4185 -0.3643
 7135TIP3    H242897   2.418   3.120  14.104  0.1390 -0.5905 -0.4622
 7136TIP3   OH242898   1.253   5.683  12.158 -0.6534  0.0645  0.2557
 7136TIP3    H142899   1.166   5.692  12.196 -1.8894 -1.0706 -2.2024
 7136TIP3    H242900   1.273   5.590  12.166 -0.2408  0.0921 -0.4052
 7137TIP3   OH242901   4.778   2.875  16.936 -0.2117  0.5075  0.2134
 7137TIP3    H142902   4.862   2.884  16.892  0.0595 -1.6076  0.2528
 7137TIP3    H242903   4.725   2.947  16.900  0.6994  0.1633 -1.9249
 7138TIP3   OH242904   4.384   2.857   1.466  0.3525 -0.4963  0.5597
 7138TIP3    H142905   4.338   2.941   1.472  0.0818 -0.6268  0.3116
 7138TIP3    H242906   4.460   2.876   1.410 -0.9498 -0.9504 -1.4265
 7139TIP3   OH242907   0.601   0.166   4.757 -0.4887 -0.5735 -0.3174
 7139TIP3    H142908   0.604   0.127   4.669 -1.6078 -1.5201  0.0537
 7139TIP3    H242909   0.652   0.106   4.811  0.7793  0.3693 -0.4404
 7140TIP3   OH242910   5.474   0.138   0.022  0.6523  0.3274  0.6238
 7140TIP3    H142911   5.509   0.054   0.049  1.0800  0.8937  1.8679
 7140TIP3    H242912   5.500   0.146  -0.070  0.5394 -0.9249  0.4750
 7141TIP3   OH242913   6.193   5.206  16.299 -0.2365 -0.1025 -0.3693
 7141TIP3    H142914   6.111   5.185  16.255  0.0374 -1.7788 -0.0968
 7141TIP3    H242915   6.252   5.233  16.228 -1.5660  3.0357 -0.3637
 7142TIP3   OH242916   1.416   1.854   3.377 -0.1126 -0.0515  0.6071
 7142TIP3    H142917   1.454   1.826   3.294 -1.4124 -0.6657  0.2071
 7142TIP3    H242918   1.356   1.925   3.354 -0.2914 -0.0603  1.0397
 7143TIP3   OH242919   3.814   0.685   1.821  0.3847 -0.1835  0.2215
 7143TIP3    H142920   3.743   0.749   1.825 -0.2208 -0.8525  0.4496
 7143TIP3    H242921   3.771   0.604   1.793  1.2112 -0.3843 -0.4640
 7144TIP3   OH242922   6.394   5.135  16.466  0.0579  0.0924 -0.9653
 7144TIP3    H142923   6.311   5.150  16.422 -1.1088  1.2589  1.5059
 7144TIP3    H242924   6.401   5.206  16.530  0.9715 -2.2483  1.6817
 7145TIP3   OH242925   2.214   1.640  12.879  0.1928  0.1609 -0.2256
 7145TIP3    H142926   2.203   1.708  12.946  1.4076 -0.0830  0.2473
 7145TIP3    H242927   2.237   1.688  12.799  3.2537  0.2357  0.6240
 7146TIP3   OH242928   4.429   1.672  13.155 -0.2464  0.3607 -0.1985
 7146TIP3    H142929   4.491   1.745  13.162  0.4163 -0.2467  0.4847
 7146TIP3    H242930   4.483   1.598  13.126 -1.0575  0.3180 -1.6478
 7147TIP3   OH242931   4.832   4.719   1.982  0.3671  0.2546 -0.0528
 7147TIP3    H142932   4.811   4.809   2.006 -1.2288 -0.0312 -0.3567
 7147TIP3    H242933   4.921   4.724   1.946  0.9541  1.4248  1.4927
 7148TIP3   OH242934   2.755   5.816  14.329 -0.0035  0.1856  0.1363
 7148TIP3    H142935   2.702   5.741  14.302  0.4972  0.2002 -0.9141
 7148TIP3    H242936   2.761   5.808  14.425 -0.8799 -0.4912  0.1412
 7149TIP3   OH242937   4.011   5.949  12.226 -0.0399  0.6122  0.2135
 7149TIP3    H142938   3.954   5.886  12.270 -0.6599  1.2830  0.3630
 7149TIP3    H242939   3.961   5.977  12.150  0.1623  1.0697  0.2500
 7150TIP3   OH242940   3.967   1.678  14.004 -0.2842 -0.3976 -0.6267
 7150TIP3    H142941   4.007   1.761  14.029  0.2042 -0.3582 -1.5153
 7150TIP3    H242942   3.879   1.702  13.975  0.4608  0.0730 -2.6074
 7151TIP3   OH242943   5.971   3.847   5.207  0.5136 -0.3084  0.6993
 7151TIP3    H142944   6.032   3.909   5.167 -0.8162  1.1844  0.9664
 7151TIP3    H242945   5.976   3.770   5.151  1.5554  0.3314 -0.1183
 7152TIP3   OH242946   6.372   4.418   4.332 -0.0726  0.6695 -0.3577
 7152TIP3    H142947   6.325   4.501   4.327 -2.0313 -0.2777  1.5599
 7152TIP3    H242948   6.323   4.359   4.275 -2.1267 -0.6936  2.6744
 7153TIP3   OH242949   6.300   2.817   3.913  0.2254  0.2465 -0.6727
 7153TIP3    H142950   6.296   2.722   3.900 -0.3057  0.3133 -1.0177
 7153TIP3    H242951   6.388   2.842   3.885  0.4270 -0.1696 -0.4139
 7154TIP3   OH242952   5.002   6.306  13.189  0.3854  0.0405  0.0583
 7154TIP3    H142953   4.958   6.276  13.268  0.9217  0.0275  0.3575
 7154TIP3    H242954   5.065   6.370  13.221  1.0616 -0.4504 -0.2823
 7155TIP3   OH242955   6.720   4.016  13.157  0.0891  0.2019 -0.4222
 7155TIP3    H142956   6.816   4.012  13.151  0.0704  0.8288 -1.2760
 7155TIP3    H242957   6.697   4.096  13.111 -0.7870  0.5806  0.6504
 7156TIP3   OH242958   2.781   0.388  10.478  0.3617 -0.1592 -0.2571
 7156TIP3    H142959   2.747   0.445  10.546 -1.3046  1.2852 -2.2460
 7156TIP3    H242960   2.874   0.378  10.499  0.2708  1.7934  1.1605
 7157TIP3   OH242961   4.074   4.234  12.444  0.0663  0.1713  0.3934
 7157TIP3    H142962   4.155   4.183  12.443  0.4756  0.8113  0.6087
 7157TIP3    H242963   4.034   4.217  12.358  0.5147 -0.0073  0.2163
 7158TIP3   OH242964   3.609   6.278  16.338 -0.1634 -0.0640  0.4389
 7158TIP3    H142965   3.696   6.318  16.338 -0.1226  0.0090 -3.0359
 7158TIP3    H242966   3.626   6.186  16.358  0.9833 -0.3987 -1.8299
 7159TIP3   OH242967   6.806   4.644   1.472 -0.1047 -0.3886  0.3780
 7159TIP3    H142968   6.746   4.631   1.545  0.3571  0.5821  0.9343
 7159TIP3    H242969   6.767   4.715   1.421 -0.5772 -1.2538 -0.4896
 7160TIP3   OH242970   6.335   3.673  15.491 -1.0288  0.1375  0.1400
 7160TIP3    H142971   6.341   3.619  15.569 -0.8847  0.2249  0.1887
 7160TIP3    H242972   6.266   3.736  15.510 -0.2261  0.8767  0.6307
 7161TIP3   OH242973   2.216   4.073  14.869 -0.5652  0.1129  1.0828
 7161TIP3    H142974   2.207   4.112  14.782 -3.9940  0.3757  1.4910
 7161TIP3    H242975   2.243   3.983  14.851 -0.1177  0.4869 -0.2048
 7162TIP3   OH242976   6.071   0.495  11.805 -0.3891  0.2117 -0.6714
 7162TIP3    H142977   6.093   0.506  11.897 -2.6763 -0.6770  0.0218
 7162TIP3    H242978   6.143   0.536  11.758  2.4969 -2.2260  1.4274
 7163TIP3   OH242979   2.291   0.318   1.150 -0.1094  0.1249 -0.3505
 7163TIP3    H142980   2.272   0.412   1.143 -1.0551 -0.0374  0.0098
 7163TIP3    H242981   2.386   0.312   1.139 -0.2294  0.9623 -1.9786
 7164TIP3   OH242982   6.694   6.430  17.119 -0.1397  0.4409  0.1786
 7164TIP3    H142983   6.614   6.483  17.126 -1.2210 -1.2635  0.9291
 7164TIP3    H242984   6.750   6.461  17.190 -0.6442  0.7711  0.4287
 7165TIP3   OH242985   2.683   3.844  13.426 -0.1103  0.5779  0.0466
 7165TIP3    H142986   2.733   3.917  13.389  0.4468  0.1822  0.0235
 7165TIP3    H242987   2.712   3.767  13.378 -2.2495  0.6429 -1.4033
 7166TIP3   OH242988   3.377   3.684   0.258  0.5023 -0.9337 -0.5505
 7166TIP3    H142989   3.461   3.726   0.242  0.7664 -1.0222  0.5863
 7166TIP3    H242990   3.321   3.715   0.187  0.6786  1.3982  0.2857
 7167TIP3   OH242991   5.430   4.200  13.744 -0.1876 -0.1379  0.2881
 7167TIP3    H142992   5.491   4.259  13.790  0.0673  0.0777 -0.3246
 7167TIP3    H242993   5.348   4.208  13.793 -0.2462  0.9664  0.0288
 7168TIP3   OH242994   5.772   6.028   2.297  0.3443 -0.3482 -0.5374
 7168TIP3    H142995   5.680   6.021   2.273 -0.3788  1.1313  1.6294
 7168TIP3    H242996   5.774   6.008   2.390  2.1764 -0.1274 -0.5051
 7169TIP3   OH242997   0.934   1.864  14.234 -0.0278 -0.4295 -0.2084
 7169TIP3    H142998   0.843   1.847  14.258  0.1062  0.6322  1.1910
 7169TIP3    H242999   0.984   1.798  14.282  0.0279 -0.0912  0.2114
 7170TIP3   OH243000   4.127   1.677  16.210 -0.4410  0.2934 -0.1622
 7170TIP3    H143001   4.184   1.670  16.286 -2.5247 -0.7148  1.3723
 7170TIP3    H243002   4.077   1.596  16.210 -1.4446  0.8782 -1.8171
 7171TIP3   OH243003   4.846   0.461   9.870  0.2342 -0.4966  0.1466
 7171TIP3    H143004   4.788   0.516   9.923  0.1354 -0.1489 -0.3265
 7171TIP3    H243005   4.866   0.386   9.927  1.8909  0.9275  1.5265
 7172TIP3   OH243006   6.816   5.215  11.444  0.7083 -0.2599 -0.0243
 7172TIP3    H143007   6.907   5.241  11.435  0.0320  2.3741  0.2502
 7172TIP3    H243008   6.819   5.121  11.460  3.4171 -0.0831  0.7593
 7173TIP3   OH243009   4.255   3.728  13.796 -0.8478 -0.0872 -0.1577
 7173TIP3    H143010   4.305   3.792  13.745  0.2553 -0.1394  0.8468
 7173TIP3    H243011   4.215   3.779  13.867 -0.3080 -0.4285  0.4000
 7174TIP3   OH243012   2.191   0.021   5.970  0.3285  0.3308  0.2776
 7174TIP3    H143013   2.251  -0.048   6.000  0.2501  0.5016  0.8334
 7174TIP3    H243014   2.138   0.042   6.046 -1.0218 -0.3994 -0.4403
 7175TIP3   OH243015   2.405   5.548  14.482 -0.2343  0.1940  0.0693
 7175TIP3    H143016   2.383   5.482  14.417  0.9334  0.3848 -0.5342
 7175TIP3    H243017   2.320   5.575  14.519 -0.7208 -1.5790  0.2846
 7176TIP3   OH243018   4.516   4.104  13.998 -0.5309 -0.4823 -0.3856
 7176TIP3    H143019   4.504   4.017  13.961  0.1871 -0.6829 -0.1551
 7176TIP3    H243020   4.506   4.092  14.093 -0.1532 -0.3698 -0.3281
 7177TIP3   OH243021   4.452   4.690  16.712  0.0423 -0.2983  0.6185
 7177TIP3    H143022   4.509   4.615  16.727  1.4699  0.7327  0.5056
 7177TIP3    H243023   4.486   4.758  16.770  0.3683  1.0535 -1.1098
 7178TIP3   OH243024   4.778   4.319   4.236  0.3833 -0.9847  0.2549
 7178TIP3    H143025   4.694   4.303   4.193 -0.1385  2.6067 -0.1540
 7178TIP3    H243026   4.833   4.245   4.209 -1.8807 -2.1217 -1.4140
 7179TIP3   OH243027   2.857   4.047  13.327  0.5072  0.5635 -0.1830
 7179TIP3    H143028   2.807   4.125  13.352  0.3922  0.4687 -0.1151
 7179TIP3    H243029   2.939   4.081  13.292  0.4471  0.7166 -0.1748
 7180TIP3   OH243030   2.912   0.583   2.711  0.4097  0.3740 -0.0313
 7180TIP3    H143031   2.887   0.599   2.620  2.7814  1.1906 -0.5912
 7180TIP3    H243032   2.927   0.489   2.716  2.7226  0.6350 -1.1995
 7181TIP3   OH243033   2.438   2.181  10.556 -0.1449  0.0468 -0.3557
 7181TIP3    H143034   2.524   2.196  10.594  0.1664 -0.9767 -0.6316
 7181TIP3    H243035   2.451   2.107  10.496 -0.9581  0.6393 -1.2764
 7182TIP3   OH243036   6.046   1.469  11.763 -0.6558  0.7181  0.1401
 7182TIP3    H143037   6.135   1.476  11.728 -0.9005  0.9655 -0.4356
 7182TIP3    H243038   6.025   1.376  11.755  0.4425  0.2321  2.4930
 7183TIP3   OH243039   5.964   2.527   1.671 -0.1683 -0.2929  0.7871
 7183TIP3    H143040   6.029   2.590   1.703 -1.4416  2.1091 -1.0922
 7183TIP3    H243041   5.905   2.513   1.745 -0.3208  1.4067  1.0122
 7184TIP3   OH243042   0.392   2.839  11.406 -0.5057 -0.0653 -0.5823
 7184TIP3    H143043   0.373   2.924  11.444  0.3228 -0.8486  1.6671
 7184TIP3    H243044   0.488   2.837  11.396 -0.5943 -0.3943 -1.4430
 7185TIP3   OH243045   5.530   4.101  14.824  0.0177 -0.4077  0.5543
 7185TIP3    H143046   5.590   4.175  14.838  0.6915 -0.8261 -0.0912
 7185TIP3    H243047   5.573   4.048  14.757 -0.2221 -1.6633  1.3899
 7186TIP3   OH243048   1.575   3.020  16.669  0.6853 -0.3455 -0.1133
 7186TIP3    H143049   1.569   2.988  16.578 -1.3063 -1.3214  0.3249
 7186TIP3    H243050   1.572   3.115  16.660  0.9225 -0.4168 -1.1014
 7187TIP3   OH243051   0.644   6.010  12.559 -0.3881 -0.1921  0.2883
 7187TIP3    H143052   0.566   6.064  12.571 -0.5642 -0.3765 -0.0350
 7187TIP3    H243053   0.713   6.059  12.603 -0.4239  0.6137 -0.5325
 7188TIP3   OH243054   4.652   5.503  11.409  0.3379  0.0156  0.3941
 7188TIP3    H143055   4.737   5.489  11.451 -0.7124 -1.5891  2.0731
 7188TIP3    H243056   4.612   5.575  11.459  0.2592  0.0271  0.3149
 7189TIP3   OH243057   6.027   2.224  13.083  0.0840  0.0096  0.0871
 7189TIP3    H143058   6.038   2.191  12.994  1.4290  0.0020  0.2550
 7189TIP3    H243059   5.933   2.218  13.099  0.0005 -1.2910 -0.8251
 7190TIP3   OH243060   3.009   2.363   5.365 -0.5094 -0.3802  0.2664
 7190TIP3    H143061   2.966   2.341   5.283 -1.4307 -3.3788  1.4717
 7190TIP3    H243062   3.092   2.402   5.340 -0.1380 -2.6137 -2.0888
 7191TIP3   OH243063   4.729   3.793  14.644  0.0505 -0.2262  0.4273
 7191TIP3    H143064   4.690   3.806  14.731  1.2266 -0.0986  0.9399
 7191TIP3    H243065   4.718   3.700  14.627  0.5497 -0.4110  1.0792
 7192TIP3   OH243066   6.782   4.638  12.865 -0.0036 -0.9091  0.1199
 7192TIP3    H143067   6.754   4.587  12.789 -0.0168 -0.5812 -0.0983
 7192TIP3    H243068   6.703   4.684  12.894 -0.1356 -1.4969  0.7001
 7193TIP3   OH243069   5.698   5.438   2.315 -0.4306  0.4375  0.1922
 7193TIP3    H143070   5.741   5.443   2.401 -0.0422  2.4018 -0.0958
 7193TIP3    H243071   5.669   5.528   2.298 -0.0903  0.1552 -1.9491
 7194TIP3   OH243072   1.191   5.296  12.445  0.2529  0.5347  0.2674
 7194TIP3    H143073   1.141   5.232  12.395  1.0520 -0.5125  0.8029
 7194TIP3    H243074   1.242   5.343  12.379  0.1544  0.1825 -0.0586
 7195TIP3   OH243075   1.465   1.993  16.209 -0.5697  0.1111  0.2934
 7195TIP3    H143076   1.377   1.986  16.174 -0.2406 -2.2306 -0.1066
 7195TIP3    H243077   1.453   1.997  16.304 -1.2561  2.9688  0.1191
 7196TIP3   OH243078   0.000   2.135   1.186  0.0963 -0.1396  0.3103
 7196TIP3    H143079   0.011   2.056   1.133  2.1885 -0.7203  1.5309
 7196TIP3    H243080   0.004   2.104   1.277 -0.9131  1.1431  0.8071
 7197TIP3   OH243081   2.649   2.559   2.953 -0.0156 -0.5056  0.1339
 7197TIP3    H143082   2.558   2.547   2.980 -0.0985  0.3539  0.2258
 7197TIP3    H243083   2.694   2.585   3.033 -0.1657  1.5476 -0.4264
 7198TIP3   OH243084   1.639   1.848   5.531  0.4640  0.0264  0.2938
 7198TIP3    H143085   1.699   1.894   5.591  1.5385  2.6432 -2.6251
 7198TIP3    H243086   1.576   1.915   5.504  0.8989 -0.6696 -2.6092
 7199TIP3   OH243087   4.081   5.089  16.842 -0.1786 -0.0444  0.1927
 7199TIP3    H143088   4.032   5.135  16.774  2.3827  2.1268 -0.2603
 7199TIP3    H243089   4.015   5.066  16.908 -1.9288  2.1010 -0.7791
 7200TIP3   OH243090   0.241   0.542   3.158 -0.2540  0.0289  0.7377
 7200TIP3    H143091   0.270   0.468   3.104  1.6144  1.3939 -0.1882
 7200TIP3    H243092   0.167   0.507   3.208 -0.9937 -1.7636 -1.4751
 7201TIP3   OH243093   2.481   3.825  16.125 -0.0671  0.0592  0.0934
 7201TIP3    H143094   2.481   3.793  16.035 -0.0780 -0.8769  0.4213
 7201TIP3    H243095   2.423   3.764  16.172 -1.4006  1.5153  0.3881
 7202TIP3   OH243096   1.976   6.627  11.368  0.4202  0.3185  0.1550
 7202TIP3    H143097   2.003   6.563  11.302  0.8173  0.6533 -0.0060
 7202TIP3    H243098   2.056   6.670  11.395  0.0786  1.1636 -0.1726
 7203TIP3   OH243099   6.490   5.553   2.031  0.1043  0.3571  0.5868
 7203TIP3    H143100   6.475   5.459   2.046 -1.0390  0.5589  0.7339
 7203TIP3    H243101   6.461   5.595   2.113 -2.2735  1.1115 -0.6072
 7204TIP3   OH243102   0.424   5.686  16.992 -0.0764  0.4381  0.5358
 7204TIP3    H143103   0.463   5.757  16.942  0.0522  0.4705  0.6818
 7204TIP3    H243104   0.401   5.726  17.076 -0.3303  0.3952  0.4857
 7205TIP3   OH243105   3.303   3.467   1.175  0.6988 -0.2299  0.3134
 7205TIP3    H143106   3.210   3.469   1.152  1.1421 -1.1050 -1.5862
 7205TIP3    H243107   3.335   3.554   1.152  0.4657 -0.0860  0.5251
 7206TIP3   OH243108   2.914   6.224  17.282 -0.5125  0.1102 -0.2930
 7206TIP3    H143109   2.877   6.136  17.290  1.2130 -0.6073  0.0383
 7206TIP3    H243110   2.954   6.240  17.368 -1.9548  1.7631  0.0937
 7207TIP3   OH243111   2.152   5.303   5.225 -0.1676 -0.5746 -0.3366
 7207TIP3    H143112   2.168   5.223   5.175  0.3865 -0.1157 -0.9143
 7207TIP3    H243113   2.236   5.323   5.266  0.2824  0.8096 -1.8402
 7208TIP3   OH243114   2.047   5.534  11.225 -0.0928 -0.5458 -0.3142
 7208TIP3    H143115   1.953   5.548  11.234 -0.0294  0.9360 -1.6676
 7208TIP3    H243116   2.056   5.487  11.143  0.2946 -1.4629  0.2499
 7209TIP3   OH243117   0.192   3.227   5.465 -0.2877  0.1844  0.0012
 7209TIP3    H143118   0.181   3.169   5.541 -1.3634  1.5229  0.8965
 7209TIP3    H243119   0.273   3.198   5.424 -0.3866 -1.4215  0.9069
 7210TIP3   OH243120   1.813   5.251  12.729 -0.2002  0.2627  0.1368
 7210TIP3    H143121   1.767   5.239  12.813 -0.1291 -0.8789  0.0144
 7210TIP3    H243122   1.802   5.168  12.684  1.8498  0.0493  0.0170
 7211TIP3   OH243123   2.119   2.029  15.556  0.0801  0.0148  0.5198
 7211TIP3    H143124   2.050   2.062  15.499 -0.4031 -0.0140  1.0807
 7211TIP3    H243125   2.079   2.026  15.643  0.9756  0.6012  0.9675
 7212TIP3   OH243126   2.627   4.500  12.758 -0.4574  0.2180  0.4112
 7212TIP3    H143127   2.629   4.418  12.807  1.1014 -1.0366 -1.6896
 7212TIP3    H243128   2.541   4.538  12.779 -1.5949 -2.3806  0.6929
 7213TIP3   OH243129   6.663   6.197  16.898  0.1666 -0.7372 -0.5948
 7213TIP3    H143130   6.649   6.275  16.844  1.3341 -0.1547 -0.0595
 7213TIP3    H243131   6.576   6.177  16.933  0.0675  1.0438  0.2266
 7214TIP3   OH243132   1.368   0.034   5.175  0.5745 -0.3331  0.0399
 7214TIP3    H143133   1.277   0.025   5.147 -0.1990  1.4967  1.8760
 7214TIP3    H243134   1.400   0.110   5.127 -0.0548  1.3887  2.2904
 7215TIP3   OH243135   5.017   4.692  12.532  0.0635  0.3895 -0.1745
 7215TIP3    H143136   5.034   4.629  12.462 -0.0444  0.7159 -0.4954
 7215TIP3    H243137   5.101   4.734  12.548  0.8029 -1.8343  2.0195
 7216TIP3   OH243138   4.388   1.575  17.165  0.1167 -0.0437 -0.0699
 7216TIP3    H143139   4.309   1.585  17.113  0.9883  1.2689 -1.1465
 7216TIP3    H243140   4.391   1.481  17.186 -1.7931 -0.0764  0.1251
 7217TIP3   OH243141   1.594   6.630  16.114  0.3541 -0.3897 -0.1618
 7217TIP3    H143142   1.622   6.562  16.053 -1.5646 -1.1776 -0.2062
 7217TIP3    H243143   1.562   6.583  16.191  2.1450  0.5861  1.2119
 7218TIP3   OH243144   6.010   4.581   1.330 -0.1718 -0.0176  0.0639
 7218TIP3    H143145   6.051   4.663   1.302 -1.0100  0.4412  0.1515
 7218TIP3    H243146   5.956   4.606   1.405 -0.3217 -0.6760  0.1783
 7219TIP3   OH243147   2.269   2.330   0.563 -0.0129 -0.1381 -0.4373
 7219TIP3    H143148   2.291   2.252   0.614 -0.7136 -0.6274 -0.8757
 7219TIP3    H243149   2.306   2.402   0.613  2.1628 -0.8925 -0.9005
 7220TIP3   OH243150   3.937   0.928  11.246 -0.3322 -0.2417  0.5250
 7220TIP3    H143151   4.030   0.914  11.229 -0.8865 -2.3533 -0.9709
 7220TIP3    H243152   3.928   0.916  11.340  1.0501  0.9842  0.8413
 7221TIP3   OH243153   2.369   1.962  14.685  0.2289  0.0620  0.3046
 7221TIP3    H143154   2.421   1.936  14.761 -2.3667  1.2293  2.5481
 7221TIP3    H243155   2.294   1.902  14.686 -0.1213  0.4601 -1.0369
 7222TIP3   OH243156   5.785   5.354  13.783  0.3232 -0.3683 -0.4656
 7222TIP3    H143157   5.876   5.324  13.786  0.2852 -0.4897 -0.5406
 7222TIP3    H243158   5.792   5.449  13.776  0.4218 -0.1962  1.6166
 7223TIP3   OH243159   4.011   6.262   3.528  0.0242 -0.1546 -0.3151
 7223TIP3    H143160   3.951   6.300   3.592  1.2742  0.4290  0.5379
 7223TIP3    H243161   3.972   6.283   3.443 -0.8737  0.3952  0.2223
 7224TIP3   OH243162   4.099   2.904   2.433  0.4899  0.2582 -0.3298
 7224TIP3    H143163   4.045   2.895   2.512 -1.2472 -0.2856 -1.5684
 7224TIP3    H243164   4.170   2.963   2.460  1.1941 -1.6667  2.3002
 7225TIP3   OH243165   5.475   1.483   4.152  0.3647 -0.5554  0.5651
 7225TIP3    H143166   5.439   1.532   4.226 -0.4001  1.2777 -0.9841
 7225TIP3    H243167   5.434   1.397   4.160 -0.2366 -0.1753  1.8911
 7226TIP3   OH243168   2.884   0.372   4.937  0.4528  0.1212 -0.0899
 7226TIP3    H143169   2.796   0.357   4.972  0.1606  1.9107  0.0021
 7226TIP3    H243170   2.931   0.414   5.009  1.0614  0.1224 -0.4908
 7227TIP3   OH243171   3.713   4.751   1.041  0.4904  0.3793 -0.3867
 7227TIP3    H143172   3.626   4.750   1.082  0.6573  1.0573 -0.0109
 7227TIP3    H243173   3.724   4.841   1.011  1.1026  0.3164 -0.3547
 7228TIP3   OH243174   0.528   6.255  16.497 -0.3128 -0.1951  0.0790
 7228TIP3    H143175   0.456   6.241  16.558 -0.4374 -0.8387 -0.2057
 7228TIP3    H243176   0.487   6.290  16.418 -0.1696  0.4964  0.3035
 7229TIP3   OH243177   5.117   1.609  13.175  0.0068  0.2630  0.0296
 7229TIP3    H143178   5.040   1.664  13.188  0.0895 -0.0080  1.8106
 7229TIP3    H243179   5.123   1.557  13.256  1.4728 -0.4285 -0.5073
 7230TIP3   OH243180   6.735   3.438   3.729  0.4446  0.7256  0.6811
 7230TIP3    H143181   6.750   3.532   3.726  1.7198  0.5600  1.2750
 7230TIP3    H243182   6.810   3.400   3.683 -0.4167  0.0254 -0.1746
 7231TIP3   OH243183   1.376   1.814  15.907  0.4190  0.1349  0.8224
 7231TIP3    H143184   1.311   1.804  15.978 -0.7685  0.2916 -0.2279
 7231TIP3    H243185   1.416   1.899  15.924 -0.7109  0.7134  0.6297
 7232TIP3   OH243186   2.180   1.893   4.128  0.1650  0.0784  0.3795
 7232TIP3    H143187   2.242   1.911   4.057  1.1539 -1.3958  0.8561
 7232TIP3    H243188   2.098   1.933   4.098  0.2737 -1.3764 -2.0712
 7233TIP3   OH243189   5.589   5.735   3.227 -0.0053 -0.2567  0.0063
 7233TIP3    H143190   5.650   5.747   3.300  0.8811 -0.4959 -0.6823
 7233TIP3    H243191   5.502   5.744   3.266  0.4657 -0.2496  1.0660
 7234TIP3   OH243192   0.890   6.001   3.882 -0.7364  0.2124  0.9629
 7234TIP3    H143193   0.880   5.950   3.801 -2.6726  0.1675  1.2024
 7234TIP3    H243194   0.946   5.948   3.937  0.0006 -0.1000 -0.0715
 7235TIP3   OH243195   4.397   0.465   0.081  0.4747 -0.2504  0.2698
 7235TIP3    H143196   4.391   0.400   0.151  0.3197  0.1426  0.6194
 7235TIP3    H243197   4.377   0.549   0.123 -0.4615 -0.1163 -0.4005
 7236TIP3   OH243198   5.858   3.635  11.652  0.3196 -0.0604 -0.4035
 7236TIP3    H143199   5.878   3.542  11.654  0.4064 -0.0104  2.1026
 7236TIP3    H243200   5.882   3.662  11.563  1.3740 -2.1806 -0.8032
 7237TIP3   OH243201   0.363   5.702  13.286 -0.0772 -0.3600  0.5778
 7237TIP3    H143202   0.317   5.669  13.209  0.1838  0.5036  0.0400
 7237TIP3    H243203   0.305   5.769  13.323  0.5589  0.4506  0.1251
 7238TIP3   OH243204   4.428   2.144  12.955  0.1339  0.6815 -0.3096
 7238TIP3    H143205   4.406   2.073  12.895  1.1547 -0.4414  0.5980
 7238TIP3    H243206   4.474   2.208  12.902  0.9022 -0.2384 -0.7614
 7239TIP3   OH243207   0.995   4.489  14.286  0.1535 -0.2026  0.2996
 7239TIP3    H143208   1.079   4.532  14.275 -0.2095  0.8085  1.3105
 7239TIP3    H243209   0.940   4.555  14.329 -0.7036 -1.3397  0.9881
 7240TIP3   OH243210   5.598   4.682  15.262 -0.1034  0.1779 -0.2755
 7240TIP3    H143211   5.541   4.613  15.228 -1.2510  0.4588  1.0090
 7240TIP3    H243212   5.539   4.755  15.279  0.9137  1.0474 -0.4673
 7241TIP3   OH243213   1.767   6.688   0.968  0.5927 -0.2345  0.1667
 7241TIP3    H143214   1.861   6.686   0.987  0.4091 -0.8834  1.0284
 7241TIP3    H243215   1.725   6.697   1.054 -0.1788 -1.3608 -0.0897
 7242TIP3   OH243216   3.701   2.410  15.891 -0.2634 -0.2722 -0.0521
 7242TIP3    H143217   3.693   2.323  15.851 -1.7409 -0.6974  1.0705
 7242TIP3    H243218   3.622   2.456  15.863  0.9508  1.0468 -1.3732
 7243TIP3   OH243219   4.204   0.645   2.230 -0.4231 -0.2036  0.2468
 7243TIP3    H143220   4.230   0.561   2.266 -0.1298 -0.2967 -0.1715
 7243TIP3    H243221   4.116   0.661   2.263 -0.3540 -0.5292  0.5756
 7244TIP3   OH243222   6.247   0.513   5.303  0.6935 -0.1338 -0.4701
 7244TIP3    H143223   6.172   0.562   5.337 -0.1436  0.3399 -2.9267
 7244TIP3    H243224   6.227   0.422   5.322  0.2871  0.1242  0.3746
 7245TIP3   OH243225   1.599   4.945   3.409 -0.3105 -0.2299  0.2331
 7245TIP3    H143226   1.529   4.882   3.428  0.2173 -1.1598 -0.9037
 7245TIP3    H243227   1.621   4.931   3.317 -0.0877  1.5233 -0.0042
 7246TIP3   OH243228   1.070   1.343  14.712 -0.3188 -0.2440 -0.0909
 7246TIP3    H143229   1.029   1.258  14.725 -1.4958 -0.0043 -2.1213
 7246TIP3    H243230   1.143   1.344  14.775 -2.3293 -1.3495  2.3557
 7247TIP3   OH243231   2.526   3.347  15.489 -0.7756  0.4343  0.2886
 7247TIP3    H143232   2.461   3.346  15.419 -1.6954 -0.8416  1.1505
 7247TIP3    H243233   2.488   3.294  15.558  0.8382  0.3468  1.1306
 7248TIP3   OH243234   4.629   0.779  12.041 -0.6107 -0.0769  0.3189
 7248TIP3    H143235   4.610   0.839  12.114 -0.9836 -1.8753  1.7384
 7248TIP3    H243236   4.679   0.708  12.082  0.6266 -0.2901 -1.5110
 7249TIP3   OH243237   4.575   3.299   4.280 -0.0777 -0.9560 -0.0587
 7249TIP3    H143238   4.651   3.299   4.339  1.5808 -0.1118 -2.0881
 7249TIP3    H243239   4.525   3.377   4.305 -0.0797 -1.3010  1.0449
 7250TIP3   OH243240   5.577   5.214  16.651 -0.4011  0.0145 -1.1646
 7250TIP3    H143241   5.527   5.187  16.729 -0.6894  1.0937 -0.9684
 7250TIP3    H243242   5.556   5.148  16.585  1.1429 -1.8639  0.1519
 7251TIP3   OH243243   0.550   3.884  11.833  0.3790  0.2578 -0.2983
 7251TIP3    H143244   0.646   3.890  11.831  0.4386 -0.3808  0.4110
 7251TIP3    H243245   0.529   3.820  11.765  0.6619 -1.8486  1.5626
 7252TIP3   OH243246   3.939   1.065  17.045 -0.2886  0.3520  0.4672
 7252TIP3    H143247   3.859   1.109  17.015  0.2344  1.2773  0.3992
 7252TIP3    H243248   3.981   1.129  17.102 -0.1522 -0.5523  1.3996
 7253TIP3   OH243249   2.683   0.250  15.920  0.1466  0.0855  0.2231
 7253TIP3    H143250   2.744   0.299  15.864 -0.5469  1.3958  0.5998
 7253TIP3    H243251   2.613   0.312  15.939 -2.9336 -2.3697 -2.7279
 7254TIP3   OH243252   4.094   0.687   4.487 -0.0614 -0.2068  0.0242
 7254TIP3    H143253   4.072   0.766   4.537  0.1709 -1.2466  1.8318
 7254TIP3    H243254   4.103   0.619   4.554 -0.8806 -1.9051 -1.5638
 7255TIP3   OH243255   4.958   4.529   3.301 -0.3198 -0.0805 -0.2798
 7255TIP3    H143256   4.960   4.573   3.386 -0.4984 -0.8537  0.1321
 7255TIP3    H243257   4.918   4.444   3.319 -0.1050 -0.3601 -1.0877
 7256TIP3   OH243258   5.261   4.731   5.310  0.4963  0.3528 -0.3512
 7256TIP3    H143259   5.281   4.812   5.358 -0.0717  0.3545 -0.1091
 7256TIP3    H243260   5.182   4.752   5.260 -1.3972 -0.9274  1.9859
 7257TIP3   OH243261   3.492   6.144  14.800 -0.1713 -0.3290  0.3957
 7257TIP3    H143262   3.518   6.101  14.718  0.7735  0.4136  0.2937
 7257TIP3    H243263   3.575   6.160  14.846 -0.5296  1.0249  0.6016
 7258TIP3   OH243264   0.513   5.472   6.682  0.2511 -0.3613  0.1116
 7258TIP3    H143265   0.591   5.476   6.627  1.4155 -1.7666  1.6096
 7258TIP3    H243266   0.450   5.422   6.630  0.9338 -0.6661 -0.4317
 7259TIP3   OH243267   0.244   0.641  16.786 -0.2722 -0.1680  0.0023
 7259TIP3    H143268   0.271   0.676  16.701  0.7413  0.8435  0.7212
 7259TIP3    H243269   0.150   0.662  16.792 -0.0422  0.9970 -0.2881
 7260TIP3   OH243270   1.428   5.265   4.772  0.3444  0.4212  0.4957
 7260TIP3    H143271   1.502   5.296   4.825  0.3199  1.2896  0.0435
 7260TIP3    H243272   1.373   5.217   4.833  2.0568 -1.6030  0.5098
 7261TIP3   OH243273   0.979   0.870  13.662  0.4507  0.2967  0.2462
 7261TIP3    H143274   1.047   0.829  13.608 -0.6275 -0.2577 -0.7065
 7261TIP3    H243275   1.005   0.962  13.666  0.8231  0.2521 -0.8005
 7262TIP3   OH243276   1.935   0.437  17.211  0.0982  0.1388  0.1355
 7262TIP3    H143277   1.879   0.432  17.288  0.0766 -0.3468  0.0892
 7262TIP3    H243278   2.024   0.430  17.245  0.0468 -1.2085  0.0161
 7263TIP3   OH243279   1.035   2.620   6.754  0.3091  0.1973 -0.8786
 7263TIP3    H143280   0.994   2.694   6.709  0.1363  0.4812 -0.2652
 7263TIP3    H243281   0.964   2.556   6.765 -0.1080  0.8805  0.5968
 7264TIP3   OH243282   4.075   6.278   5.047  0.2522 -0.1046  0.8168
 7264TIP3    H143283   3.986   6.253   5.020 -0.0031 -0.9849  2.4590
 7264TIP3    H243284   4.092   6.359   4.999 -1.9428  0.7925  1.5071
 7265TIP3   OH243285   2.064   0.296  13.475  0.1600  0.1592 -0.0196
 7265TIP3    H143286   2.042   0.286  13.382 -2.7361  1.8525  0.4382
 7265TIP3    H243287   2.149   0.341  13.474 -0.3830  1.2018 -1.8594
 7266TIP3   OH243288   2.910   3.720  13.664 -0.1207 -0.6366 -0.7985
 7266TIP3    H143289   2.882   3.665  13.738  0.9629 -1.6050 -1.1055
 7266TIP3    H243290   2.977   3.777  13.701 -1.7022  0.9571 -0.3195
 7267TIP3   OH243291   4.206   0.986   3.799  0.1319  0.2610 -0.3135
 7267TIP3    H143292   4.266   1.057   3.821 -0.2527  0.4370  0.1892
 7267TIP3    H243293   4.241   0.910   3.845 -1.2591  0.8603  1.8645
 7268TIP3   OH243294   3.056   0.128  13.930  0.1745 -0.0313  0.4546
 7268TIP3    H143295   2.988   0.070  13.965 -1.3997  0.9717 -0.8102
 7268TIP3    H243296   3.128   0.121  13.991 -0.6858 -1.9249  1.3011
 7269TIP3   OH243297   0.054   5.670  10.771  0.2096  0.4382  0.3308
 7269TIP3    H143298  -0.025   5.714  10.802 -0.8653  0.4191 -2.2935
 7269TIP3    H243299   0.111   5.741  10.741  0.9927  0.4151  1.7161
 7270TIP3   OH243300   2.958   1.580  13.844  0.3073  0.4554  0.2727
 7270TIP3    H143301   3.035   1.631  13.818  0.7337 -1.1215 -1.6467
 7270TIP3    H243302   2.894   1.598  13.775  0.1162 -0.8006  0.1102
 7271TIP3   OH243303   4.627   2.536   4.826 -0.0756  0.3605 -0.1860
 7271TIP3    H143304   4.689   2.527   4.898 -0.5584 -0.5556  0.1187
 7271TIP3    H243305   4.636   2.628   4.799  0.7732  0.4686  0.4258
 7272TIP3   OH243306   0.172   1.254  13.682  0.3097  0.3783 -0.8104
 7272TIP3    H143307   0.115   1.178  13.665 -1.3074  1.1449  0.9399
 7272TIP3    H243308   0.161   1.310  13.606  0.9408 -0.7852 -1.7833
 7273TIP3   OH243309   3.465   6.800  12.576 -0.9747 -0.7533  0.1672
 7273TIP3    H143310   3.462   6.707  12.557 -1.6082 -0.8614  0.7720
 7273TIP3    H243311   3.409   6.840  12.510 -0.1106 -0.7148 -0.5545
 7274TIP3   OH243312   6.621   0.668  12.773  0.0471  0.1312  0.3862
 7274TIP3    H143313   6.629   0.760  12.747  0.3156 -0.2346 -0.8792
 7274TIP3    H243314   6.588   0.624  12.695 -2.5247 -0.4475  1.7609
 7275TIP3   OH243315   1.889   2.007   0.389  0.0074  0.0218 -0.1894
 7275TIP3    H143316   1.865   2.090   0.430  3.6730  1.3345 -0.4797
 7275TIP3    H243317   1.812   1.952   0.399 -3.0581  3.8946 -1.2773
 7276TIP3   OH243318   1.918   0.254   5.501 -1.0739  0.1739  0.1759
 7276TIP3    H143319   1.875   0.325   5.452 -0.5236  2.2446  2.5423
 7276TIP3    H243320   1.958   0.199   5.434 -3.3968  0.8562 -1.8472
 7277TIP3   OH243321   6.310   1.704  16.902  1.0992  0.3446  0.3293
 7277TIP3    H143322   6.325   1.797  16.883 -1.3198  0.6190 -0.4242
 7277TIP3    H243323   6.219   1.689  16.877  1.7476 -2.4943 -0.5364
 7278TIP3   OH243324   2.695   6.458  15.656  0.1128  0.3298  0.2371
 7278TIP3    H143325   2.741   6.491  15.733  1.1500 -1.3127  0.3365
 7278TIP3    H243326   2.760   6.405  15.610 -1.5996 -1.8222  0.2476
 7279TIP3   OH243327   0.236   5.134  11.687  0.8764 -0.2312 -0.2863
 7279TIP3    H143328   0.213   5.209  11.631 -1.3692  0.1710  1.1025
 7279TIP3    H243329   0.326   5.151  11.714  0.0664  2.5378  0.8379
 7280TIP3   OH243330   6.535   5.500   1.682 -0.1396  0.2062 -0.2830
 7280TIP3    H143331   6.550   5.585   1.725  0.0251 -0.1811  0.4378
 7280TIP3    H243332   6.608   5.445   1.712 -0.9275 -0.5606  0.2486
 7281TIP3   OH243333   5.156   3.786  13.358  0.8909  1.0668 -0.1151
 7281TIP3    H143334   5.195   3.705  13.390  0.2408  0.2417 -1.3591
 7281TIP3    H243335   5.211   3.812  13.284  1.6669  2.3002  0.8653
 7282TIP3   OH243336   3.940   6.591   4.311 -0.4493  0.1270  0.1627
 7282TIP3    H143337   3.956   6.629   4.398  2.7158 -0.6704 -0.0120
 7282TIP3    H243338   3.947   6.664   4.251 -0.0008  0.2181  0.3276
 7283TIP3   OH243339   4.758   5.587   0.020  0.2612 -0.5328  0.3588
 7283TIP3    H143340   4.745   5.492   0.017 -0.5143 -0.4548  0.9022
 7283TIP3    H243341   4.697   5.621  -0.046 -1.4833 -0.2481  2.0523
 7284TIP3   OH243342   3.055   4.346  13.412 -0.4156  0.0766  0.4429
 7284TIP3    H143343   3.132   4.388  13.451 -0.1925  0.0615  0.0200
 7284TIP3    H243344   3.091   4.287  13.346 -0.7833 -0.0738  0.3786
 7285TIP3   OH243345   1.625   1.492   4.389  0.3923 -0.7156 -1.0555
 7285TIP3    H143346   1.688   1.511   4.458 -0.6170 -2.3133  0.3415
 7285TIP3    H243347   1.632   1.566   4.329  1.5372  0.5299  0.5836
 7286TIP3   OH243348   0.084   0.420   3.363 -0.6682 -0.5096  0.0198
 7286TIP3    H143349   0.131   0.342   3.390  0.3665  0.2721  0.5078
 7286TIP3    H243350   0.109   0.487   3.426  0.1066  0.7642 -1.5883
 7287TIP3   OH243351   5.468   1.221   2.787 -0.4935  0.1244 -0.2261
 7287TIP3    H143352   5.481   1.211   2.693 -0.4909 -0.1701 -0.1939
 7287TIP3    H243353   5.553   1.247   2.821 -0.3809 -0.2349 -0.2375
 7288TIP3   OH243354   1.312   6.373   3.867 -0.2325  0.2453  0.0076
 7288TIP3    H143355   1.234   6.326   3.897 -0.7148  0.2662 -1.1726
 7288TIP3    H243356   1.336   6.330   3.785  1.4897 -0.2770  0.7657
 7289TIP3   OH243357   3.092   1.468  17.019 -0.6554 -0.2849 -0.5055
 7289TIP3    H143358   3.130   1.381  17.029 -0.4632  0.0502  2.1339
 7289TIP3    H243359   3.054   1.468  16.931 -0.5401 -2.9611 -0.6032
 7290TIP3   OH243360   2.867   6.282   2.598  0.2606  0.5206 -0.0843
 7290TIP3    H143361   2.783   6.252   2.562  0.8787 -1.6098  0.1974
 7290TIP3    H243362   2.866   6.252   2.688  2.6754 -2.3813 -0.9605
 7291TIP3   OH243363   3.619   4.350  15.427  0.3901  0.1169  0.4566
 7291TIP3    H143364   3.542   4.400  15.400 -1.3727 -1.6130  2.1139
 7291TIP3    H243365   3.677   4.414  15.468 -0.7133  1.2180  0.3193
 7292TIP3   OH243366   2.388   2.107  13.843  0.2315  0.1187  0.5361
 7292TIP3    H143367   2.482   2.121  13.833  0.2615  0.4454  1.2511
 7292TIP3    H243368   2.366   2.152  13.924 -0.3135 -0.9828  1.0092
 7293TIP3   OH243369   2.573   3.926   5.224 -0.1133 -0.0551 -0.3786
 7293TIP3    H143370   2.553   4.013   5.190 -0.3742 -0.6037 -1.7071
 7293TIP3    H243371   2.552   3.867   5.151 -1.8629 -1.4118  1.1440
 7294TIP3   OH243372   0.449   4.297  12.738  0.1966  0.3093 -0.0039
 7294TIP3    H143373   0.535   4.326  12.770 -0.1324 -0.4751  1.6375
 7294TIP3    H243374   0.395   4.375  12.740  0.3958  0.4331  0.6296
 7295TIP3   OH243375   5.424   5.917  14.052 -0.0364  0.0054  0.4118
 7295TIP3    H143376   5.360   5.876  13.994  0.6655  0.9228 -1.0555
 7295TIP3    H243377   5.434   6.006  14.017  1.2756  0.1939  1.2385
 7296TIP3   OH243378   3.974   6.299  15.477  0.2509  0.2272  0.4132
 7296TIP3    H143379   3.963   6.378  15.529  3.1274  0.3853  0.8330
 7296TIP3    H243380   4.049   6.317  15.421  0.5822 -1.9861  0.0903
 7297TIP3   OH243381   5.031   1.897   1.629  0.0804 -0.2415  0.5720
 7297TIP3    H143382   4.966   1.835   1.661  0.0592  0.3878  1.7561
 7297TIP3    H243383   5.114   1.849   1.633 -0.2373 -0.8911 -0.5096
 7298TIP3   OH243384   5.992   4.181   1.626 -0.1378 -0.7004 -0.6712
 7298TIP3    H143385   6.051   4.124   1.577  1.3821  0.0645  0.2202
 7298TIP3    H243386   5.986   4.260   1.571 -0.7252 -0.9740 -0.9989
 7299TIP3   OH243387   1.832   3.634   2.514 -0.3482 -0.3392  0.3099
 7299TIP3    H143388   1.759   3.689   2.545 -0.4515 -1.4618  2.1779
 7299TIP3    H243389   1.794   3.546   2.509 -0.0350 -0.3676 -2.1145
 7300TIP3   OH243390   6.212   6.182  12.073  0.3320  0.1729 -0.3758
 7300TIP3    H143391   6.134   6.187  12.129  0.9050  0.7385  0.3703
 7300TIP3    H243392   6.230   6.273  12.051 -0.2219 -0.0791 -1.9488
 7301TIP3   OH243393   4.075   4.868  13.537 -0.2874  0.0398 -0.6900
 7301TIP3    H143394   4.046   4.830  13.620 -0.1955  0.7204 -0.3481
 7301TIP3    H243395   4.052   4.961  13.544 -2.7273 -0.3832 -2.4993
 7302TIP3   OH243396   3.061   6.220  13.156  0.1019  0.4798  0.6176
 7302TIP3    H143397   3.117   6.263  13.221 -0.1461 -1.0983  1.8883
 7302TIP3    H243398   3.039   6.135  13.194  0.4222 -0.7323 -1.7847
 7303TIP3   OH243399   3.371   2.575  12.614 -0.0768  0.5636 -0.2188
 7303TIP3    H143400   3.456   2.598  12.577  0.5008 -0.8068  0.2099
 7303TIP3    H243401   3.339   2.656  12.653  1.3299  0.9486  0.1844
 7304TIP3   OH243402   2.123   0.933   4.029  0.3493  0.1859 -0.0075
 7304TIP3    H143403   2.068   0.928   3.951  0.7169 -1.2510 -0.1954
 7304TIP3    H243404   2.150   1.024   4.034 -0.2522  0.4394 -1.1622
 7305TIP3   OH243405   1.107   5.541  14.191 -0.5195 -0.0325  0.5259
 7305TIP3    H143406   1.083   5.567  14.280  0.7077  1.4300  0.4338
 7305TIP3    H243407   1.062   5.604  14.134  1.1662  0.9402  0.2395
 7306TIP3   OH243408   2.906   6.742  12.046 -0.2288  0.2006 -0.4281
 7306TIP3    H143409   2.989   6.705  12.076 -1.2289 -0.9086  1.0375
 7306TIP3    H243410   2.887   6.813  12.108 -0.4346  0.3577 -0.6685
 7307TIP3   OH243411   4.086   3.432  14.144  0.0700 -0.0639 -0.7083
 7307TIP3    H143412   4.123   3.502  14.090  1.3644  0.2054  0.5152
 7307TIP3    H243413   4.010   3.472  14.186 -0.2579  0.0656 -1.4139
 7308TIP3   OH243414   6.786   5.350   2.223 -0.0836 -0.4293  0.2944
 7308TIP3    H143415   6.759   5.302   2.145 -4.2127 -1.5289  2.2762
 7308TIP3    H243416   6.836   5.287   2.274  0.6804 -0.4012 -0.4205
 7309TIP3   OH243417   1.545   4.497  14.151  0.0696  0.0141 -0.6669
 7309TIP3    H143418   1.631   4.458  14.169 -0.8210 -1.0246  1.5367
 7309TIP3    H243419   1.485   4.422  14.147 -0.9907  0.8477 -0.6810
 7310TIP3   OH243420   6.230   1.141   5.169  0.7147  0.2660  0.2147
 7310TIP3    H143421   6.171   1.152   5.243 -0.1358 -0.3594 -0.3539
 7310TIP3    H243422   6.173   1.149   5.092  1.5442  0.6901 -0.3621
 7311TIP3   OH243423   5.485   4.500  12.239 -0.2934  0.6589  0.1576
 7311TIP3    H143424   5.523   4.447  12.168 -0.8285 -0.3541  0.6181
 7311TIP3    H243425   5.417   4.552  12.196 -1.5642 -0.9662  0.1377
 7312TIP3   OH243426   6.812   4.034   3.636  0.4384  0.3927 -0.5998
 7312TIP3    H143427   6.757   3.979   3.580  0.9960  0.3305 -1.0833
 7312TIP3    H243428   6.891   4.050   3.585  0.8535  0.5243  0.0747
 7313TIP3   OH243429   3.161   1.666  12.315 -0.1342 -0.6107 -0.3417
 7313TIP3    H143430   3.232   1.633  12.369  0.9544  3.7964  1.0540
 7313TIP3    H243431   3.087   1.674  12.375 -0.5394 -0.8707 -0.7927
 7314TIP3   OH243432   3.644   6.755   4.246  0.3093 -0.3660  1.0449
 7314TIP3    H143433   3.678   6.844   4.256 -0.5338  0.0329  0.4669
 7314TIP3    H243434   3.697   6.702   4.306  1.5935  0.3181  0.5455
 7315TIP3   OH243435   2.883   2.706  11.100  0.0165  0.4676  0.8489
 7315TIP3    H143436   2.806   2.660  11.066 -0.9277  0.0451  3.4736
 7315TIP3    H243437   2.927   2.642  11.157  1.5141  1.1890  0.5488
 7316TIP3   OH243438   5.982   2.722  12.109  0.3683 -0.0486 -0.6903
 7316TIP3    H143439   5.904   2.670  12.092 -0.1411 -0.0721  1.5651
 7316TIP3    H243440   5.962   2.808  12.070 -1.2572  0.2830  0.7936
 7317TIP3   OH243441   2.088   2.432  15.949  0.1619 -0.2325 -0.4624
 7317TIP3    H143442   2.143   2.383  16.010  1.5471 -0.1775 -1.6062
 7317TIP3    H243443   2.033   2.487  16.004 -0.4822 -2.1060  0.7972
 7318TIP3   OH243444   5.230   3.397  10.372  0.2282 -0.4556 -0.3184
 7318TIP3    H143445   5.236   3.490  10.349 -0.2373 -0.1378  0.8185
 7318TIP3    H243446   5.253   3.394  10.464 -1.8413 -1.1864  0.1925
 7319TIP3   OH243447   3.587   5.503   5.462  0.7228 -0.6256 -0.2547
 7319TIP3    H143448   3.624   5.458   5.538  0.9329 -0.7974 -0.4588
 7319TIP3    H243449   3.494   5.477   5.462  0.1686  1.2686  1.3255
 7320TIP3   OH243450   0.236   0.507   5.972  0.3978  0.4909  0.0981
 7320TIP3    H143451   0.195   0.534   6.054 -0.1188  1.7969 -0.5722
 7320TIP3    H243452   0.253   0.414   5.983 -0.8717  0.3762  1.1816
 7321TIP3   OH243453   5.398   6.260   0.621 -0.1239 -0.0539  0.1965
 7321TIP3    H143454   5.424   6.184   0.568  1.6150 -1.1054  2.4958
 7321TIP3    H243455   5.379   6.329   0.556 -0.8241 -2.1411 -1.8766
 7322TIP3   OH243456   1.618   3.980   4.735  0.0565 -0.1262  0.3330
 7322TIP3    H143457   1.619   4.006   4.643  0.5859  1.0882  0.6598
 7322TIP3    H243458   1.665   3.897   4.737  0.1480 -0.1008 -0.4730
 7323TIP3   OH243459   3.934   4.418  16.083  0.6335 -0.1008 -0.7266
 7323TIP3    H143460   4.019   4.386  16.054  0.5254  0.0588 -1.2236
 7323TIP3    H243461   3.918   4.374  16.166  0.4789 -1.3343 -1.3988
 7324TIP3   OH243462   5.091   0.956   4.706  0.0434  0.3114 -0.2315
 7324TIP3    H143463   4.995   0.957   4.711  0.0952  0.3753  0.8462
 7324TIP3    H243464   5.114   1.045   4.679 -0.1933  0.3649 -0.2628
 7325TIP3   OH243465   5.985   5.475   0.978 -0.4001  0.0144 -0.3175
 7325TIP3    H143466   5.937   5.520   1.046 -1.0543  1.9675 -2.0255
 7325TIP3    H243467   5.942   5.500   0.896  0.3456 -2.2761 -1.4748
 7326TIP3   OH243468   6.488   6.354   0.196  0.4670 -0.0796 -0.2162
 7326TIP3    H143469   6.572   6.395   0.175  0.6354 -1.2508 -1.9615
 7326TIP3    H243470   6.508   6.260   0.200 -0.3634 -0.1970  1.4152
 7327TIP3   OH243471   4.519   4.809   0.765  0.5931 -0.1731 -0.0276
 7327TIP3    H143472   4.512   4.715   0.744  0.2576  0.4355 -2.9061
 7327TIP3    H243473   4.445   4.826   0.823 -0.5729 -1.3006 -1.1448
 7328TIP3   OH243474   0.057   0.586  13.956 -0.6664 -0.3555 -0.2587
 7328TIP3    H143475  -0.006   0.653  13.983 -0.5152  0.4589 -1.8995
 7328TIP3    H243476   0.141   0.633  13.952 -0.2952 -0.9919  0.0441
 7329TIP3   OH243477   3.552   0.545  10.995  0.6084  0.4679 -0.3166
 7329TIP3    H143478   3.576   0.538  10.902  2.2683  1.4317  0.0030
 7329TIP3    H243479   3.612   0.486  11.039 -1.4886 -1.4918 -0.0143
 7330TIP3   OH243480   2.699   3.911   0.292 -0.4198  0.1973  0.1661
 7330TIP3    H143481   2.695   3.816   0.300 -1.3554  0.2074 -0.2041
 7330TIP3    H243482   2.612   3.937   0.263 -1.2502  1.4732  3.4891
 7331TIP3   OH243483   6.573   2.376  12.812 -0.1242  0.1324 -0.0606
 7331TIP3    H143484   6.662   2.403  12.834 -0.1771  0.5204 -0.3169
 7331TIP3    H243485   6.559   2.296  12.862 -0.8858  1.9739  2.8205
 7332TIP3   OH243486   0.663   4.377  15.477  0.4645 -0.0013 -0.1429
 7332TIP3    H143487   0.659   4.444  15.545  0.4245 -0.1066 -0.0391
 7332TIP3    H243488   0.693   4.298  15.524  0.4455 -0.0718 -0.2483
 7333TIP3   OH243489   3.185   4.358   1.700  0.3275 -0.5393 -0.0009
 7333TIP3    H143490   3.101   4.333   1.740  0.6667  0.1555  1.1947
 7333TIP3    H243491   3.174   4.340   1.607 -1.6700  0.8951 -0.0800
 7334TIP3   OH243492   3.170   1.917  13.122 -0.0517  0.2457 -0.1839
 7334TIP3    H143493   3.232   1.845  13.130  0.8837  0.9222 -1.2697
 7334TIP3    H243494   3.220   1.995  13.146 -0.2765  0.8841 -1.7454
 7335TIP3   OH243495   2.316   2.088  12.022 -0.0015  0.0745 -0.2441
 7335TIP3    H143496   2.314   1.993  12.016  0.3403 -0.1980  2.9419
 7335TIP3    H243497   2.391   2.107  12.078 -0.4839  2.1707 -0.2573
 7336TIP3   OH243498   5.833   4.386   1.755 -0.4216 -0.5846  0.0738
 7336TIP3    H143499   5.870   4.300   1.777 -1.5386 -0.8266  1.0634
 7336TIP3    H243500   5.833   4.388   1.659 -0.3816 -1.6774  0.0428
 7337TIP3   OH243501   3.041   0.800  12.877 -0.1518  0.6028 -0.3626
 7337TIP3    H143502   3.010   0.778  12.790 -0.9099  0.3012 -0.0192
 7337TIP3    H243503   3.022   0.894  12.886 -2.5577  0.0696  0.4804
 7338TIP3   OH243504   4.018   5.685  12.874 -0.4102 -0.1993 -0.2370
 7338TIP3    H143505   4.029   5.594  12.901 -1.2671 -0.4304 -0.6370
 7338TIP3    H243506   3.939   5.714  12.920  0.2633  0.5647  0.4529
 7339TIP3   OH243507   6.082   6.001  14.802 -0.4108  0.5409  0.7412
 7339TIP3    H143508   6.174   5.984  14.824  0.1230  1.3726 -0.8007
 7339TIP3    H243509   6.083   6.085  14.757 -1.7688 -0.1143 -0.5450
 7340TIP3   OH243510   4.174   0.032  12.606  0.2537  0.2048 -0.7511
 7340TIP3    H143511   4.229   0.106  12.630  1.7313 -1.4168  0.9898
 7340TIP3    H243512   4.137   0.001  12.689 -1.6778  0.0013 -1.6562
 7341TIP3   OH243513   3.694   2.758   3.758  0.2650 -0.1406  0.0301
 7341TIP3    H143514   3.663   2.721   3.676  0.7988 -1.3880  0.3850
 7341TIP3    H243515   3.674   2.852   3.751 -0.5382 -0.3872 -1.1214
 7342TIP3   OH243516   1.254   0.827  13.599 -0.0409  0.5322 -0.2322
 7342TIP3    H143517   1.279   0.875  13.520 -1.0763  1.4096 -0.0282
 7342TIP3    H243518   1.304   0.869  13.669 -0.3004  0.7466 -0.1795
 7343TIP3   OH243519   1.841   2.557   4.222  0.4749  0.4992  0.0260
 7343TIP3    H143520   1.826   2.588   4.312  0.5116  0.6813 -0.0305
 7343TIP3    H243521   1.885   2.473   4.233 -0.1562  0.1875  0.1846
 7344TIP3   OH243522   1.444   0.302  12.053  0.6454  0.0099  0.2952
 7344TIP3    H143523   1.466   0.210  12.037 -1.4710 -0.3145 -0.8912
 7344TIP3    H243524   1.449   0.312  12.148  0.8397 -1.3533  0.4353
 7345TIP3   OH243525   0.152   4.728  15.943  0.2994  0.5398  0.1621
 7345TIP3    H143526   0.133   4.813  15.903 -1.1737  0.3321  0.4077
 7345TIP3    H243527   0.132   4.664  15.876 -0.9472  0.2633  0.7796
 7346TIP3   OH243528   0.799   2.399   5.075  0.4217  0.2195 -0.0296
 7346TIP3    H143529   0.847   2.328   5.032 -1.0982  0.0806 -1.5958
 7346TIP3    H243530   0.847   2.416   5.156  1.5967 -1.6544 -0.3033
 7347TIP3   OH243531   6.796   1.233   0.129 -0.0163  0.0849  0.1159
 7347TIP3    H143532   6.707   1.198   0.138  0.4937 -1.1871  0.3432
 7347TIP3    H243533   6.799   1.308   0.189 -0.6334 -0.4794  0.8651
 7348TIP3   OH243534   2.944   4.155   3.806 -0.0070 -0.0137 -0.1186
 7348TIP3    H143535   2.854   4.187   3.803 -0.2995 -0.9324 -1.3785
 7348TIP3    H243536   2.990   4.207   3.740  0.1803 -0.1642 -0.1066
 7349TIP3   OH243537   4.954   0.180   4.935 -0.1123  0.0186 -0.1991
 7349TIP3    H143538   5.020   0.248   4.921  0.6685 -0.6401  0.2561
 7349TIP3    H243539   5.003   0.098   4.932 -1.1948 -0.5938 -1.7049
 7350TIP3   OH243540   1.324   3.876  12.510  0.1698  0.0717  0.0533
 7350TIP3    H143541   1.290   3.925  12.585 -0.7574 -2.6342  1.4979
 7350TIP3    H243542   1.419   3.882  12.518  0.1096  2.6757 -0.5757
 7351TIP3   OH243543   1.568   2.581   5.698  0.8674  0.1308  0.0557
 7351TIP3    H143544   1.554   2.559   5.606  0.9344  1.2838 -0.2437
 7351TIP3    H243545   1.660   2.560   5.714  1.0031  0.4588 -0.2948
 7352TIP3   OH243546   1.393   5.094   3.093 -0.4788  0.3015  0.3693
 7352TIP3    H143547   1.435   5.030   3.150 -1.8327  0.4738  1.5732
 7352TIP3    H243548   1.465   5.127   3.038  0.6991 -0.4195  1.4320
 7353TIP3   OH243549   1.142   6.767  15.812  0.2240 -0.0623 -0.3004
 7353TIP3    H143550   1.089   6.813  15.877  0.0211  0.4534 -0.8254
 7353TIP3    H243551   1.197   6.708  15.863  0.0215  0.2954  0.3323
 7354TIP3   OH243552   1.144   3.709   0.066  0.1061  0.3144  0.3072
 7354TIP3    H143553   1.097   3.627   0.051  2.2278 -0.8783  0.0622
 7354TIP3    H243554   1.079   3.766   0.108 -1.6738 -1.1427 -0.3884
 7355TIP3   OH243555   2.724   6.558  13.446  0.2365  0.4631 -0.0305
 7355TIP3    H143556   2.732   6.591  13.535 -0.7440 -1.0664  0.6517
 7355TIP3    H243557   2.807   6.515  13.428 -0.8058 -2.3064  1.4816
 7356TIP3   OH243558   3.470   0.216  17.060  0.1769  0.3091 -0.0286
 7356TIP3    H143559   3.436   0.134  17.025 -1.2299  1.3440 -1.1509
 7356TIP3    H243560   3.502   0.264  16.984 -0.5462  1.4953  0.3945
 7357TIP3   OH243561   1.356   6.459   5.097  0.1595  0.1282  0.3123
 7357TIP3    H143562   1.421   6.518   5.135  0.3383  0.0222  0.1714
 7357TIP3    H243563   1.354   6.384   5.156 -0.8006  0.7224  1.0440
 7358TIP3   OH243564   3.953   0.053   4.242  0.6316  0.4235  0.2373
 7358TIP3    H143565   3.977   0.098   4.161  2.2122  1.8398  1.4641
 7358TIP3    H243566   3.923   0.122   4.300  0.3675 -0.4831  1.1899
 7359TIP3   OH243567   3.146   4.324   4.154 -0.3468 -0.6172 -0.1865
 7359TIP3    H143568   3.142   4.228   4.162  0.1505 -1.0413 -4.0064
 7359TIP3    H243569   3.055   4.351   4.140 -0.3145 -0.7012 -0.5635
 7360TIP3   OH243570   1.511   4.414  16.768 -0.3786 -0.0008 -0.7659
 7360TIP3    H143571   1.506   4.503  16.733  2.6222  0.5329  0.0169
 7360TIP3    H243572   1.525   4.359  16.691 -1.2089  0.3153 -1.1495
 7361TIP3   OH243573   0.538   3.858   1.661 -0.7505 -0.3906  0.3824
 7361TIP3    H143574   0.508   3.946   1.636  0.1290 -0.5131 -1.2163
 7361TIP3    H243575   0.479   3.799   1.614  1.0442 -0.6292 -1.6358
 7362TIP3   OH243576   3.384   6.428  13.608 -0.1843  0.2135 -0.5397
 7362TIP3    H143577   3.294   6.409  13.580 -0.7606  0.8828  0.8480
 7362TIP3    H243578   3.381   6.425  13.703  1.3130  0.0813 -0.4866
 7363TIP3   OH243579   3.460   4.838  16.877  0.1356 -0.5975 -0.8512
 7363TIP3    H143580   3.454   4.814  16.785 -0.6994 -0.9247 -0.7169
 7363TIP3    H243581   3.369   4.848  16.905  0.3865 -0.4527 -0.0799
 7364TIP3   OH243582   5.739   2.364  15.237 -0.3182  0.2589 -0.1527
 7364TIP3    H143583   5.831   2.353  15.212 -0.6067 -0.7171 -0.8208
 7364TIP3    H243584   5.734   2.328  15.325  0.1147  1.0899  0.2137
 7365TIP3   OH243585   0.590   4.738   1.985 -0.6889 -0.0658  0.3401
 7365TIP3    H143586   0.566   4.795   1.912  0.5835  0.3070  0.2154
 7365TIP3    H243587   0.538   4.770   2.059 -1.7461 -0.2490 -0.3065
 7366TIP3   OH243588   6.505   4.780   1.532 -0.1687  0.0435 -0.0807
 7366TIP3    H143589   6.525   4.697   1.575  0.3326 -0.1102 -0.5892
 7366TIP3    H243590   6.443   4.824   1.590  0.7713  0.0048  0.9787
 7367TIP3   OH243591   1.079   0.401   3.736  0.2406  0.4645 -0.0055
 7367TIP3    H143592   1.068   0.433   3.825  0.8207  0.1840  0.1688
 7367TIP3    H243593   1.165   0.359   3.736  0.6530  1.2622 -0.9291
 7368TIP3   OH243594   0.265   0.262  13.679 -0.0820  0.5439 -0.5645
 7368TIP3    H143595   0.322   0.191  13.708 -0.4598  0.5642  0.2442
 7368TIP3    H243596   0.292   0.337  13.731 -0.7567  0.5869 -0.2688
 7369TIP3   OH243597   4.337   6.636  14.478  0.1190  0.4546 -0.2149
 7369TIP3    H143598   4.243   6.624  14.466  0.3588 -2.0009  0.1099
 7369TIP3    H243599   4.376   6.590  14.404  1.1121  0.3724  0.3543
 7370TIP3   OH243600   1.933   0.766   4.426  0.4283  0.3520 -0.4316
 7370TIP3    H143601   1.846   0.793   4.457 -0.0986  0.5296 -2.0329
 7370TIP3    H243602   1.917   0.685   4.377  1.4184 -0.5564  0.6844
 7371TIP3   OH243603   2.676   3.238   3.188  0.4164  0.0399  0.1411
 7371TIP3    H143604   2.751   3.298   3.179 -1.6023  2.8871  1.3787
 7371TIP3    H243605   2.620   3.281   3.253 -3.2299 -1.0357 -2.1781
 7372TIP3   OH243606   1.084   3.649  12.027  0.3251  0.3255 -0.4057
 7372TIP3    H143607   1.078   3.730  12.077  1.3935  0.0730  0.1616
 7372TIP3    H243608   1.009   3.597  12.055  0.5723  0.4405  0.4842
 7373TIP3   OH243609   2.658   2.876   2.608  0.5895 -0.3508  0.1639
 7373TIP3    H143610   2.594   2.943   2.586  1.0223 -0.4161 -1.3426
 7373TIP3    H243611   2.625   2.838   2.690 -0.6600  0.4059  0.0316
 7374TIP3   OH243612   4.348   3.249   3.311 -0.4600  0.5083  0.7490
 7374TIP3    H143613   4.263   3.255   3.355 -0.9046  0.8747 -0.1465
 7374TIP3    H243614   4.378   3.159   3.329 -1.5273  0.0300  0.1933
 7375TIP3   OH243615   6.769   5.099   1.266 -0.0578 -0.2642 -0.0292
 7375TIP3    H143616   6.753   5.065   1.178 -0.8907 -0.9768  0.3995
 7375TIP3    H243617   6.762   5.194   1.256  0.4505 -0.2993 -0.8462
 7376TIP3   OH243618   1.298   2.046  12.772  0.3483  0.3808 -0.1332
 7376TIP3    H143619   1.268   2.078  12.686  1.1340  0.7631 -0.2634
 7376TIP3    H243620   1.313   2.125  12.823 -1.0109  0.1404  0.6785
 7377TIP3   OH243621   2.648   2.435   2.457  0.0952 -0.0707 -0.4287
 7377TIP3    H143622   2.681   2.507   2.509  0.1359  0.1168 -0.7140
 7377TIP3    H243623   2.720   2.372   2.454  1.3878  1.4324 -3.1715
 7378TIP3   OH243624   3.397   2.542   1.937  0.4266 -0.0978 -0.0629
 7378TIP3    H143625   3.311   2.573   1.909 -0.2439 -0.6558  1.3032
 7378TIP3    H243626   3.421   2.600   2.010  0.5469 -0.8609  0.5103
 7379TIP3   OH243627   6.713   1.000   1.744 -0.0947 -0.0915 -0.3201
 7379TIP3    H143628   6.620   1.008   1.766 -0.3112 -0.1911 -1.1818
 7379TIP3    H243629   6.754   1.077   1.784 -0.5593  0.0024 -0.0176
 7380TIP3   OH243630   2.102   5.232  17.109  0.2268  0.6326  0.4338
 7380TIP3    H143631   2.113   5.151  17.059  0.1928  0.2695  1.0082
 7380TIP3    H243632   2.184   5.241  17.158  1.2206  2.2195 -1.4210
 7381TIP3   OH243633   5.991   6.621  12.131  0.0138  0.4352  0.0668
 7381TIP3    H143634   6.066   6.655  12.083 -0.6653  1.1771 -0.4849
 7381TIP3    H243635   5.935   6.582  12.064  1.4172 -3.0246  0.8326
 7382TIP3   OH243636   3.562   4.376  12.757 -0.4903  0.7841 -0.2000
 7382TIP3    H143637   3.485   4.370  12.701 -1.8745 -0.8220  1.8052
 7382TIP3    H243638   3.603   4.289  12.750  0.7736  1.3971 -0.6990
 7383TIP3   OH243639   1.451   4.173   0.862  0.8167  0.0879  0.2563
 7383TIP3    H143640   1.511   4.242   0.889  1.8610 -0.8859  0.4370
 7383TIP3    H243641   1.479   4.096   0.910 -0.5136 -0.4067  0.2612
 7384TIP3   OH243642   6.137   4.068   1.032  0.5880 -0.1871 -0.0531
 7384TIP3    H143643   6.173   4.155   1.051  0.2470  0.0847 -0.6264
 7384TIP3    H243644   6.044   4.076   1.055 -0.1311  0.5393 -2.9787
 7385TIP3   OH243645   4.197   5.035   2.420 -0.3262 -0.1997  0.2999
 7385TIP3    H143646   4.260   5.010   2.352 -0.2050  0.8541  0.0198
 7385TIP3    H243647   4.153   4.953   2.443  0.3507 -0.7420 -0.3163
 7386TIP3   OH243648   1.737   4.114  17.242  0.7323 -0.0557  0.2968
 7386TIP3    H143649   1.772   4.080  17.324  0.8566 -1.0680 -0.1642
 7386TIP3    H243650   1.814   4.127  17.186  0.6069  0.1440  0.1701
 7387TIP3   OH243651   0.624   2.199   0.967 -0.1899 -0.9419  0.2765
 7387TIP3    H143652   0.627   2.271   1.029 -0.0832  1.3928 -2.3276
 7387TIP3    H243653   0.716   2.175   0.953 -0.0144  0.4330 -1.0578
 7388TIP3   OH243654   3.839   1.715   1.963 -0.0104 -0.2180 -0.0598
 7388TIP3    H143655   3.886   1.786   1.920 -0.3867  0.5910  0.8369
 7388TIP3    H243656   3.904   1.646   1.974  0.6913  0.4770  0.1908
 7389TIP3   OH243657   4.818   4.262  12.217 -0.0803 -0.3904 -0.3481
 7389TIP3    H143658   4.743   4.215  12.180  1.5239 -2.4003 -1.0852
 7389TIP3    H243659   4.863   4.299  12.141 -0.4999  1.1220  0.1188
 7390TIP3   OH243660   0.989   1.126  13.784 -0.3169 -0.5524  0.1540
 7390TIP3    H143661   0.989   1.093  13.874  0.5946 -0.1874  0.2974
 7390TIP3    H243662   1.058   1.192  13.783 -2.5983  1.9081  0.0388
 7391TIP3   OH243663   5.091   1.298  17.271 -0.4968  0.0387 -0.1082
 7391TIP3    H143664   5.040   1.366  17.315 -1.1109 -0.4426 -0.0705
 7391TIP3    H243665   5.124   1.341  17.191 -1.8067  0.0623 -0.6459
 7392TIP3   OH243666   3.032   1.999  16.660  0.1499 -0.0322  0.0159
 7392TIP3    H143667   3.077   1.948  16.727 -0.1270 -0.7131 -0.3113
 7392TIP3    H243668   3.094   2.004  16.588  1.4254  2.8168  1.2448
 7393TIP3   OH243669   0.806   5.221   4.857  0.9109  0.0030 -0.4336
 7393TIP3    H143670   0.824   5.154   4.923 -0.4747  1.4459  1.4793
 7393TIP3    H243671   0.761   5.290   4.906 -0.4479  0.9563 -2.9874
 7394TIP3   OH243672   4.674   2.070  15.270  0.4654  0.2843 -0.0611
 7394TIP3    H143673   4.734   2.144  15.264 -0.0999  0.7105 -0.4885
 7394TIP3    H243674   4.589   2.106  15.246  0.1927 -0.5058 -0.2946
 7395TIP3   OH243675   0.729   2.143  15.520  0.0104 -0.6249  0.0908
 7395TIP3    H143676   0.704   2.061  15.477  0.6806 -0.5540 -0.4323
 7395TIP3    H243677   0.699   2.212  15.462 -1.1303 -0.4734  0.8411
 7396TIP3   OH243678   6.101   1.240   4.666 -0.0021  0.2049 -0.1549
 7396TIP3    H143679   6.146   1.214   4.586 -2.2003  0.4435 -1.4843
 7396TIP3    H243680   6.165   1.295   4.712  0.7562  1.2835 -2.4281
 7397TIP3   OH243681   1.192   2.367  12.704  0.1397  0.1854 -0.1049
 7397TIP3    H143682   1.170   2.454  12.739  1.9540  1.4858 -2.0082
 7397TIP3    H243683   1.145   2.362  12.621  1.8636  0.3738 -1.1333
 7398TIP3   OH243684   5.114   3.780   3.697 -0.3872  0.6626  0.7240
 7398TIP3    H143685   5.124   3.821   3.783  0.9787 -1.7198  1.7422
 7398TIP3    H243686   5.090   3.690   3.716  2.2745 -0.5311 -1.3084
 7399TIP3   OH243687   1.730   3.872   0.784 -0.8927  0.9013  0.0489
 7399TIP3    H143688   1.754   3.782   0.805  0.1482  0.2155 -3.6450
 7399TIP3    H243689   1.641   3.882   0.816 -0.9156 -1.3385  0.7548
 7400TIP3   OH243690   1.634   1.524  13.313 -0.5412 -0.1280  0.0904
 7400TIP3    H143691   1.568   1.457  13.294  0.0104 -0.9359  1.0091
 7400TIP3    H243692   1.583   1.606  13.320 -1.2991 -0.5555 -0.3265
 7401TIP3   OH243693   5.397   4.245   4.401 -0.0683  0.2297  0.5204
 7401TIP3    H143694   5.381   4.305   4.474 -2.2119  0.5173 -0.1526
 7401TIP3    H243695   5.440   4.169   4.441 -1.2691  0.3516  2.0971
 7402TIP3   OH243696   6.811   1.835  12.015 -0.0106  0.1659 -0.6809
 7402TIP3    H143697   6.852   1.774  11.954 -0.4386 -1.7181  0.9055
 7402TIP3    H243698   6.717   1.827  11.997 -0.2959 -1.8559  1.5293
 7403TIP3   OH243699   6.481   0.572   2.772 -0.6456  0.1017 -0.4200
 7403TIP3    H143700   6.449   0.518   2.845 -2.6456  2.2532  0.3365
 7403TIP3    H243701   6.550   0.519   2.732 -3.4335 -3.5964 -0.5438
 7404TIP3   OH243702   3.969   0.731  15.194 -0.2603  0.0454  0.2284
 7404TIP3    H143703   4.019   0.790  15.137  0.8923 -0.7699  0.3691
 7404TIP3    H243704   3.912   0.683  15.134  1.2983 -1.1634 -0.3541
 7405TIP3   OH243705   6.737   5.050   3.613 -0.0693  0.8784 -0.5183
 7405TIP3    H143706   6.697   5.095   3.539 -2.0818 -0.6149 -0.3798
 7405TIP3    H243707   6.788   4.979   3.573  2.1971  2.5434 -0.6719
 7406TIP3   OH243708   4.429   0.875  11.681  0.9176  0.0487  0.5322
 7406TIP3    H143709   4.444   0.909  11.769  2.2010  0.0063  0.3267
 7406TIP3    H243710   4.500   0.813  11.666  1.8446  1.4930 -1.2729
 7407TIP3   OH243711   5.839   0.907   0.742 -0.0130  0.2348 -0.6558
 7407TIP3    H143712   5.930   0.890   0.717  0.1874  0.7469 -0.2742
 7407TIP3    H243713   5.802   0.955   0.668 -0.4334 -1.3407 -1.5119
 7408TIP3   OH243714   2.493   6.536   4.257  0.7105 -0.2844 -0.5582
 7408TIP3    H143715   2.470   6.488   4.177  0.4094 -0.2967 -0.4632
 7408TIP3    H243716   2.420   6.519   4.317  2.4044 -2.8729  0.8691
 7409TIP3   OH243717   2.816   3.966  15.251 -0.4594  0.0376 -0.2558
 7409TIP3    H143718   2.777   4.002  15.171 -0.9410  1.6114  0.6447
 7409TIP3    H243719   2.882   4.031  15.276 -0.2391 -0.4989  0.5466
 7410TIP3   OH243720   5.881   3.391  15.021  0.3429 -0.8124  0.5617
 7410TIP3    H143721   5.822   3.358  15.090  0.9315 -2.8109  0.1467
 7410TIP3    H243722   5.876   3.486  15.029 -1.5852 -0.9727  1.6919
 7411TIP3   OH243723   0.644   2.921  11.416  0.5993  0.1224 -0.3198
 7411TIP3    H143724   0.638   2.912  11.321 -1.7648  1.2253 -0.3243
 7411TIP3    H243725   0.731   2.889  11.439  0.9917 -0.6174 -2.7986
 7412TIP3   OH243726   1.623   5.850  16.216 -0.0432  0.0664  0.1971
 7412TIP3    H143727   1.639   5.943  16.195  0.9506 -0.2083 -0.3305
 7412TIP3    H243728   1.671   5.802  16.148 -2.0491 -0.8463 -0.6162
 7413TIP3   OH243729   5.334   0.761   2.330 -0.0016  0.1707 -0.1196
 7413TIP3    H143730   5.318   0.824   2.260 -0.6770  1.4137  1.1152
 7413TIP3    H243731   5.297   0.679   2.299 -1.5154  1.0395 -0.6558
 7414TIP3   OH243732   0.007   5.508   4.547 -0.6028 -0.0156 -0.0835
 7414TIP3    H143733  -0.012   5.559   4.468  0.3900  0.5174  0.0084
 7414TIP3    H243734  -0.023   5.562   4.619 -2.6444 -1.0423 -0.1492
 7415TIP3   OH243735   6.710   0.734   1.630 -0.0827  0.4222 -0.2442
 7415TIP3    H143736   6.796   0.740   1.589 -0.7285 -0.3636 -1.7270
 7415TIP3    H243737   6.697   0.820   1.671  1.3013  0.6172 -0.1959
 7416TIP3   OH243738   6.476   0.091   3.515 -0.4011  0.6976  0.2022
 7416TIP3    H143739   6.424   0.028   3.465 -0.1661  1.9659 -1.7009
 7416TIP3    H243740   6.532   0.037   3.571 -1.8495 -0.7240  0.3151
 7417TIP3   OH243741   1.209   1.366  14.455  0.0796 -0.4137 -0.6756
 7417TIP3    H143742   1.128   1.373  14.405 -1.3620 -1.7635  1.3670
 7417TIP3    H243743   1.180   1.347  14.544  2.6392 -0.4513  0.1857
 7418TIP3   OH243744   1.879   3.554  10.838 -0.1991 -0.0771  0.1301
 7418TIP3    H143745   1.972   3.531  10.847  0.2730  1.5855 -0.2900
 7418TIP3    H243746   1.878   3.624  10.773 -1.4672  1.6584  1.9526
 7419TIP3   OH243747   3.613   1.396   5.426  0.0428  0.2428 -0.2057
 7419TIP3    H143748   3.666   1.322   5.455  1.1243  1.2487  0.4451
 7419TIP3    H243749   3.522   1.366   5.435  0.4231 -0.4880  1.4715
 7420TIP3   OH243750   1.559   1.814   3.129  0.7350  0.4227  0.4747
 7420TIP3    H143751   1.582   1.907   3.140 -0.0596  0.7953 -0.8750
 7420TIP3    H243752   1.561   1.800   3.035  0.1595 -0.7663  0.6308
 7421TIP3   OH243753   0.075   1.869  12.276  0.5668 -0.7496  0.9822
 7421TIP3    H143754   0.041   1.843  12.190  2.1275 -0.0537  0.1384
 7421TIP3    H243755   0.086   1.964  12.270 -1.6566 -0.3279  2.8122
 7422TIP3   OH243756   2.844   6.546   6.945  0.1833 -0.9628 -0.0365
 7422TIP3    H143757   2.898   6.495   6.885  0.6519 -0.8675  0.3020
 7422TIP3    H243758   2.903   6.569   7.017  0.2089  0.7431 -0.5674
 7423TIP3   OH243759   3.199   4.141   2.145 -0.1415 -0.2590  0.4852
 7423TIP3    H143760   3.160   4.071   2.198 -0.4209 -0.0567  0.5507
 7423TIP3    H243761   3.135   4.212   2.149 -0.1730 -0.2493 -0.1404
 7424TIP3   OH243762   4.382   1.896   4.469 -0.3657 -0.4097 -0.0417
 7424TIP3    H143763   4.441   1.955   4.515 -0.3413 -0.4554 -0.0135
 7424TIP3    H243764   4.318   1.953   4.427  0.0848 -0.3139 -0.6129
 7425TIP3   OH243765   6.308   4.445   5.469  0.0802  0.1882  0.5882
 7425TIP3    H143766   6.286   4.511   5.535  0.5848 -0.4143  1.3750
 7425TIP3    H243767   6.385   4.400   5.505  0.7497  0.2694 -0.7083
 7426TIP3   OH243768   1.108   4.169  16.097 -0.9992 -0.1548 -0.1145
 7426TIP3    H143769   1.076   4.250  16.057 -0.9263 -0.6903 -1.2464
 7426TIP3    H243770   1.194   4.156  16.059 -0.7258 -0.4108  0.5825
 7427TIP3   OH243771   4.151   5.430   0.510  0.0609  0.2219  0.0292
 7427TIP3    H143772   4.200   5.378   0.574  1.7158 -0.9915 -2.1552
 7427TIP3    H243773   4.206   5.507   0.494  0.0187  0.1438 -0.4998
 7428TIP3   OH243774   2.898   2.834   5.541 -0.0800 -0.4688 -1.0148
 7428TIP3    H143775   2.819   2.847   5.594  0.2202  1.0736 -0.9255
 7428TIP3    H243776   2.864   2.809   5.455 -0.6814  0.1386 -0.9669
 7429TIP3   OH243777   6.444   1.393  14.421 -0.5264 -0.5831  0.0998
 7429TIP3    H143778   6.412   1.461  14.362 -2.3514 -1.1443  0.4222
 7429TIP3    H243779   6.478   1.324  14.363  1.5578  0.6753 -0.2224
 7430TIP3   OH243780   2.162   6.284  16.761  0.1446 -0.2595  0.1467
 7430TIP3    H143781   2.107   6.354  16.796 -0.2445 -0.9336  0.8854
 7430TIP3    H243782   2.235   6.330  16.719 -1.4484  0.6825 -1.6822
 7431TIP3   OH243783   0.323   2.675  11.805 -0.4174 -0.6944  0.2147
 7431TIP3    H143784   0.339   2.723  11.886 -0.2356 -0.8864  0.2919
 7431TIP3    H243785   0.268   2.601  11.832 -1.4588 -0.0306 -0.0528
 7432TIP3   OH243786   0.350   1.989   0.332  0.2791 -0.1919  0.2378
 7432TIP3    H143787   0.265   2.031   0.327  0.7948  1.0142  1.2129
 7432TIP3    H243788   0.394   2.013   0.250  0.1678  0.2907  0.3173
 7433TIP3   OH243789   2.571   6.250   4.272 -0.4444 -0.8802 -0.4200
 7433TIP3    H143790   2.489   6.289   4.242 -0.5331  1.1205  2.1728
 7433TIP3    H243791   2.573   6.270   4.366  3.2223 -0.4707 -0.5278
 7434TIP3   OH243792   3.377   4.297  14.671  0.5513 -0.4697  0.4272
 7434TIP3    H143793   3.389   4.271  14.580 -1.4089 -0.2665  0.0833
 7434TIP3    H243794   3.350   4.216  14.715 -0.7610 -0.0969  0.3417
 7435TIP3   OH243795   1.644   5.177   6.144 -0.4648 -0.3585 -0.2870
 7435TIP3    H143796   1.663   5.086   6.163 -2.9143 -0.9968 -0.7446
 7435TIP3    H243797   1.608   5.212   6.225 -0.9009 -0.2048 -0.5421
 7436TIP3   OH243798   1.748   5.793  10.610 -0.5964 -0.4361  1.0153
 7436TIP3    H143799   1.796   5.775  10.691 -1.0041  1.6404  1.7315
 7436TIP3    H243800   1.661   5.818  10.640 -0.4266  1.3969 -0.0168
 7437TIP3   OH243801   2.071   5.199   2.265  0.6995 -0.4056 -0.1418
 7437TIP3    H143802   2.108   5.165   2.184  0.7780  0.0002 -0.2781
 7437TIP3    H243803   2.044   5.121   2.314  0.6548 -0.6481 -0.5536
 7438TIP3   OH243804   3.433   1.712  10.750  0.1235 -0.2667 -0.3702
 7438TIP3    H143805   3.417   1.657  10.673 -0.9994  0.4168 -0.6380
 7438TIP3    H243806   3.482   1.656  10.810  0.4729 -1.0069 -1.3353
 7439TIP3   OH243807   6.136   0.113  11.378  0.1441  0.5762  0.1549
 7439TIP3    H143808   6.078   0.157  11.315 -0.0019 -1.7046 -1.3634
 7439TIP3    H243809   6.084   0.041  11.412  1.8667 -1.1664 -0.8098
 7440TIP3   OH243810   2.473   1.975  15.394  0.2150  0.4590  0.1354
 7440TIP3    H143811   2.452   1.957  15.486  1.1869  0.6881  0.4086
 7440TIP3    H243812   2.413   2.044  15.369 -0.7160 -0.2779  0.3086
 7441TIP3   OH243813   2.735   3.190  16.097  0.8138 -0.4285 -0.7100
 7441TIP3    H143814   2.766   3.267  16.049  1.3103 -0.6656 -0.7679
 7441TIP3    H243815   2.809   3.130  16.097  0.9500 -0.2691  0.7010
 7442TIP3   OH243816   1.085   3.707   0.388 -0.0657  0.2911 -0.1278
 7442TIP3    H143817   1.180   3.710   0.378 -0.1800  3.0714 -0.9175
 7442TIP3    H243818   1.071   3.719   0.482  0.3697  0.0256 -0.0285
 7443TIP3   OH243819   1.862   3.284   3.934 -0.0977 -0.7277 -0.1756
 7443TIP3    H143820   1.853   3.357   3.873 -1.4892 -0.7442 -0.0186
 7443TIP3    H243821   1.772   3.258   3.953  0.3518 -1.5177  0.9276
 7444TIP3   OH243822   4.956   2.631   4.701  0.0427  0.1572 -0.4109
 7444TIP3    H143823   4.996   2.664   4.621  1.8400  0.6399  0.6731
 7444TIP3    H243824   5.029   2.610   4.759 -1.2326  0.2142  1.2820
 7445TIP3   OH243825   4.079   4.279   1.453  0.1291 -0.1573 -0.7603
 7445TIP3    H143826   4.136   4.355   1.467  1.6656 -1.4096 -0.0064
 7445TIP3    H243827   3.999   4.300   1.503  1.2634  0.1876  0.9758
 7446TIP3   OH243828   3.846   6.262   5.299  0.9778  0.9917  0.0741
 7446TIP3    H143829   3.932   6.284   5.336  1.0689  2.9288 -1.1682
 7446TIP3    H243830   3.783   6.290   5.365  1.3243 -1.6337  1.5474
 7447TIP3   OH243831   3.216   2.358  12.347 -0.0575 -0.1360 -0.3700
 7447TIP3    H143832   3.188   2.379  12.258  1.2368  0.5019 -0.6452
 7447TIP3    H243833   3.292   2.300  12.335 -1.2247 -1.8435  0.3499
 7448TIP3   OH243834   5.332   4.874   0.114 -0.6154 -0.5995  0.4791
 7448TIP3    H143835   5.305   4.932   0.185  0.1050 -0.8023  0.9110
 7448TIP3    H243836   5.307   4.921   0.034 -0.9554 -0.1485  0.8507
 7449TIP3   OH243837   4.494   4.927  14.609 -0.7849 -0.3525 -0.0692
 7449TIP3    H143838   4.423   4.888  14.557 -0.4497 -0.8046 -0.1881
 7449TIP3    H243839   4.456   5.008  14.644 -1.0931 -0.1739 -0.8112
 7450TIP3   OH243840   5.741   2.523  10.507 -0.0507 -0.0539 -0.3077
 7450TIP3    H143841   5.835   2.514  10.524 -0.2199  0.1202  0.7447
 7450TIP3    H243842   5.700   2.463  10.569 -0.6870  0.5827 -0.1183
 7451TIP3   OH243843   1.572   2.085   3.090  0.2795  0.8180 -0.3294
 7451TIP3    H143844   1.490   2.121   3.057 -0.4684  0.0628  0.6700
 7451TIP3    H243845   1.604   2.149   3.153 -0.2558  0.4528  0.3093
 7452TIP3   OH243846   1.798   1.113  11.506 -0.1781  0.5259  0.2554
 7452TIP3    H143847   1.807   1.165  11.585 -0.3802  2.8182 -1.1691
 7452TIP3    H243848   1.803   1.177  11.435  0.2063 -1.4943 -1.5932
 7453TIP3   OH243849   2.676   6.502   4.772 -0.6517  0.1254  0.8826
 7453TIP3    H143850   2.740   6.568   4.801  1.2434 -1.8121  1.2153
 7453TIP3    H243851   2.710   6.472   4.688 -1.3487 -0.6151  0.8651
 7454TIP3   OH243852   0.912   3.436   2.663  0.6071 -0.6581  0.3905
 7454TIP3    H143853   0.960   3.447   2.581  1.3455 -0.4842  0.8489
 7454TIP3    H243854   0.866   3.519   2.676 -0.6398 -1.1712 -0.5657
 7455TIP3   OH243855   4.322   1.396  16.593  0.4343 -0.1104 -0.0880
 7455TIP3    H143856   4.399   1.375  16.540  0.0839 -0.6038 -0.4040
 7455TIP3    H243857   4.289   1.311  16.622 -1.5014 -0.0804 -2.0975
 7456TIP3   OH243858   3.277   4.100   3.733 -0.0762 -0.6965  0.3119
 7456TIP3    H143859   3.189   4.065   3.716 -0.1488 -0.8747  1.0432
 7456TIP3    H243860   3.306   4.132   3.648 -0.4842 -1.4603 -0.1261
 7457TIP3   OH243861   3.696   4.856  10.608  0.2044 -0.1108 -0.0301
 7457TIP3    H143862   3.762   4.871  10.675 -0.1861  0.7334  0.1675
 7457TIP3    H243863   3.719   4.916  10.537 -1.5009  1.6501  0.8615
 7458TIP3   OH243864   0.086   0.263  13.478 -0.1083  0.8954  0.0466
 7458TIP3    H143865   0.163   0.259  13.535  0.7054 -1.1430 -1.1767
 7458TIP3    H243866   0.119   0.298  13.395  0.3001 -3.2645 -1.6737
 7459TIP3   OH243867   4.370   1.465   4.941 -0.3054  0.7940 -0.0825
 7459TIP3    H143868   4.413   1.416   5.011 -0.6430  0.6939  0.0576
 7459TIP3    H243869   4.394   1.556   4.957 -1.3422  0.9082  0.8571
 7460TIP3   OH243870   3.175   0.669   4.721  0.1895  0.0732 -0.5834
 7460TIP3    H143871   3.190   0.760   4.744 -0.7054 -0.3095  1.6963
 7460TIP3    H243872   3.204   0.619   4.798 -0.6276 -1.4537 -1.2290
 7461TIP3   OH243873   5.418   4.543  13.464  0.0987  0.3981  0.4327
 7461TIP3    H143874   5.368   4.600  13.406  0.3127 -0.8103 -0.9691
 7461TIP3    H243875   5.355   4.478  13.496  0.4927 -0.4138 -0.4036
 7462TIP3   OH243876   0.625   5.659   0.335 -0.0654  0.4801  0.0444
 7462TIP3    H143877   0.644   5.687   0.245  1.1623 -1.8718 -0.4630
 7462TIP3    H243878   0.582   5.574   0.325 -2.2749  1.3881  1.5973
 7463TIP3   OH243879   0.731   0.620  11.091  0.6139 -0.0067  0.4069
 7463TIP3    H143880   0.697   0.692  11.039  1.0443  0.8025  1.2372
 7463TIP3    H243881   0.654   0.570  11.117  0.5550 -2.1335 -3.4346
 7464TIP3   OH243882   1.708   4.449  11.576 -0.4283 -0.0228  0.2162
 7464TIP3    H143883   1.752   4.533  11.570  0.9259 -0.5898  1.7365
 7464TIP3    H243884   1.760   4.390  11.521 -0.3998 -0.2461  0.4800
 7465TIP3   OH243885   3.231   3.382   2.337 -0.2687  0.1573  0.1361
 7465TIP3    H143886   3.146   3.404   2.298 -1.0573 -2.9666 -0.0317
 7465TIP3    H243887   3.214   3.381   2.431 -0.5524 -0.9707  0.0754
 7466TIP3   OH243888   4.444   1.358  13.799  0.5951  0.0134  0.1963
 7466TIP3    H143889   4.451   1.336  13.706  0.9036 -0.5810  0.3577
 7466TIP3    H243890   4.441   1.453  13.801 -1.9964 -0.0216 -0.6113
 7467TIP3   OH243891   6.364   4.010   3.590 -0.0907  0.2326  0.8418
 7467TIP3    H143892   6.448   3.997   3.634  1.1132  0.6631 -1.2778
 7467TIP3    H243893   6.329   3.921   3.579 -0.5986  0.1534  3.0036
 7468TIP3   OH243894   2.769   3.182  13.211  0.1152  0.5007 -0.4930
 7468TIP3    H143895   2.744   3.227  13.291 -0.0548  1.1779 -0.9247
 7468TIP3    H243896   2.860   3.208  13.195  0.3482 -0.1082 -0.1992
 7469TIP3   OH243897   1.355   5.810   5.827  0.3329  0.6670  0.2466
 7469TIP3    H143898   1.403   5.848   5.900 -0.8293 -0.3625  1.5839
 7469TIP3    H243899   1.353   5.716   5.846 -0.7085  0.4946 -0.6565
 7470TIP3   OH243900   3.389   4.652   2.398 -0.4416 -0.1548  0.5674
 7470TIP3    H143901   3.318   4.673   2.337  0.3042  2.5617  0.5932
 7470TIP3    H243902   3.414   4.736   2.436  3.4349 -0.8750 -0.1614
 7471TIP3   OH243903   0.111   3.434   2.402  0.0743 -0.6444  0.2278
 7471TIP3    H143904   0.183   3.433   2.466  1.1217 -1.3991 -0.9345
 7471TIP3    H243905   0.127   3.512   2.349 -0.9879  0.1701  1.0958
 7472TIP3   OH243906   2.415   3.261   1.384  0.4405 -0.5049 -0.1871
 7472TIP3    H143907   2.459   3.247   1.468  1.6089 -2.5212 -1.0956
 7472TIP3    H243908   2.408   3.356   1.376  2.5018 -0.2129  1.0829
 7473TIP3   OH243909   2.999   0.760   0.154 -0.5280  0.5947 -0.0305
 7473TIP3    H143910   3.071   0.753   0.216 -0.8412 -1.4076  0.1508
 7473TIP3    H243911   3.014   0.688   0.092 -1.9670  0.6004 -0.4023
 7474TIP3   OH243912   0.413   3.680  11.645  0.1638  0.1987 -0.0961
 7474TIP3    H143913   0.412   3.762  11.596 -0.7387 -0.1707 -0.7075
 7474TIP3    H243914   0.398   3.612  11.579  0.7253 -0.4448  0.4280
 7475TIP3   OH243915   3.107   1.705   4.086  0.2691 -0.1122  0.1147
 7475TIP3    H143916   3.151   1.770   4.030 -0.1322  0.2663  0.2361
 7475TIP3    H243917   3.158   1.705   4.167 -0.5992  1.1339  0.6765
 7476TIP3   OH243918   2.945   6.354   6.737 -0.3036  0.7554 -0.6097
 7476TIP3    H143919   2.902   6.293   6.676 -1.3230  0.4599  0.3806
 7476TIP3    H243920   3.036   6.356   6.709 -1.0133  1.6723 -3.0017
 7477TIP3   OH243921   3.861   4.778  14.312  0.1737 -0.1024 -0.1731
 7477TIP3    H143922   3.902   4.861  14.286  3.4687 -1.8979 -1.0620
 7477TIP3    H243923   3.878   4.772  14.406  0.4284 -0.0062 -0.2109
 7478TIP3   OH243924   2.643   4.147  13.066 -0.0705  0.3172  0.8846
 7478TIP3    H143925   2.728   4.178  13.098 -0.0983  0.9447  0.3501
 7478TIP3    H243926   2.658   4.054  13.048  0.3808  0.3221  1.2078
 7479TIP3   OH243927   6.145   1.408   1.606 -0.2606 -0.3942  0.3690
 7479TIP3    H143928   6.153   1.403   1.511  0.1927 -1.1085  0.4360
 7479TIP3    H243929   6.201   1.337   1.638  1.0844  1.0365  1.2282
 7480TIP3   OH243930   4.217   4.575   2.132  0.0372 -0.1741  0.2699
 7480TIP3    H143931   4.229   4.664   2.164  1.5436  0.0584 -0.8585
 7480TIP3    H243932   4.237   4.580   2.039 -0.7956 -1.5111  0.0080
 7481TIP3   OH243933   5.338   4.111  13.501  0.0119 -0.3576 -0.1150
 7481TIP3    H143934   5.369   4.149  13.583 -1.6178  0.8250 -0.0143
 7481TIP3    H243935   5.255   4.070  13.524  0.1651 -1.1131 -0.9162
 7482TIP3   OH243936   6.115   5.909   3.723 -0.7055  0.6690  0.0040
 7482TIP3    H143937   6.192   5.963   3.707 -1.0280  0.6530 -1.7261
 7482TIP3    H243938   6.041   5.969   3.711 -1.0292  0.1111 -0.8826
 7483TIP3   OH243939   3.868   6.559   3.446 -0.6957 -0.5141 -0.1140
 7483TIP3    H143940   3.839   6.484   3.394 -1.2041 -0.3846 -0.0192
 7483TIP3    H243941   3.805   6.628   3.425  0.1254  0.0736 -0.6728
 7484TIP3   OH243942   5.316   4.799   4.254 -0.2990  0.0693  0.2149
 7484TIP3    H143943   5.362   4.735   4.199  2.4339  1.4843  0.7683
 7484TIP3    H243944   5.265   4.852   4.193  0.8562  0.1223 -0.7118
 7485TIP3   OH243945   6.637   0.372   0.806  0.0911  0.1521  0.6996
 7485TIP3    H143946   6.696   0.297   0.808 -0.3652 -0.2431 -0.1755
 7485TIP3    H243947   6.549   0.334   0.805 -0.1523  0.7061  0.8067
 7486TIP3   OH243948   3.189   1.363  15.727 -0.1595 -0.0886 -0.2751
 7486TIP3    H143949   3.182   1.317  15.643 -0.2993  0.1925 -0.4185
 7486TIP3    H243950   3.253   1.312  15.777 -2.1553 -1.8743  0.5322
 7487TIP3   OH243951   0.351   3.936  16.929 -0.2121 -0.7454  0.4432
 7487TIP3    H143952   0.328   3.938  16.836 -0.4962  1.5512  0.5310
 7487TIP3    H243953   0.439   3.971  16.932 -0.6338  0.2737  1.1416
 7488TIP3   OH243954   1.508   4.460   3.322  0.2363  0.1328 -0.8243
 7488TIP3    H143955   1.523   4.546   3.359 -0.5101  0.1726 -0.6009
 7488TIP3    H243956   1.524   4.399   3.395 -1.0284  0.1989 -0.4786
 7489TIP3   OH243957   0.104   0.823   2.150 -0.0943 -0.6546 -0.5075
 7489TIP3    H143958   0.075   0.912   2.168  0.3096 -0.4587 -0.8084
 7489TIP3    H243959   0.194   0.820   2.182  0.2186 -0.6636 -1.3657
 7490TIP3   OH243960   4.884   4.196  16.839 -1.0641 -0.0138  0.3204
 7490TIP3    H143961   4.807   4.154  16.800 -0.6831 -0.4826  0.0618
 7490TIP3    H243962   4.909   4.138  16.911 -0.2343 -0.5011 -0.3526
 7491TIP3   OH243963   2.216   2.508   1.558  0.1502  0.2471  0.7612
 7491TIP3    H143964   2.266   2.551   1.627  0.5758  0.6973  0.1825
 7491TIP3    H243965   2.282   2.474   1.498 -0.2533  1.7885 -0.5747
 7492TIP3   OH243966   5.667   4.624   1.046 -0.0461  0.2097  0.2850
 7492TIP3    H143967   5.639   4.611   0.955 -1.1637 -2.0283  0.9190
 7492TIP3    H243968   5.763   4.620   1.041 -0.0961  0.0615 -0.7948
 7493TIP3   OH243969   4.347   1.194  16.969  0.3916  0.3682  0.9678
 7493TIP3    H143970   4.392   1.109  16.966 -0.3055  0.0444 -1.1735
 7493TIP3    H243971   4.289   1.188  17.045  0.1869 -1.1692  0.7110
 7494TIP3   OH243972   0.385   0.036   3.946 -0.2811 -0.3601  0.3136
 7494TIP3    H143973   0.292   0.050   3.964 -0.4792 -0.5651 -0.5491
 7494TIP3    H243974   0.389  -0.053   3.911  0.3342 -0.6167  1.0153
 7495TIP3   OH243975   6.203   3.506  11.554  0.0182  0.4841 -0.7115
 7495TIP3    H143976   6.281   3.456  11.528 -0.4779 -0.5466 -0.2719
 7495TIP3    H243977   6.138   3.484  11.487 -0.5270 -0.3103  0.0573
 7496TIP3   OH243978   1.018   0.107   2.586 -0.4393  0.4914  0.0902
 7496TIP3    H143979   1.064   0.035   2.628  0.3101  1.0540  0.2516
 7496TIP3    H243980   0.995   0.166   2.658  2.1277  2.1717 -0.4274
 7497TIP3   OH243981   0.132   6.658   3.749  0.3469  0.2465  0.1411
 7497TIP3    H143982   0.070   6.617   3.809 -0.8414  1.1486 -0.4264
 7497TIP3    H243983   0.218   6.639   3.786 -0.2210 -1.5991  0.6011
 7498TIP3   OH243984   4.694   5.407   3.516 -0.2981 -0.6564 -0.3049
 7498TIP3    H143985   4.688   5.478   3.579 -2.8893  0.5083 -1.7568
 7498TIP3    H243986   4.724   5.450   3.435  0.5625 -1.6781 -0.5400
 7499TIP3   OH243987   4.195   3.372  12.999  1.0383  0.6708 -0.1935
 7499TIP3    H143988   4.123   3.429  13.028  0.5694  0.1190 -0.2776
 7499TIP3    H243989   4.163   3.334  12.917 -0.0329 -2.3514  1.5667
 7500TIP3   OH243990   4.092   6.094   1.187 -0.3478  0.1186 -0.2748
 7500TIP3    H143991   4.166   6.100   1.248 -0.6938 -2.0637  0.4217
 7500TIP3    H243992   4.047   6.178   1.195 -0.4362 -0.1551  2.5759
 7501TIP3   OH243993   2.117   3.125  12.377  0.3048 -0.0599 -0.0867
 7501TIP3    H143994   2.180   3.197  12.376 -1.5401  1.6269  0.3376
 7501TIP3    H243995   2.152   3.060  12.316  2.5252  0.7462  0.3113
 7502TIP3   OH243996   1.350   5.909   0.630 -0.1724  0.2126  0.2114
 7502TIP3    H143997   1.348   5.912   0.534 -1.1815 -2.6104  0.0912
 7502TIP3    H243998   1.431   5.954   0.654  1.2896 -1.0617 -2.1116
 7503TIP3   OH243999   4.061   5.720   4.535  0.4824  0.3435  0.1402
 7503TIP3    H144000   4.048   5.628   4.559 -0.4253  0.0623 -1.3388
 7503TIP3    H244001   3.974   5.750   4.509  0.4389  2.1145  2.2180
 7504TIP3   OH244002   6.734   3.367  15.131  0.1348 -0.2931 -0.3242
 7504TIP3    H144003   6.787   3.354  15.053 -0.4718 -1.9619 -0.4841
 7504TIP3    H244004   6.652   3.404  15.098  0.5489  0.6867 -0.2670
 7505TIP3   OH244005   3.364   0.089   5.517  0.0743 -0.0106 -0.1024
 7505TIP3    H144006   3.402   0.049   5.595 -2.4473 -2.5371 -0.1330
 7505TIP3    H244007   3.396   0.035   5.445 -0.2236  0.3800 -0.5284
 7506TIP3   OH244008   0.205   2.990  15.844 -0.0416 -0.0376  0.4580
 7506TIP3    H144009   0.238   2.948  15.923  0.9078 -0.4572 -0.1449
 7506TIP3    H244010   0.269   3.057  15.824  0.7495 -1.2042 -1.0190
 7507TIP3   OH244011   5.608   4.752   4.850  0.1376 -0.4726 -0.1551
 7507TIP3    H144012   5.662   4.691   4.799 -0.5210  0.1635 -1.6508
 7507TIP3    H244013   5.621   4.725   4.941  0.4551 -2.3702 -0.7332
 7508TIP3   OH244014   1.376   4.932  11.673 -0.1208 -0.1058 -0.3656
 7508TIP3    H144015   1.400   4.921  11.765 -0.6104  1.2512 -0.0615
 7508TIP3    H244016   1.281   4.942  11.675 -0.0037  1.1100 -0.9056
 7509TIP3   OH244017   6.111   4.021   1.453 -0.0896 -0.3048 -0.0892
 7509TIP3    H144018   6.051   3.968   1.399  1.5732 -0.9139 -1.3828
 7509TIP3    H244019   6.196   3.979   1.442  0.7887  1.2009  0.8460
 7510TIP3   OH244020   4.022   4.253   5.707 -0.0823  0.2295  0.0145
 7510TIP3    H144021   4.076   4.250   5.785  0.4730 -1.3740 -0.4265
 7510TIP3    H244022   3.948   4.309   5.732  0.0998 -0.2454  1.6646
 7511TIP3   OH244023   6.747   6.707   0.208 -0.3482 -0.5130  0.6420
 7511TIP3    H144024   6.801   6.786   0.209 -1.8448  0.5586 -0.2362
 7511TIP3    H244025   6.761   6.667   0.294 -0.8012  1.5658  1.7268
 7512TIP3   OH244026   6.090   1.822  11.252 -0.0999 -0.2063 -0.4355
 7512TIP3    H144027   6.030   1.873  11.197  0.0263 -0.7244 -1.0668
 7512TIP3    H244028   6.177   1.847  11.222  0.0120  0.4965  0.4390
 7513TIP3   OH244029   2.115   3.861  16.508 -0.1928 -0.2542 -0.1005
 7513TIP3    H144030   2.060   3.787  16.482  0.1211 -0.5418  0.0445
 7513TIP3    H244031   2.142   3.902  16.426 -0.9066  0.0999 -0.1636
 7514TIP3   OH244032   5.293   5.275  11.980 -0.0100  0.1227  0.3928
 7514TIP3    H144033   5.344   5.276  11.900  1.3646  0.1110  1.2472
 7514TIP3    H244034   5.331   5.346  12.033  0.3383 -1.0611  1.7735
 7515TIP3   OH244035   3.540   1.642  16.688 -0.5575  0.2475 -0.2966
 7515TIP3    H144036   3.576   1.579  16.626 -1.0590  0.7406 -1.0973
 7515TIP3    H244037   3.591   1.628  16.768 -0.2086 -0.7018 -0.6731
 7516TIP3   OH244038   2.310   5.510  13.922  0.2052 -0.5453 -0.2704
 7516TIP3    H144039   2.299   5.603  13.907 -0.2914 -0.4271  0.8402
 7516TIP3    H244040   2.222   5.473  13.915  0.1812 -0.7063  0.8442
 7517TIP3   OH244041   6.110   2.097  11.826 -0.5379  0.7482 -0.2240
 7517TIP3    H144042   6.072   2.127  11.743 -1.6035  1.2857  0.4569
 7517TIP3    H244043   6.166   2.169  11.854  1.0513 -0.0508 -1.2355
 7518TIP3   OH244044   3.124   0.156   0.774 -0.1873 -0.4100 -0.1505
 7518TIP3    H144045   3.091   0.134   0.861 -0.0396  0.7467  0.2127
 7518TIP3    H244046   3.089   0.243   0.757  0.7357 -0.1462 -0.7537
 7519TIP3   OH244047   1.122   6.392   6.861 -0.3838  0.5710 -0.4020
 7519TIP3    H144048   1.161   6.381   6.774 -0.0359  0.1161 -0.1915
 7519TIP3    H244049   1.130   6.306   6.902  0.6840  1.1115  0.5863
 7520TIP3   OH244050   2.603   3.423   0.737  0.4790  0.3094 -0.1311
 7520TIP3    H144051   2.653   3.341   0.732 -2.1309 -1.4296  1.2781
 7520TIP3    H244052   2.544   3.420   0.661 -1.5180 -0.4567  1.4124
 7521TIP3   OH244053   2.294   5.012  12.329 -0.1933  0.1849 -0.1614
 7521TIP3    H144054   2.334   4.969  12.405  0.2893 -0.4869 -0.7927
 7521TIP3    H244055   2.200   5.002  12.343 -0.1057  0.0711  0.3543
 7522TIP3   OH244056   1.874   0.769  12.821 -0.1681  0.0357 -0.2877
 7522TIP3    H144057   1.871   0.796  12.729 -0.7314 -1.2812 -0.6751
 7522TIP3    H244058   1.792   0.799  12.858  0.1201  0.6910 -0.1733
 7523TIP3   OH244059   4.558   0.076   2.498 -0.1288  0.8372  0.2179
 7523TIP3    H144060   4.507   0.143   2.543 -1.4439  0.3674 -0.5323
 7523TIP3    H244061   4.581   0.115   2.414 -0.0715  0.7097  0.1745
 7524TIP3   OH244062   1.791   0.136   2.612  0.3276  0.4616  0.4276
 7524TIP3    H144063   1.828   0.222   2.592  1.5325  0.2171  1.5344
 7524TIP3    H244064   1.714   0.154   2.665 -0.0105  0.8959 -0.2068
 7525TIP3   OH244065   0.256   2.009   0.035 -0.2677  0.3919  0.1615
 7525TIP3    H144066   0.352   2.012   0.042 -0.1321 -0.7982 -1.0263
 7525TIP3    H244067   0.239   1.937  -0.025 -2.0400 -1.8261  3.1599
 7526TIP3   OH244068   3.307   1.474  12.651 -0.1454  0.2481  0.3234
 7526TIP3    H144069   3.380   1.488  12.711  1.6463 -0.5619 -1.6119
 7526TIP3    H244070   3.273   1.388  12.675  1.0354 -0.3992 -0.2633
 7527TIP3   OH244071   1.352   5.615   1.842  0.1911  0.0288  0.0056
 7527TIP3    H144072   1.351   5.560   1.764 -0.9938 -0.1542  0.1434
 7527TIP3    H244073   1.432   5.668   1.833 -0.1120  0.2580 -1.5076
 7528TIP3   OH244074   4.986   2.202   2.033 -0.7407  0.4853 -0.3135
 7528TIP3    H144075   5.010   2.172   2.120 -0.5878 -0.2499 -0.6080
 7528TIP3    H244076   4.966   2.122   1.984 -0.7584  0.8884 -0.9735
 7529TIP3   OH244077   5.338   6.122  13.540 -0.4262 -0.3321  0.4168
 7529TIP3    H144078   5.274   6.140  13.472  0.0788 -1.7878 -0.4818
 7529TIP3    H244079   5.381   6.041  13.512  2.3511  1.0137  0.5888
 7530TIP3   OH244080   2.094   3.726   4.640 -0.2077  0.3465  0.3645
 7530TIP3    H144081   2.031   3.679   4.695 -0.0983  0.7391  0.8334
 7530TIP3    H244082   2.072   3.818   4.652 -1.2548  0.3613 -1.5823
 7531TIP3   OH244083   2.415   0.349  15.604 -0.4898 -0.1057 -0.7289
 7531TIP3    H144084   2.383   0.303  15.681  1.1133  0.0601  0.0445
 7531TIP3    H244085   2.497   0.306  15.581  0.7707  1.9760 -0.3115
 7532TIP3   OH244086   1.937   2.697   3.767 -0.0597 -0.5975 -0.0724
 7532TIP3    H144087   1.883   2.705   3.846 -1.0677  1.9163 -0.9523
 7532TIP3    H244088   2.026   2.689   3.800 -0.6184 -1.2103  1.3415
 7533TIP3   OH244089   1.685   1.654   5.877  0.1937 -0.6299 -0.0236
 7533TIP3    H144090   1.723   1.659   5.789 -0.0330  2.8489  0.0312
 7533TIP3    H244091   1.726   1.726   5.925 -1.2204 -1.2247  2.1221
 7534TIP3   OH244092   1.340   6.778  10.768  0.9136 -0.5415 -0.5341
 7534TIP3    H144093   1.436   6.788  10.770  0.7752  0.7304  0.1264
 7534TIP3    H244094   1.310   6.827  10.844 -0.2851 -0.8015 -0.8423
 7535TIP3   OH244095   0.222   4.472  13.204  0.0979  0.3539  0.1884
 7535TIP3    H144096   0.257   4.385  13.183 -0.4293  0.3083 -0.5183
 7535TIP3    H244097   0.187   4.504  13.121  1.5095  1.8120  0.1385
 7536TIP3   OH244098   1.716   3.546   1.374 -0.1643  0.0213  0.5174
 7536TIP3    H144099   1.796   3.593   1.348 -0.7267  0.9678  0.4501
 7536TIP3    H244100   1.713   3.470   1.316  0.1098  0.5789 -0.2423
 7537TIP3   OH244101   2.691   3.467  15.062 -0.0422  0.1633  0.2795
 7537TIP3    H144102   2.715   3.398  15.000 -1.1252  0.5848 -0.6078
 7537TIP3    H244103   2.753   3.456  15.134  0.4027 -1.1402 -0.2865
 7538TIP3   OH244104   6.447   5.097   0.562  0.1206  0.6528  0.7274
 7538TIP3    H144105   6.485   5.011   0.578  2.5699  1.7621  1.3125
 7538TIP3    H244106   6.414   5.093   0.472  0.4012 -0.8294  0.6767
 7539TIP3   OH244107   3.841   4.548   3.056  0.2755  0.7315 -0.1859
 7539TIP3    H144108   3.864   4.624   3.003  0.0945  0.6302 -0.4065
 7539TIP3    H244109   3.898   4.555   3.133  2.1825 -0.3855 -1.4823
 7540TIP3   OH244110   4.545   1.009   2.051 -0.0247  0.4821  0.3667
 7540TIP3    H144111   4.509   0.941   1.995 -1.3928  0.8173  0.8361
 7540TIP3    H244112   4.625   1.037   2.006 -0.7352  0.2623 -1.0452
 7541TIP3   OH244113   4.151   6.034   5.528  0.4988 -0.5480  0.1417
 7541TIP3    H144114   4.218   6.100   5.506 -0.6907  0.9439  0.9114
 7541TIP3    H244115   4.164   5.965   5.463 -0.0222  1.7166 -2.4508
 7542TIP3   OH244116   3.603   5.641  16.647 -0.3247 -0.4936  0.1814
 7542TIP3    H144117   3.582   5.567  16.704  1.4624  0.2920  1.9194
 7542TIP3    H244118   3.687   5.618  16.607 -0.6635 -0.2129 -0.7077
 7543TIP3   OH244119   4.023   1.613   3.583  0.1417 -0.0398 -0.3010
 7543TIP3    H144120   4.089   1.599   3.650  0.7317 -1.6249 -1.1977
 7543TIP3    H244121   3.940   1.589   3.625  0.7076 -2.7047 -0.6546
 7544TIP3   OH244122   1.519   4.677   1.563 -0.5338 -0.8341  0.2409
 7544TIP3    H144123   1.609   4.647   1.552 -0.4484 -0.8223  0.9101
 7544TIP3    H244124   1.470   4.630   1.496 -0.3640 -2.2889  1.1234
 7545TIP3   OH244125   4.624   3.495   2.927 -0.3323 -0.1721 -0.1777
 7545TIP3    H144126   4.577   3.462   3.003 -0.7898  1.9616  0.5080
 7545TIP3    H244127   4.570   3.566   2.893  2.4198  2.4925  0.7619
 7546TIP3   OH244128   6.697   3.724  15.130 -0.0483 -0.2604 -0.1266
 7546TIP3    H144129   6.782   3.763  15.113 -0.7972  1.5951  0.2435
 7546TIP3    H244130   6.708   3.678  15.214  0.7649 -0.5947 -0.4154
 7547TIP3   OH244131   5.307   3.425  15.072 -0.5406  0.1684 -0.0001
 7547TIP3    H144132   5.271   3.481  15.003  0.5356  0.0769 -0.6552
 7547TIP3    H244133   5.401   3.424  15.055 -0.3515 -0.4619  1.0327
 7548TIP3   OH244134   1.915   6.402  12.771 -0.0258  0.3559 -0.0508
 7548TIP3    H144135   1.989   6.347  12.746  0.8655  1.4355  0.1702
 7548TIP3    H244136   1.948   6.456  12.843 -1.2535  0.3353  0.5386
 7549TIP3   OH244137   4.024   1.899  14.963  0.3732  0.4958  0.6286
 7549TIP3    H144138   4.037   1.979  15.014  1.4139 -0.0476  1.2154
 7549TIP3    H244139   3.937   1.868  14.989 -0.3511  1.8095 -0.1372
 7550TIP3   OH244140   2.552   3.658  16.983  0.0111 -0.3132  0.0241
 7550TIP3    H144141   2.471   3.607  16.987 -0.8342  0.9020 -1.1994
 7550TIP3    H244142   2.525   3.743  16.949  2.0558 -0.4548 -2.0348
 7551TIP3   OH244143   3.812   2.322   3.063  0.4528 -0.2542 -0.5864
 7551TIP3    H144144   3.801   2.410   3.026  1.1238 -0.3096 -0.9125
 7551TIP3    H244145   3.774   2.329   3.151 -2.1212 -0.4128 -1.6441
 7552TIP3   OH244146   4.833   4.675   0.358 -0.7123 -0.4586 -0.0113
 7552TIP3    H144147   4.774   4.740   0.396  1.8627  2.9429 -1.5416
 7552TIP3    H244148   4.815   4.677   0.264  0.0185 -1.2908 -0.1805
 7553TIP3   OH244149   4.546   6.755  12.850  0.0587 -0.2723 -0.2401
 7553TIP3    H144150   4.583   6.706  12.924 -0.3136 -0.9494 -0.4921
 7553TIP3    H244151   4.456   6.722  12.843 -0.1352  0.3239 -0.5310
 7554TIP3   OH244152   5.089   1.736   2.840  0.5719 -0.6604  0.2396
 7554TIP3    H144153   5.132   1.653   2.855  0.6614 -0.5810  0.4167
 7554TIP3    H244154   5.081   1.742   2.744  0.3728 -0.9681  0.2349
 7555TIP3   OH244155   5.995   1.592   1.320 -0.1627  0.6453 -0.0936
 7555TIP3    H144156   5.979   1.648   1.244 -2.2431  1.7730  1.1382
 7555TIP3    H244157   5.991   1.651   1.395  0.9560 -0.6155  0.9822
 7556TIP3   OH244158   2.843   4.647   5.720  0.2620 -0.1160  0.4096
 7556TIP3    H144159   2.897   4.717   5.756 -0.0520 -0.2011  1.0433
 7556TIP3    H244160   2.882   4.566   5.754  1.5549 -0.3471 -1.5413
 7557TIP3   OH244161   3.927   0.501  13.095 -0.0060  0.2729  0.0995
 7557TIP3    H144162   3.875   0.482  13.174 -1.6413  0.7086 -0.8434
 7557TIP3    H244163   3.901   0.590  13.071 -1.2665 -0.6823 -2.2245
 7558TIP3   OH244164   3.019   2.935  11.214 -0.0443 -0.2186  0.0123
 7558TIP3    H144165   3.099   2.889  11.241  1.1162  1.4293 -0.5183
 7558TIP3    H244166   2.977   2.876  11.152 -0.0522 -1.7747  1.4359
 7559TIP3   OH244167   3.154   3.456  15.832  0.5724 -0.1962 -0.2777
 7559TIP3    H144168   3.154   3.444  15.927 -2.7669 -0.6364 -0.2983
 7559TIP3    H244169   3.114   3.377  15.797 -0.8285  1.1717 -1.8645
 7560TIP3   OH244170   2.831   5.552   4.221  0.1283 -0.0879  0.0197
 7560TIP3    H144171   2.797   5.486   4.160 -0.6687 -0.9654  1.3861
 7560TIP3    H244172   2.909   5.587   4.177 -0.3765 -0.7678 -1.4538
 7561TIP3   OH244173   0.646   6.704  12.491 -0.1859 -0.2870  0.0416
 7561TIP3    H144174   0.649   6.734  12.401  1.5974 -1.2084 -0.2318
 7561TIP3    H244175   0.737   6.686  12.514 -0.4933  0.8170  2.3389
 7562TIP3   OH244176   6.501   5.969  14.254  0.3644 -0.2703  0.6341
 7562TIP3    H144177   6.446   6.033  14.209  2.6959  1.1160 -0.3207
 7562TIP3    H244178   6.498   5.891  14.199 -0.7103 -0.2400  0.6459
 7563TIP3   OH244179   0.176   4.651  12.627 -0.1929 -0.1618  0.0915
 7563TIP3    H144180   0.128   4.697  12.696 -0.3441  0.7957 -0.6481
 7563TIP3    H244181   0.135   4.679  12.546  2.7645  2.1272 -0.6958
 7564TIP3   OH244182   6.327   0.821   6.142  0.0423 -0.8556  0.4924
 7564TIP3    H144183   6.380   0.847   6.067  1.3099  0.6915  1.8654
 7564TIP3    H244184   6.382   0.761   6.192 -1.0045 -2.3234 -0.0668
 7565TIP3   OH244185   0.695   4.149   4.822  0.4919 -0.3872 -0.2671
 7565TIP3    H144186   0.608   4.141   4.782 -0.0153 -0.2451  0.7765
 7565TIP3    H244187   0.679   4.199   4.903  1.3153 -1.5031  0.6011
 7566TIP3   OH244188   2.324   3.991   4.386  0.2775 -0.5609 -0.0303
 7566TIP3    H144189   2.362   3.919   4.335  0.2134 -0.1624 -0.6468
 7566TIP3    H244190   2.310   3.954   4.473 -0.7425 -1.6237 -0.6340
 7567TIP3   OH244191   3.598   1.449  14.747 -0.4322 -0.7288 -0.2609
 7567TIP3    H144192   3.596   1.401  14.665 -3.2438 -0.7091 -0.2455
 7567TIP3    H244193   3.599   1.381  14.815 -1.1490 -0.7636 -0.2811
 7568TIP3   OH244194   4.571   1.645  13.557  0.0651  0.2184  0.0681
 7568TIP3    H144195   4.566   1.728  13.508  2.0622  1.9520  2.6843
 7568TIP3    H244196   4.491   1.645  13.610  0.1710  0.6046  0.2336
 7569TIP3   OH244197   6.312   0.645   2.563  0.6307  0.0478  0.1808
 7569TIP3    H144198   6.358   0.655   2.647  0.3269  2.2248  0.1290
 7569TIP3    H244199   6.380   0.661   2.497  0.7557 -1.1417  0.0224
 7570TIP3   OH244200   1.742   2.897  13.906  0.2989 -0.2664  0.2998
 7570TIP3    H144201   1.720   2.929  13.819  1.3725 -0.2475  0.0302
 7570TIP3    H244202   1.837   2.890  13.906  0.6651  3.1202  2.6220
 7571TIP3   OH244203   4.389   1.530   5.479  0.6386  0.0554 -0.3302
 7571TIP3    H144204   4.321   1.468   5.505 -0.3905  0.7408 -1.3128
 7571TIP3    H244205   4.439   1.546   5.559  1.8849 -3.1710 -0.3942
 7572TIP3   OH244206   4.652   4.579   3.869  0.2004  0.2081 -0.0098
 7572TIP3    H144207   4.602   4.506   3.833 -0.7751  0.0748  1.5980
 7572TIP3    H244208   4.628   4.654   3.815  0.8654 -0.5463 -1.3820
 7573TIP3   OH244209   0.954   0.019   4.291  0.0305  0.4030 -0.0968
 7573TIP3    H144210   0.888  -0.040   4.328 -0.6356  0.8754 -0.5248
 7573TIP3    H244211   0.935   0.022   4.198  1.0322  0.0833 -0.3217
 7574TIP3   OH244212   5.317   3.070  13.530  0.2057 -0.2673 -0.4571
 7574TIP3    H144213   5.354   2.992  13.571 -0.7727 -0.7307 -0.4590
 7574TIP3    H244214   5.223   3.060  13.537  0.0644  0.8588 -0.5703
 7575TIP3   OH244215   3.250   6.520   3.810 -0.1918 -0.1278 -0.0704
 7575TIP3    H144216   3.183   6.537   3.743  0.1677  0.3637 -0.3057
 7575TIP3    H244217   3.298   6.602   3.817 -0.0481 -0.2625  0.5968
 7576TIP3   OH244218   3.868   4.517  14.840 -0.1682 -0.7778  0.4141
 7576TIP3    H144219   3.790   4.516  14.895  0.0085  0.0085  0.6855
 7576TIP3    H244220   3.941   4.522  14.902  0.0335  0.0673  0.1212
 7577TIP3   OH244221   4.196   0.791  13.952 -0.6589 -0.0379 -0.2538
 7577TIP3    H144222   4.111   0.764  13.919  0.0953 -1.0854 -1.3967
 7577TIP3    H244223   4.242   0.709  13.969 -0.3191  0.5027  1.5490
 7578TIP3   OH244224   0.954   0.584   3.924  0.1195  0.1835  0.3218
 7578TIP3    H144225   0.971   0.610   4.014  0.3909  1.0252  0.0401
 7578TIP3    H244226   0.934   0.666   3.879  0.3393 -0.1853 -0.4584
 7579TIP3   OH244227   1.463   0.033   4.456 -0.3374  0.3114  0.2258
 7579TIP3    H144228   1.380  -0.013   4.470  0.1203 -0.6889 -0.2561
 7579TIP3    H244229   1.520   0.001   4.526  0.1636 -0.2990 -0.4532
 7580TIP3   OH244230   5.685   4.462   6.036 -0.9761 -0.6009 -0.4257
 7580TIP3    H144231   5.694   4.465   6.131 -1.5958 -1.2138 -0.3487
 7580TIP3    H244232   5.590   4.462   6.020 -0.8804 -1.2693 -1.0208
 7581TIP3   OH244233   1.165   3.989   0.452  0.0510 -0.2831  0.0911
 7581TIP3    H144234   1.091   4.015   0.507 -0.8667 -0.1416 -1.1854
 7581TIP3    H244235   1.223   4.065   0.453 -0.4953  0.1367 -0.0357
 7582TIP3   OH244236   4.880   5.871  15.352  0.0699 -0.2896  0.2764
 7582TIP3    H144237   4.926   5.927  15.415  0.0297  0.8578 -0.6873
 7582TIP3    H244238   4.888   5.918  15.268 -1.1911 -1.0393 -0.2721
 7583TIP3   OH244239   4.810   6.082   5.006 -0.2533  0.4547 -1.1007
 7583TIP3    H144240   4.820   6.036   5.089 -0.3852 -0.4784 -1.5915
 7583TIP3    H244241   4.805   6.012   4.941 -2.3330  1.0979 -1.6726
 7584TIP3   OH244242   4.198   2.414  15.711  0.2394 -0.1184 -0.1614
 7584TIP3    H144243   4.104   2.400  15.718  0.3310  0.3368  2.4159
 7584TIP3    H244244   4.233   2.328  15.685 -0.8752 -0.2405 -1.3231
 7585TIP3   OH244245   0.991   1.743  13.267 -0.2772  0.3981  0.1692
 7585TIP3    H144246   0.984   1.664  13.322  0.7678 -0.2678 -0.6301
 7585TIP3    H244247   0.973   1.815  13.327 -0.5017 -0.4038  1.0901
 7586TIP3   OH244248   2.954   0.118  11.385  0.0701  0.0694 -0.7700
 7586TIP3    H144249   2.932   0.145  11.474 -0.8598 -1.8875 -0.3931
 7586TIP3    H244250   3.048   0.100  11.388  0.9775  4.0810 -1.2783
 7587TIP3   OH244251   3.689   5.705   5.301  0.1806 -0.6369 -0.0333
 7587TIP3    H144252   3.679   5.646   5.376  0.3078  0.1337  0.6068
 7587TIP3    H244253   3.656   5.656   5.226 -0.4530 -1.2205  0.6241
 7588TIP3   OH244254   1.370   2.370   2.684 -0.3408  0.0288 -0.4655
 7588TIP3    H144255   1.411   2.343   2.602 -1.5767 -0.8887 -0.8066
 7588TIP3    H244256   1.443   2.392   2.742  0.5351  0.8603 -1.8613
 7589TIP3   OH244257   1.313   0.232  12.726  0.0557  0.1753  0.3828
 7589TIP3    H144258   1.306   0.286  12.804 -0.4947 -1.5925  1.5784
 7589TIP3    H244259   1.405   0.204  12.724 -0.0606 -0.2331  0.7109
 7590TIP3   OH244260   1.538   4.084  13.408  0.4121  0.1011 -0.4688
 7590TIP3    H144261   1.467   4.029  13.374  0.5850 -1.2026  1.2189
 7590TIP3    H244262   1.580   4.119  13.329  0.2347 -2.1292 -1.6155
 7591TIP3   OH244263   0.635   2.491   0.149 -0.3066 -0.5475 -0.2780
 7591TIP3    H144264   0.577   2.562   0.178 -1.1679 -1.5630  0.4962
 7591TIP3    H244265   0.707   2.491   0.212 -0.1381 -0.1552 -0.4676
 7592TIP3   OH244266   3.272   1.636  13.113  0.2985  0.7058 -0.7507
 7592TIP3    H144267   3.360   1.631  13.075  0.6962  0.4663  0.1666
 7592TIP3    H244268   3.273   1.570  13.182 -1.4219 -0.9830 -2.3125
 7593TIP3   OH244269   0.791   3.391  13.256  0.2362  0.0176  0.0509
 7593TIP3    H144270   0.769   3.479  13.227  0.6409  0.3939  0.8770
 7593TIP3    H244271   0.879   3.375  13.221  0.7834  0.5271  1.1837
 7594TIP3   OH244272   3.236   3.284   2.648  0.3026 -0.6509 -0.1207
 7594TIP3    H144273   3.285   3.270   2.729 -2.4950 -2.1470  1.4089
 7594TIP3    H244274   3.198   3.198   2.628 -1.2594  0.3368 -1.5036
 7595TIP3   OH244275   5.941   0.244   6.420 -0.1193  0.1838  0.7344
 7595TIP3    H144276   5.925   0.338   6.430  1.3605  0.7860 -2.0336
 7595TIP3    H244277   5.874   0.202   6.474 -1.6893  2.7971  0.8914
 7596TIP3   OH244278   4.655   0.212   0.142 -1.0076  0.1055  0.4159
 7596TIP3    H144279   4.628   0.196   0.232 -0.0910  1.4285  0.9413
 7596TIP3    H244280   4.722   0.147   0.125 -1.9433 -0.8488  0.3151
 7597TIP3   OH244281   1.575   0.779  13.038  0.0444 -0.1961 -0.7761
 7597TIP3    H144282   1.489   0.738  13.029  0.5875 -1.5730  0.0151
 7597TIP3    H244283   1.571   0.858  12.984 -1.7812 -0.1344 -0.5652
 7598TIP3   OH244284   3.587   2.999   4.062 -0.1947  0.3821 -0.1236
 7598TIP3    H144285   3.551   2.921   4.020 -2.4014  1.0603  0.4167
 7598TIP3    H244286   3.650   2.965   4.125 -1.6533 -1.0352  0.6207
 7599TIP3   OH244287   2.614   3.193  11.162  0.4361 -0.3041 -0.4635
 7599TIP3    H144288   2.637   3.252  11.090 -0.6369  0.6918 -0.0168
 7599TIP3    H244289   2.611   3.250  11.239 -1.6182 -0.7259 -0.1857
 7600TIP3   OH244290   3.046   5.244  11.681 -0.2785 -0.5164 -0.0757
 7600TIP3    H144291   2.975   5.199  11.727 -0.7804 -1.2559 -1.5368
 7600TIP3    H244292   3.070   5.185  11.610  0.6202  0.5215 -0.6564
 7601TIP3   OH244293   2.934   2.791  13.123 -0.4409 -0.4144 -0.8063
 7601TIP3    H144294   2.851   2.836  13.103  0.9398  2.0115 -1.3010
 7601TIP3    H244295   2.959   2.825  13.209 -2.1601 -4.5640  1.4855
 7602TIP3   OH244296   4.882   1.789   1.343 -0.5022  0.1051  0.5747
 7602TIP3    H144297   4.851   1.700   1.363 -0.1036 -0.1755 -0.0203
 7602TIP3    H244298   4.973   1.776   1.315 -0.2986  0.7561  0.9224
 7603TIP3   OH244299   1.430   3.678  13.782  0.4489 -0.1263 -0.1918
 7603TIP3    H144300   1.425   3.758  13.731 -2.3030 -0.4188 -0.4561
 7603TIP3    H244301   1.361   3.687  13.848  0.1988 -2.1888 -0.1339
 7604TIP3   OH244302   4.241   5.585  16.912 -0.0438 -0.2651  0.2538
 7604TIP3    H144303   4.275   5.533  16.985  1.4677 -1.8060 -1.4976
 7604TIP3    H244304   4.317   5.599  16.855 -1.3991  0.0308 -1.5389
 7605TIP3   OH244305   5.233   3.511  15.373  0.4260 -0.3435 -0.5148
 7605TIP3    H144306   5.245   3.504  15.279 -1.0342  1.3579 -0.8550
 7605TIP3    H244307   5.144   3.544  15.384  0.4414 -0.8700  1.4750
 7606TIP3   OH244308   1.524   1.095   2.592  0.4450  0.1023  0.7038
 7606TIP3    H144309   1.495   1.046   2.670  0.7410 -1.9111 -0.4025
 7606TIP3    H244310   1.599   1.045   2.560 -0.4080  0.2006 -1.5554
 7607TIP3   OH244311   6.690   6.462   0.667 -0.0497  0.0397 -1.4158
 7607TIP3    H144312   6.626   6.424   0.606 -1.0935  0.2748 -0.4994
 7607TIP3    H244313   6.711   6.390   0.726 -1.1745  0.5621 -0.3611
 7608TIP3   OH244314   1.974   4.592  12.385 -0.1189 -0.4598 -0.0044
 7608TIP3    H144315   1.894   4.644  12.376 -0.7748 -1.4714 -0.0656
 7608TIP3    H244316   2.045   4.653  12.360 -0.7054  0.9161  1.5836
 7609TIP3   OH244317   4.447   3.391   5.132 -0.2085 -0.0992 -0.5923
 7609TIP3    H144318   4.411   3.335   5.063 -1.6176 -1.2712  1.0515
 7609TIP3    H244319   4.371   3.430   5.174  0.6121  0.4066  0.4595
 7610TIP3   OH244320   4.515   5.784   4.321 -0.3876 -0.5463 -0.5701
 7610TIP3    H144321   4.583   5.753   4.260 -0.7679 -2.9797  0.1756
 7610TIP3    H244322   4.435   5.741   4.290 -0.9709 -0.2096  0.4638
 7611TIP3   OH244323   2.401   4.918  13.498  0.3403 -0.4358 -0.2532
 7611TIP3    H144324   2.477   4.959  13.456  0.0625 -0.0197 -0.3469
 7611TIP3    H244325   2.358   4.989  13.546 -1.8087  0.0410 -2.8043
 7612TIP3   OH244326   5.966   4.770   0.705 -0.3646 -0.2416 -0.6249
 7612TIP3    H144327   6.024   4.761   0.781 -0.6303 -0.0802 -0.3983
 7612TIP3    H244328   5.894   4.824   0.737 -0.0785  0.5037 -1.2301
 7613TIP3   OH244329   3.614   1.097  16.442 -0.4458  0.0232 -0.1707
 7613TIP3    H144330   3.611   1.149  16.523  1.5466 -0.4739  0.2453
 7613TIP3    H244331   3.638   1.160  16.374  5.1511 -0.7456  0.8206
 7614TIP3   OH244332   3.731   1.568   5.655 -0.0918 -0.1781 -0.1382
 7614TIP3    H144333   3.693   1.517   5.584 -1.9078 -0.0090  0.6609
 7614TIP3    H244334   3.780   1.505   5.707  0.7981 -0.3995 -1.2386
 7615TIP3   OH244335   4.261   6.548  14.943  0.1072  0.0908  0.3939
 7615TIP3    H144336   4.354   6.527  14.931  0.2140  0.4788  0.5140
 7615TIP3    H244337   4.215   6.467  14.924  0.5232 -0.3078  1.0808
 7616TIP3   OH244338   2.701   1.075  12.614 -0.1263 -0.6494 -0.0320
 7616TIP3    H144339   2.777   1.068  12.557 -0.6386 -2.0110 -0.5748
 7616TIP3    H244340   2.626   1.076  12.554 -0.5594  0.1705  0.5180
 7617TIP3   OH244341   0.152   2.932  14.113 -0.2695 -0.0289  0.0162
 7617TIP3    H144342   0.246   2.914  14.108 -0.2046  0.2478  0.2772
 7617TIP3    H244343   0.134   2.986  14.036 -0.0811  0.5264  0.3619
 7618TIP3   OH244344   1.946   3.674   2.261  0.4528 -0.2340  1.0192
 7618TIP3    H144345   1.916   3.681   2.352 -0.2012  0.0199  0.7890
 7618TIP3    H244346   1.874   3.631   2.215  0.2757  0.7190  0.3831
 7619TIP3   OH244347   1.334   5.635   2.323  0.3828  0.2700 -0.1972
 7619TIP3    H144348   1.317   5.657   2.231  0.2974  0.1291 -0.2147
 7619TIP3    H244349   1.250   5.649   2.367  0.6852  1.3639  0.0550
 7620TIP3   OH244350   2.522   3.961  15.164  0.1309  0.5611 -0.1293
 7620TIP3    H144351   2.458   3.910  15.114  0.3591 -0.5893  0.7295
 7620TIP3    H244352   2.495   4.052  15.152 -1.3239  0.1219 -0.2504
 7621TIP3   OH244353   3.788   4.237   5.194 -0.3918 -0.1201 -0.0574
 7621TIP3    H144354   3.771   4.251   5.101 -2.3020  0.8324  0.4044
 7621TIP3    H244355   3.854   4.168   5.196  0.1025  0.2339 -2.1264
 7622TIP3   OH244356   3.828   4.668  16.188  0.1226  0.0685 -0.2047
 7622TIP3    H144357   3.770   4.663  16.264 -0.9875 -0.3670 -1.0752
 7622TIP3    H244358   3.887   4.593  16.199  2.5366  2.1992  2.2663
 7623TIP3   OH244359   2.507   6.079   5.914 -0.1125  0.6377 -0.5573
 7623TIP3    H144360   2.552   6.005   5.872 -2.0470 -1.1021  0.2979
 7623TIP3    H244361   2.432   6.097   5.857 -0.1919  1.2968 -0.2524
 7624TIP3   OH244362   2.868   2.787   6.409  0.1206  0.4157 -0.1173
 7624TIP3    H144363   2.793   2.835   6.445  1.2780  1.6507  0.7138
 7624TIP3    H244364   2.834   2.745   6.330 -1.7531 -0.0252  0.8798
 7625TIP3   OH244365   1.687   5.481  13.158  0.1762 -0.4062 -0.0284
 7625TIP3    H144366   1.656   5.458  13.245  2.1365 -1.1315  0.5080
 7625TIP3    H244367   1.612   5.467  13.100 -0.4934 -2.0684  1.2160
 7626TIP3   OH244368   0.829   2.985  12.224 -0.5594 -0.1395  0.2621
 7626TIP3    H144369   0.806   3.044  12.296  0.9036  0.9790 -0.1624
 7626TIP3    H244370   0.857   3.043  12.154  1.9444 -1.3584  0.2051
 7627TIP3   OH244371   2.981   4.774  15.736  0.5620  0.2034  0.3951
 7627TIP3    H144372   3.030   4.694  15.718  0.4949  0.5395 -1.3182
 7627TIP3    H244373   3.025   4.841  15.684 -1.0633  0.7238 -0.3179
 7628TIP3   OH244374   0.212   5.082   0.870 -0.4602 -0.2284 -0.1244
 7628TIP3    H144375   0.218   5.148   0.801 -0.7177 -0.7575 -0.6490
 7628TIP3    H244376   0.254   5.124   0.946 -0.3329  0.4150 -0.5437
 7629TIP3   OH244377   0.419   1.509   4.437  0.1099  0.5074  0.2131
 7629TIP3    H144378   0.433   1.414   4.429  0.0109  0.6092 -1.3312
 7629TIP3    H244379   0.469   1.546   4.365 -1.6957  1.4631 -0.5729
 7630TIP3   OH244380   3.038   0.475   5.135 -0.5308 -0.1096  0.1840
 7630TIP3    H144381   3.125   0.435   5.134 -0.7854 -0.6632 -0.1070
 7630TIP3    H244382   3.054   0.567   5.156  0.2899  0.2285 -1.8387
 7631TIP3   OH244383   6.274   0.852  13.207 -0.1720  0.1800  0.0200
 7631TIP3    H144384   6.194   0.880  13.251 -0.7934 -1.2489 -0.1562
 7631TIP3    H244385   6.244   0.821  13.121  0.4723 -1.0402  0.2258
 7632TIP3   OH244386   1.107   4.826  11.800 -0.0126  0.0395  0.3068
 7632TIP3    H144387   1.067   4.839  11.886  1.8001  0.9486  1.0565
 7632TIP3    H244388   1.125   4.732  11.797 -2.0604 -0.3537  0.0022
 7633TIP3   OH244389   6.546   1.898  13.104  0.5063  0.0168  0.1132
 7633TIP3    H144390   6.454   1.882  13.081  0.8772 -1.5961 -0.2961
 7633TIP3    H244391   6.579   1.812  13.131  1.9462  0.5561  0.1069
 7634TIP3   OH244392   3.523   1.918  16.880 -0.0635 -0.7966  0.1912
 7634TIP3    H144393   3.443   1.875  16.850 -0.2355 -0.5889  0.3444
 7634TIP3    H244394   3.594   1.861  16.850 -0.2824 -1.1258  0.2952
 7635TIP3   OH244395   5.256   3.761  13.818 -0.2240 -0.2468 -0.1367
 7635TIP3    H144396   5.338   3.713  13.813  0.4178  1.0002 -2.2343
 7635TIP3    H244397   5.189   3.696  13.799  0.3870 -0.9582  0.1337
 7636TIP3   OH244398   4.390   0.778  15.762  0.2928 -0.4204 -0.2062
 7636TIP3    H144399   4.481   0.762  15.788  0.2460 -1.6568 -0.7850
 7636TIP3    H244400   4.374   0.870  15.786  1.3372 -0.5227  0.9211
 7637TIP3   OH244401   1.713   4.948  13.948 -0.6846 -0.2216 -0.1503
 7637TIP3    H144402   1.650   4.943  13.876 -1.1809  0.1760  0.2512
 7637TIP3    H244403   1.659   4.965  14.025  0.0218  1.2791  0.0284
 7638TIP3   OH244404   1.488   6.814  12.625  0.4009  0.4037 -0.7124
 7638TIP3    H144405   1.395   6.792  12.615  0.4432 -0.0153 -0.2105
 7638TIP3    H244406   1.530   6.732  12.650  0.7195  0.8319  0.1903
 7639TIP3   OH244407   0.333   3.155   4.975  0.0200  0.1903  0.0753
 7639TIP3    H144408   0.314   3.072   5.019  1.9502 -0.7237 -0.7601
 7639TIP3    H244409   0.297   3.222   5.032  0.6408 -1.0960  2.0002
 7640TIP3   OH244410   4.638   2.172  16.414  0.0453  0.0025  0.0719
 7640TIP3    H144411   4.726   2.163  16.380 -0.6471  0.2671 -1.8653
 7640TIP3    H244412   4.583   2.183  16.336 -1.5359  1.0697  1.2953
 7641TIP3   OH244413   2.452   3.365   0.470 -0.3862  0.4068  0.3741
 7641TIP3    H144414   2.422   3.313   0.396  0.1811  0.6559 -0.0360
 7641TIP3    H244415   2.373   3.385   0.520 -0.6832 -0.3151  0.1907
 7642TIP3   OH244416   6.608   5.211  14.276  0.0130  0.2117  0.2998
 7642TIP3    H144417   6.568   5.285  14.321  1.2144  0.4423  1.0051
 7642TIP3    H244418   6.566   5.133  14.313 -1.9208  0.5431 -1.0972
 7643TIP3   OH244419   5.514   1.477   3.238  0.3436  0.3178  0.3058
 7643TIP3    H144420   5.575   1.422   3.288  1.6487  1.8443  0.4450
 7643TIP3    H244421   5.481   1.540   3.301 -1.2807 -0.3756  0.1818
 7644TIP3   OH244422   2.808   4.311   4.928 -0.0894  0.7053  0.0719
 7644TIP3    H144423   2.756   4.387   4.956  1.1936  1.5943  0.1067
 7644TIP3    H244424   2.812   4.255   5.006 -1.6466  0.2362 -0.1653
 7645TIP3   OH244425   2.740   6.450   0.918 -0.0182  0.0754 -0.0825
 7645TIP3    H144426   2.677   6.511   0.880  0.1061 -0.2209 -0.7849
 7645TIP3    H244427   2.820   6.502   0.927 -1.1513  1.3331  3.6614
 7646TIP3   OH244428   5.201   5.156   4.535  0.3497  0.0005  0.2114
 7646TIP3    H144429   5.278   5.122   4.488 -0.6924 -0.9934 -0.8301
 7646TIP3    H244430   5.192   5.098   4.611  0.4357 -0.1018  0.1448
 7647TIP3   OH244431   5.516   6.581  14.816 -0.0066 -0.3484  0.0332
 7647TIP3    H144432   5.607   6.595  14.846 -0.0464 -0.2415  0.1034
 7647TIP3    H244433   5.525   6.535  14.733  0.2075  2.1696 -1.4121
 7648TIP3   OH244434   2.240   0.304  12.832  0.1337 -0.6610 -0.2151
 7648TIP3    H144435   2.146   0.320  12.827  0.2359  0.3543  0.9517
 7648TIP3    H244436   2.247   0.230  12.893  0.1260 -0.2855  0.2476
 7649TIP3   OH244437   6.473   1.934  11.334  0.0764 -0.5625 -0.2936
 7649TIP3    H144438   6.438   1.895  11.254 -0.6723 -0.1677 -0.1659
 7649TIP3    H244439   6.397   1.945  11.391  0.5201 -0.3380  0.2626
 7650TIP3   OH244440   5.564   6.307  16.844 -0.1976 -0.2418 -0.3150
 7650TIP3    H144441   5.528   6.382  16.797 -1.0010  0.0992  0.8060
 7650TIP3    H244442   5.527   6.231  16.800 -2.2002  0.1014  0.7010
 7651TIP3   OH244443   3.893   4.010   1.136 -0.3090 -0.2930 -0.6286
 7651TIP3    H144444   3.913   3.949   1.206  0.3168  0.4321 -0.1636
 7651TIP3    H244445   3.797   4.007   1.127 -0.4781  0.3366  0.9103
 7652TIP3   OH244446   5.341   3.098  10.876  0.1506  0.2418 -0.3853
 7652TIP3    H144447   5.284   3.098  10.953 -0.8880 -0.0503 -1.1410
 7652TIP3    H244448   5.387   3.014  10.881  0.3283  0.3621  0.0811
 7653TIP3   OH244449   4.499   3.301  11.128  0.2531 -0.0119 -0.3423
 7653TIP3    H144450   4.481   3.210  11.152  0.4092  0.2958  1.0004
 7653TIP3    H244451   4.586   3.299  11.089 -0.3469 -0.6516 -1.6793
 7654TIP3   OH244452   5.997   3.594  16.991 -0.1667 -0.1829 -0.1039
 7654TIP3    H144453   6.034   3.658  17.051  1.2832 -0.1017 -1.0654
 7654TIP3    H244454   5.923   3.556  17.038  0.8249  0.0229  1.6313
 7655TIP3   OH244455   1.173   4.322   5.339 -0.2659 -0.3229 -0.6488
 7655TIP3    H144456   1.179   4.412   5.371 -1.1179  0.1655 -1.8231
 7655TIP3    H244457   1.251   4.312   5.283  0.1944 -0.5507  0.0229
 7656TIP3   OH244458   5.659   0.146   3.481 -0.2978 -0.7763  0.1626
 7656TIP3    H144459   5.603   0.222   3.496  0.3165 -0.5448  1.3519
 7656TIP3    H244460   5.633   0.114   3.395 -1.0800  0.3373 -0.0326
 7657TIP3   OH244461   6.533   4.010   1.140  0.2277  0.0605  0.1074
 7657TIP3    H144462   6.562   3.922   1.164 -0.7473 -0.3040 -0.0049
 7657TIP3    H244463   6.443   4.015   1.173  0.2711  1.0064  0.0895
 7658TIP3   OH244464   4.375   0.843  14.809 -0.4640  0.3261 -0.1063
 7658TIP3    H144465   4.456   0.878  14.773 -0.6058  0.3941 -0.3578
 7658TIP3    H244466   4.353   0.769  14.753 -0.8406  0.6114 -0.3457
 7659TIP3   OH244467   3.965   5.681   2.562 -0.3058 -0.6254 -0.3217
 7659TIP3    H144468   4.002   5.670   2.650 -2.5126 -0.6588  0.6541
 7659TIP3    H244469   3.878   5.640   2.568 -1.6605  1.9385 -1.6656
 7660TIP3   OH244470   3.544   5.614   4.749  1.0031  0.6866  0.3203
 7660TIP3    H144471   3.629   5.657   4.763  2.0280 -0.8307 -1.0025
 7660TIP3    H244472   3.520   5.580   4.835  2.5073 -0.1896  0.4163
 7661TIP3   OH244473   1.394   3.331  16.542  0.1708  0.3792  0.2989
 7661TIP3    H144474   1.346   3.321  16.624  0.8064  0.2867  0.6628
 7661TIP3    H244475   1.451   3.407  16.557 -0.0730  0.6645 -0.2288
 7662TIP3   OH244476   4.313   4.076   1.836  0.0656  0.2422 -0.0796
 7662TIP3    H144477   4.407   4.059   1.839 -0.3572 -2.3139  0.2716
 7662TIP3    H244478   4.285   4.070   1.928 -0.2396  2.3594 -0.0120
 7663TIP3   OH244479   1.553   2.468  14.056 -0.0412  0.0899 -0.8620
 7663TIP3    H144480   1.626   2.486  14.116 -0.7100 -0.0990  0.0351
 7663TIP3    H244481   1.594   2.430  13.979  0.7874 -0.2806 -0.2542
 7664TIP3   OH244482   1.780   0.212  12.827  0.5241  0.0143 -0.3452
 7664TIP3    H144483   1.722   0.288  12.828 -1.9649 -1.8398  2.1374
 7664TIP3    H244484   1.762   0.168  12.744  1.2761  1.5425 -1.3498
 7665TIP3   OH244485   0.591   3.464   2.031  0.5090 -0.3657 -0.4977
 7665TIP3    H144486   0.593   3.380   1.984 -0.6832 -1.1454  0.8090
 7665TIP3    H244487   0.555   3.526   1.966 -0.2835 -1.2449 -0.9229
 7666TIP3   OH244488   3.924   0.590  15.636 -0.1067  0.2553 -0.3125
 7666TIP3    H144489   3.892   0.535  15.564 -0.9201 -2.1201  1.8018
 7666TIP3    H244490   3.990   0.536  15.680  0.6369  1.8143  0.5281
 7667TIP3   OH244491   0.145   6.212   0.499  0.6739 -0.1550  0.0749
 7667TIP3    H144492   0.128   6.145   0.565  1.3383 -0.1856  0.2171
 7667TIP3    H244493   0.193   6.280   0.547  0.9976 -0.0954 -0.3343
 7668TIP3   OH244494   0.671   5.184  13.577 -0.0743 -0.4287 -0.2173
 7668TIP3    H144495   0.613   5.147  13.510 -1.3017  1.6296 -0.3186
 7668TIP3    H244496   0.612   5.227  13.638  1.3160  1.2050 -0.0036
 7669TIP3   OH244497   5.648   3.344  12.396 -0.4348 -0.8397 -0.1815
 7669TIP3    H144498   5.556   3.331  12.370 -0.8201  1.5374 -0.0962
 7669TIP3    H244499   5.649   3.429  12.439  1.5676 -1.5107  1.1334
 7670TIP3   OH244500   0.235   6.009   1.931 -0.6311  0.2581 -0.6600
 7670TIP3    H144501   0.212   6.058   1.852 -1.4361  0.3589 -0.3730
 7670TIP3    H244502   0.171   6.037   1.996 -0.9926 -1.0400 -0.4359
 7671TIP3   OH244503   1.388   2.492  12.270 -0.7207 -0.6723 -0.6149
 7671TIP3    H144504   1.401   2.567  12.211  0.2613  1.2106  1.8697
 7671TIP3    H244505   1.475   2.452  12.276 -0.6860 -0.5046 -0.0099
 7672TIP3   OH244506   1.390   1.833   0.130 -0.1479  0.7378 -0.6447
 7672TIP3    H144507   1.464   1.890   0.109  1.0085 -0.7180 -0.5652
 7672TIP3    H244508   1.390   1.766   0.062  0.7132 -1.2505  1.2627
 7673TIP3   OH244509   2.584   6.162  11.789 -0.4478  0.0290  0.0670
 7673TIP3    H144510   2.512   6.100  11.788  0.1933 -0.7171 -0.9014
 7673TIP3    H244511   2.553   6.235  11.843 -1.6805 -0.5585  0.1549
 7674TIP3   OH244512   0.749   2.236  14.389 -0.0240 -0.0293  0.5633
 7674TIP3    H144513   0.696   2.183  14.329  0.4000 -2.5960  2.3397
 7674TIP3    H244514   0.762   2.319  14.344 -2.3141 -0.7682 -1.5365
 7675TIP3   OH244515   4.022   1.801   1.613 -0.2620  0.3490  0.0482
 7675TIP3    H144516   4.058   1.714   1.595  1.1837  1.1856 -1.1936
 7675TIP3    H244517   4.052   1.822   1.701 -1.3804 -0.7686  0.7208
 7676TIP3   OH244518   4.168   3.485   6.229  0.1989  1.2133  0.0496
 7676TIP3    H144519   4.230   3.515   6.162  0.9316  2.5647  1.3008
 7676TIP3    H244520   4.126   3.565   6.260 -1.3051  0.4227  0.0593
 7677TIP3   OH244521   4.793   4.042   4.022 -0.2943  0.2527  0.0846
 7677TIP3    H144522   4.721   4.002   4.071  0.8740 -2.2290 -0.1204
 7677TIP3    H244523   4.754   4.065   3.938 -0.9193 -0.8728  0.0481
 7678TIP3   OH244524   0.565   2.790  12.736 -0.4422  0.2312 -0.7464
 7678TIP3    H144525   0.531   2.712  12.780 -0.1303  0.7015  0.3411
 7678TIP3    H244526   0.606   2.757  12.656  2.1368 -1.0374  1.0529
 7679TIP3   OH244527   4.033   3.399  15.464  0.2204  0.1967 -0.1262
 7679TIP3    H144528   3.975   3.337  15.508 -1.0872  0.8201 -0.9348
 7679TIP3    H244529   4.078   3.347  15.397 -0.9389  0.1253 -0.8617
 7680TIP3   OH244530   0.796   0.794   2.457  0.0901  0.2243  0.3139
 7680TIP3    H144531   0.720   0.748   2.422  0.1579  0.3265  0.0324
 7680TIP3    H244532   0.783   0.792   2.552  1.0970 -2.1335  0.4419
 7681TIP3   OH244533   0.438   4.871  13.681 -0.7095  0.8614  0.0540
 7681TIP3    H144534   0.386   4.794  13.703  1.0067 -0.2521  0.2626
 7681TIP3    H244535   0.449   4.866  13.586 -1.3276  1.3197 -0.0438
 7682TIP3   OH244536   0.905   3.339  14.499 -0.0701 -0.7378 -0.0483
 7682TIP3    H144537   0.919   3.272  14.565 -0.1498  1.4473  2.2348
 7682TIP3    H244538   0.811   3.338  14.482 -0.2492 -0.3005  0.9392
 7683TIP3   OH244539   4.246   6.003  12.565 -0.6090 -0.0859 -0.1965
 7683TIP3    H144540   4.305   5.927  12.566 -0.5944 -0.0693  0.1713
 7683TIP3    H244541   4.292   6.069  12.617 -0.2179  0.4793 -1.2403
 7684TIP3   OH244542   6.593   2.863  15.112  0.4921 -0.3610  0.8688
 7684TIP3    H144543   6.668   2.895  15.062 -0.5312 -0.5837 -0.8587
 7684TIP3    H244544   6.537   2.939  15.124 -0.3057 -0.7508 -0.2610
 7685TIP3   OH244545   5.743   0.032  15.403 -0.3840 -0.1917 -0.1111
 7685TIP3    H144546   5.669   0.038  15.342 -0.9007 -0.8430  0.4415
 7685TIP3    H244547   5.736  -0.056  15.440 -0.2352  0.2892  1.0815
 7686TIP3   OH244548   5.291   4.333  11.995 -0.1588 -0.1627 -0.3818
 7686TIP3    H144549   5.384   4.310  12.006 -0.2930  0.1406  1.6351
 7686TIP3    H244550   5.292   4.417  11.949  0.5842  0.1020  0.1142
 7687TIP3   OH244551   2.714   3.429   4.767 -0.0980  0.2254 -0.2691
 7687TIP3    H144552   2.802   3.392   4.775  0.3254  1.5305  1.2439
 7687TIP3    H244553   2.723   3.498   4.702  0.2472  1.1176  0.7246
 7688TIP3   OH244554   0.236   1.275   4.237 -0.1266  0.2309  0.2634
 7688TIP3    H144555   0.173   1.204   4.230 -0.9163  0.8742  0.7112
 7688TIP3    H244556   0.289   1.253   4.313  0.2165 -0.3363 -0.1411
 7689TIP3   OH244557   6.766   3.635  15.640  0.0413 -0.2044 -0.7150
 7689TIP3    H144558   6.703   3.569  15.669  1.0028 -0.4745  0.8333
 7689TIP3    H244559   6.768   3.625  15.544 -2.8956  0.4336 -0.8881
 7690TIP3   OH244560   5.565   5.129  11.697 -0.2075  0.5443  0.2149
 7690TIP3    H144561   5.600   5.121  11.785  1.7333  1.8652 -0.4011
 7690TIP3    H244562   5.515   5.211  11.698  1.2280  1.4499 -0.3391
 7691TIP3   OH244563   0.189   1.975  13.249  0.0257 -0.6184 -0.4678
 7691TIP3    H144564   0.239   1.910  13.298 -1.5909 -0.3320  1.6260
 7691TIP3    H244565   0.205   1.953  13.157  0.3773 -3.2785  0.1901
 7692TIP3   OH244566   5.910   4.852   6.254 -0.3113  0.5918  0.2739
 7692TIP3    H144567   5.816   4.836   6.245  0.3633 -2.8211 -1.5986
 7692TIP3    H244568   5.927   4.930   6.201 -1.7211 -0.2084 -1.3915
 7693TIP3   OH244569   1.156   1.216   4.515 -0.3330  0.7451  0.1021
 7693TIP3    H144570   1.155   1.145   4.579 -0.8961  1.3938  0.8227
 7693TIP3    H244571   1.075   1.206   4.466 -0.4903  0.9874  0.3121
 7694TIP3   OH244572   5.523   3.823   0.762 -0.2613  0.1289  0.0768
 7694TIP3    H144573   5.521   3.795   0.671  0.3943 -1.8106  0.6173
 7694TIP3    H244574   5.614   3.812   0.789 -0.5964 -0.0407  1.1662
 7695TIP3   OH244575   3.362   0.973  12.266 -0.2024  0.1962  0.2697
 7695TIP3    H144576   3.416   0.956  12.189  1.7436  3.0973  0.9453
 7695TIP3    H244577   3.285   1.019  12.232  0.2306  0.6916 -0.0317
 7696TIP3   OH244578   2.502   5.755   2.194 -0.0456  0.0646 -0.1407
 7696TIP3    H144579   2.426   5.749   2.252 -0.4664  0.6586 -0.6251
 7696TIP3    H244580   2.506   5.670   2.150 -0.0484 -0.1948  0.3569
 7697TIP3   OH244581   1.179   6.591  15.411  0.6628 -0.3717  0.2146
 7697TIP3    H144582   1.236   6.522  15.446  1.4508  0.1300 -0.0805
 7697TIP3    H244583   1.221   6.617  15.329 -0.0933 -0.1257 -0.0950
 7698TIP3   OH244584   4.482   0.823   6.519  0.2936  0.2259  0.1170
 7698TIP3    H144585   4.404   0.828   6.574  0.2226 -0.4204  0.0836
 7698TIP3    H244586   4.507   0.914   6.503 -1.1520  0.4525 -0.8598
 7699TIP3   OH244587   0.262   3.779  12.689  0.1299 -0.2075  0.0994
 7699TIP3    H144588   0.282   3.686  12.696 -0.3799 -0.1996  1.9228
 7699TIP3    H244589   0.167   3.782  12.676  0.3216  0.0199 -1.3392
 7700TIP3   OH244590   2.322   5.417   4.873  0.0889  0.0498  0.1939
 7700TIP3    H144591   2.376   5.341   4.892  0.3214  0.2101  0.1651
 7700TIP3    H244592   2.283   5.398   4.788  1.1972  0.5565 -0.4403
 7701TIP3   OH244593   0.537   3.293  10.847  0.4488  0.4989  0.5163
 7701TIP3    H144594   0.631   3.279  10.835  0.3688  0.0059  0.4255
 7701TIP3    H244595   0.524   3.386  10.830  1.1304  0.8640  1.9367
 7702TIP3   OH244596   2.005   4.220  15.182  0.1372 -0.0325 -0.0046
 7702TIP3    H144597   2.096   4.220  15.153 -0.1068  1.8113 -0.8574
 7702TIP3    H244598   1.974   4.131  15.165  1.9897 -0.8993  1.0333
 7703TIP3   OH244599   6.259   0.837   1.338  0.0492  0.3220  0.2174
 7703TIP3    H144600   6.245   0.840   1.433  2.8854  0.8971  0.6616
 7703TIP3    H244601   6.220   0.918   1.306 -0.7832  0.2007  0.9019
 7704TIP3   OH244602   1.976   2.537   2.752  0.3021 -0.1103  0.3714
 7704TIP3    H144603   1.915   2.590   2.802  0.7074  0.3746  0.3574
 7704TIP3    H244604   1.969   2.449   2.790  1.0512  0.3825  1.6908
 7705TIP3   OH244605   5.719   5.676   1.441 -0.6082 -0.5497  0.5562
 7705TIP3    H144606   5.775   5.663   1.517 -0.6464 -2.2105  0.3083
 7705TIP3    H244607   5.662   5.599   1.439 -2.7699  1.0053  0.6939
 7706TIP3   OH244608   5.865   2.255  11.374 -0.8994  0.5066 -0.2704
 7706TIP3    H144609   5.810   2.329  11.398 -0.0730  1.1124 -0.2425
 7706TIP3    H244610   5.861   2.253  11.278 -0.8062  0.6710 -0.2776
 7707TIP3   OH244611   2.960   4.596   4.281  0.3733  0.0558 -0.0316
 7707TIP3    H144612   2.942   4.508   4.249  0.6730  0.4569 -1.3340
 7707TIP3    H244613   2.878   4.644   4.265  1.3204  0.9087 -2.5371
 7708TIP3   OH244614   5.774   3.693   1.310 -0.2028 -0.3579 -0.0965
 7708TIP3    H144615   5.680   3.699   1.326 -0.1093 -1.2321  0.8167
 7708TIP3    H244616   5.785   3.610   1.264 -0.0722  0.5825 -1.8310
 7709TIP3   OH244617   2.514   6.161   1.023 -0.1844 -0.0564  0.0375
 7709TIP3    H144618   2.455   6.118   1.085  2.0227 -0.2690  2.0671
 7709TIP3    H244619   2.475   6.248   1.010 -2.1948 -1.0065 -0.5423
 7710TIP3   OH244620   0.651   3.261  15.606  0.4760  0.0203  0.7390
 7710TIP3    H144621   0.565   3.250  15.566  0.6586 -0.2430  0.4120
 7710TIP3    H244622   0.644   3.341  15.658  0.8614  1.5871 -1.5337
 7711TIP3   OH244623   5.406   5.310  13.398  0.1638 -0.2744  0.5288
 7711TIP3    H144624   5.426   5.295  13.306  1.4531 -0.5672  0.8521
 7711TIP3    H244625   5.491   5.310  13.442 -0.3609  0.8215  1.5866
 7712TIP3   OH244626   6.065   4.417  16.472  0.2027 -0.3583  0.0351
 7712TIP3    H144627   6.056   4.446  16.563  0.8958  1.4505 -0.4469
 7712TIP3    H244628   6.140   4.467  16.439  0.1415 -1.2393 -1.4305
 7713TIP3   OH244629   6.676   4.201   1.268  0.9920 -0.1864  0.0780
 7713TIP3    H144630   6.623   4.135   1.223  1.2140  0.3928 -1.0595
 7713TIP3    H244631   6.762   4.193   1.228  1.7734 -1.0948  1.8985
 7714TIP3   OH244632   5.445   3.443  14.623  0.5378  0.5641 -0.1715
 7714TIP3    H144633   5.364   3.444  14.573 -0.1634 -0.0218  0.9438
 7714TIP3    H244634   5.506   3.496  14.571 -0.5432  0.9746 -1.0298
 7715TIP3   OH244635   3.220   0.992  15.996  0.0533  0.5123  0.0527
 7715TIP3    H144636   3.149   1.049  15.967 -0.2678 -0.1033 -0.3615
 7715TIP3    H244637   3.272   0.977  15.917 -0.9410 -1.3400 -0.2589
 7716TIP3   OH244638   5.885   2.064  16.595 -0.1170 -0.0323  0.3320
 7716TIP3    H144639   5.953   2.018  16.546 -0.9052  1.3519 -2.1216
 7716TIP3    H244640   5.804   2.018  16.574 -0.3098 -0.1489  1.2845
 7717TIP3   OH244641   5.054   6.085  11.496  0.1329  0.2518  0.0042
 7717TIP3    H144642   5.020   6.012  11.548 -0.1036 -0.0698 -0.6057
 7717TIP3    H244643   5.032   6.163  11.548 -2.1364  0.1032 -0.7007
 7718TIP3   OH244644   1.201   5.680   2.058  0.1281  0.2211 -0.4617
 7718TIP3    H144645   1.277   5.667   2.002  0.0133 -0.1642 -0.5322
 7718TIP3    H244646   1.137   5.616   2.027  0.3128 -0.4654  0.5401
 7719TIP3   OH244647   2.401   1.450  11.466 -0.2575  0.3353  0.0002
 7719TIP3    H144648   2.459   1.508  11.417 -0.6596  1.7855  1.2041
 7719TIP3    H244649   2.460   1.385  11.505  0.0897 -0.6674 -2.1366
 7720TIP3   OH244650   6.581   1.056   5.611 -0.2503  0.6716  0.1585
 7720TIP3    H144651   6.516   0.986   5.620 -1.0501  1.0085 -2.7947
 7720TIP3    H244652   6.532   1.131   5.578  1.1979  1.6972  0.2925
 7721TIP3   OH244653   2.289   5.401   3.334 -0.1403 -0.0285  0.0832
 7721TIP3    H144654   2.266   5.353   3.414  0.0979  0.1201  0.2428
 7721TIP3    H244655   2.312   5.488   3.365  1.2773 -0.3627  0.0058
 7722TIP3   OH244656   3.572   5.789   3.525 -0.2517 -0.4610  0.1474
 7722TIP3    H144657   3.546   5.711   3.476 -0.2673 -0.3953  0.0489
 7722TIP3    H244658   3.662   5.771   3.552 -1.1494 -1.6410  2.4332
 7723TIP3   OH244659   0.684   3.117   0.686  1.0119  0.3094 -0.1548
 7723TIP3    H144660   0.741   3.083   0.617  0.6091  0.5273 -0.5950
 7723TIP3    H244661   0.693   3.212   0.679 -0.6666  0.3961 -1.2910
 7724TIP3   OH244662   2.289   2.314  16.106 -0.3698  0.6240 -0.2296
 7724TIP3    H144663   2.333   2.392  16.139 -2.4636  0.7572  2.4138
 7724TIP3    H244664   2.299   2.249  16.175  0.3403 -1.1266 -1.9050
 7725TIP3   OH244665   5.093   2.557  11.288  0.2432  0.3411  0.2349
 7725TIP3    H144666   5.163   2.561  11.222 -1.1416 -1.5696 -1.4236
 7725TIP3    H244667   5.044   2.638  11.275 -0.6914 -0.5127 -1.9351
 7726TIP3   OH244668   0.759   6.073   3.602 -0.2191  0.1167 -0.0884
 7726TIP3    H144669   0.670   6.044   3.623  0.1898 -0.7741  0.4336
 7726TIP3    H244670   0.793   6.006   3.543 -0.0802  0.7371 -0.7242
 7727TIP3   OH244671   4.626   6.294  10.836 -0.1955  0.4335 -0.0697
 7727TIP3    H144672   4.697   6.303  10.900  0.1819 -0.7238 -0.3053
 7727TIP3    H244673   4.569   6.227  10.873 -1.0968  1.2538  0.0425
 7728TIP3   OH244674   0.914   4.898  15.682 -0.2142 -0.5189 -0.5882
 7728TIP3    H144675   0.904   4.992  15.699 -0.4327 -0.1688 -2.5212
 7728TIP3    H244676   0.966   4.866  15.756 -1.5543  0.7922  0.9947
 7729TIP3   OH244677   1.396   1.258  14.129 -0.0053 -0.3853  0.0338
 7729TIP3    H144678   1.331   1.329  14.124 -0.6977 -1.0363 -0.3431
 7729TIP3    H244679   1.356   1.194  14.188  1.0865  0.0064  1.2338
 7730TIP3   OH244680   0.515   1.464   1.754  0.1439 -0.3399 -0.0231
 7730TIP3    H144681   0.495   1.494   1.666  0.9813 -0.7108 -0.3515
 7730TIP3    H244682   0.477   1.376   1.759  2.4450 -1.4342 -0.9781
 7731TIP3   OH244683   5.009   4.588  13.064 -0.0509  0.0835  0.1491
 7731TIP3    H144684   5.057   4.564  13.143 -0.6305  0.3027  0.5656
 7731TIP3    H244685   5.074   4.636  13.011  0.3260 -0.0417  0.4934
 7732TIP3   OH244686   2.287   1.248  14.473  0.1278  1.0804  0.0418
 7732TIP3    H144687   2.230   1.305  14.526 -0.0303  0.8977  0.0670
 7732TIP3    H244688   2.228   1.207  14.410  0.0542  0.0677  0.7580
 7733TIP3   OH244689   0.793   5.664  12.476  0.8000  0.5390  0.4921
 7733TIP3    H144690   0.771   5.599  12.542  0.7509  0.1786  0.1222
 7733TIP3    H244691   0.754   5.746  12.509  1.9833  0.6621  1.5968
 7734TIP3   OH244692   3.095   5.006   3.780  0.0675  0.1002 -0.0581
 7734TIP3    H144693   3.049   5.019   3.864 -1.2174  0.2473 -0.7683
 7734TIP3    H244694   3.135   4.919   3.788  0.2137  0.2415  0.8290
 7735TIP3   OH244695   4.046   3.221  14.352 -0.0437 -0.2089  0.9467
 7735TIP3    H144696   4.005   3.142  14.317 -2.3848  1.2637  0.2153
 7735TIP3    H244697   4.077   3.267  14.274  1.7422 -0.6099  1.4024
 7736TIP3   OH244698   5.476   4.549   5.488 -0.0815 -1.1040 -0.4076
 7736TIP3    H144699   5.562   4.508   5.480  0.5885  0.4092 -1.0904
 7736TIP3    H244700   5.446   4.526   5.576  1.5164 -0.7105  0.2468
 7737TIP3   OH244701   5.345   6.279  12.371  0.4396 -0.2056  0.2177
 7737TIP3    H144702   5.272   6.304  12.315  0.1494 -1.3939  0.0547
 7737TIP3    H244703   5.406   6.353  12.367  0.7133 -0.5306 -2.1646
 7738TIP3   OH244704   2.477   3.796   4.601  0.1022  0.2016  0.1026
 7738TIP3    H144705   2.510   3.884   4.581  2.2828 -1.2549 -3.2582
 7738TIP3    H244706   2.451   3.800   4.692  1.7328  3.8917  0.4902
 7739TIP3   OH244707   5.080   6.105   1.306  0.0213 -0.6952  0.3893
 7739TIP3    H144708   5.021   6.059   1.246  0.7844 -1.2046  0.0041
 7739TIP3    H244709   5.071   6.058   1.389  0.0920 -0.9490  0.2541
 7740TIP3   OH244710   3.767   6.788   3.352 -0.1371 -0.0919 -0.0936
 7740TIP3    H144711   3.740   6.805   3.261  0.4013 -2.0643 -0.6299
 7740TIP3    H244712   3.685   6.789   3.401 -0.5346  0.0291 -0.7495
 7741TIP3   OH244713   2.342   6.019  11.818  0.0753  0.4139  0.2528
 7741TIP3    H144714   2.313   5.951  11.878  0.6447 -0.4186 -0.4105
 7741TIP3    H244715   2.395   5.973  11.754 -0.7976  1.2440 -1.0842
 7742TIP3   OH244716   1.113   6.269  16.598 -0.0164  0.7280 -0.0932
 7742TIP3    H144717   1.059   6.203  16.641  1.3866 -0.9985 -0.9184
 7742TIP3    H244718   1.055   6.307  16.531  0.1429 -2.0755 -1.9126
 7743TIP3   OH244719   4.359   0.264   3.119 -0.1739 -0.0334 -0.6968
 7743TIP3    H144720   4.416   0.267   3.042  1.8732  0.5246  0.8007
 7743TIP3    H244721   4.393   0.191   3.171 -1.5729 -0.4433 -0.3389
 7744TIP3   OH244722   0.327   2.942   6.026  0.4980 -0.5432 -0.1865
 7744TIP3    H144723   0.247   2.992   6.045  0.9931  0.2882 -0.2342
 7744TIP3    H244724   0.313   2.904   5.940  0.2421 -0.2152 -0.2879
 7745TIP3   OH244725   2.525   1.185   5.175  0.2369  0.3012 -0.5339
 7745TIP3    H144726   2.521   1.108   5.231 -0.1636  0.3541 -0.4870
 7745TIP3    H244727   2.582   1.160   5.103  1.6013  0.5741  0.4314
 7746TIP3   OH244728   5.509   0.857   4.314 -0.3456  0.6600  0.5635
 7746TIP3    H144729   5.548   0.902   4.239 -2.5403  1.7797  0.0299
 7746TIP3    H244730   5.516   0.920   4.385 -0.9361  0.7625  0.5305
 7747TIP3   OH244731   5.811   0.807  17.075 -0.1015 -0.5905 -0.1804
 7747TIP3    H144732   5.814   0.752  17.153  1.8042  0.5060  0.5438
 7747TIP3    H244733   5.854   0.755  17.007  0.1536 -0.6732  0.0429
 7748TIP3   OH244734   1.805   3.118   2.267  0.2931  0.4271  0.6393
 7748TIP3    H144735   1.900   3.128   2.266  0.1898  1.5890  1.0962
 7748TIP3    H244736   1.789   3.037   2.220  1.6706 -1.0586  2.6047
 7749TIP3   OH244737   3.081   6.451  14.990  0.2636 -0.5178  0.0790
 7749TIP3    H144738   3.023   6.527  14.995 -1.3070 -1.6178 -0.6899
 7749TIP3    H244739   3.164   6.481  15.025 -1.0009  0.8946  1.9993
 7750TIP3   OH244740   5.351   0.904  12.271 -0.1395 -0.2864 -0.1912
 7750TIP3    H144741   5.269   0.892  12.318  0.3001 -0.4364  0.5421
 7750TIP3    H244742   5.363   0.999  12.267  0.3174 -0.2864  0.8824
 7751TIP3   OH244743   1.718   3.572   2.142  0.1637  0.2608 -0.3712
 7751TIP3    H144744   1.651   3.634   2.171 -0.4833  0.3030 -1.9151
 7751TIP3    H244745   1.696   3.490   2.186  0.1206  0.7082  0.4618
 7752TIP3   OH244746   6.272   6.059   0.064 -0.5152  0.3009  0.1029
 7752TIP3    H144747   6.200   6.024   0.116 -0.2178 -0.7732 -0.2131
 7752TIP3    H244748   6.330   6.099   0.129 -0.3663 -0.6487  0.5646
 7753TIP3   OH244749   3.754   0.038  16.024  0.0982 -0.4409  0.1547
 7753TIP3    H144750   3.661   0.030  16.045 -0.5144  2.0781 -1.4057
 7753TIP3    H244751   3.792   0.082  16.100 -0.4825  0.8382 -0.2872
 7754TIP3   OH244752   5.805   1.341   1.536 -0.4786  0.3578  0.6092
 7754TIP3    H144753   5.901   1.342   1.539 -0.3874 -0.9503 -1.2070
 7754TIP3    H244754   5.784   1.361   1.444 -1.9264 -0.3503  0.7772
 7755TIP3   OH244755   6.169   5.104   2.923  0.2553  0.1895 -0.0791
 7755TIP3    H144756   6.092   5.159   2.907  1.5779  2.0167 -0.3745
 7755TIP3    H244757   6.242   5.166   2.925  2.0884 -1.8175 -2.5116
 7756TIP3   OH244758   5.485   1.196   3.155  0.2947  0.6816 -0.1343
 7756TIP3    H144759   5.402   1.154   3.178  0.3416 -0.4145 -1.8538
 7756TIP3    H244760   5.470   1.289   3.173 -1.3564  0.5190 -0.5397
 7757TIP3   OH244761   5.693   5.577   4.760  0.2264  0.4870  0.1872
 7757TIP3    H144762   5.606   5.616   4.755 -0.9440 -2.1114 -0.5254
 7757TIP3    H244763   5.746   5.628   4.699 -1.2457  0.9440 -0.7358
 7758TIP3   OH244764   4.651   3.909  12.935  0.1668 -0.1593  0.0849
 7758TIP3    H144765   4.655   4.000  12.966 -0.5863  0.0288 -0.3734
 7758TIP3    H244766   4.695   3.859  13.004  0.6116  0.5512  0.3280
 7759TIP3   OH244767   4.393   1.817  11.000 -0.5163 -0.1852  0.3381
 7759TIP3    H144768   4.473   1.800  11.051 -0.3245  2.6246  1.0377
 7759TIP3    H244769   4.334   1.746  11.025  1.5477 -2.0268  0.2022
 7760TIP3   OH244770   6.307   0.459  14.761  0.7657 -0.1951  0.3868
 7760TIP3    H144771   6.321   0.513  14.683 -0.7041 -0.3099  0.0354
 7760TIP3    H244772   6.309   0.521  14.833  3.1814 -0.2138  0.3959
 7761TIP3   OH244773   4.088   3.513  12.087 -0.3019 -0.1430 -0.8260
 7761TIP3    H144774   4.155   3.454  12.122 -0.8395 -1.7795 -2.5097
 7761TIP3    H244775   4.137   3.578  12.037  0.2138  0.3039  0.2310
 7762TIP3   OH244776   1.467   6.473   1.869 -0.4051 -0.1691  0.0990
 7762TIP3    H144777   1.391   6.522   1.836  1.1037  1.2374 -1.3889
 7762TIP3    H244778   1.467   6.490   1.963 -1.8076 -0.0218  0.0912
 7763TIP3   OH244779   4.168   5.084   6.399 -0.1278 -0.0137  0.8058
 7763TIP3    H144780   4.254   5.092   6.358 -0.3831  1.1509  0.4980
 7763TIP3    H244781   4.178   5.127   6.484 -0.9676  1.9415 -0.0672
 7764TIP3   OH244782   3.372   3.579  12.190  0.7582  0.5910 -0.1384
 7764TIP3    H144783   3.340   3.592  12.279 -0.8236  1.1888 -0.7838
 7764TIP3    H244784   3.448   3.521  12.200  0.8309  0.9665  1.6208
 7765TIP3   OH244785   1.206   4.703  14.318  0.3183 -0.2683  0.2149
 7765TIP3    H144786   1.153   4.760  14.263  0.9258  0.1512  0.0573
 7765TIP3    H244787   1.297   4.727  14.298  0.5751 -1.0945  0.3551
 7766TIP3   OH244788   3.379   5.144  11.632 -0.2179  0.5616  0.2571
 7766TIP3    H144789   3.398   5.065  11.581  0.3993  1.6798 -1.3141
 7766TIP3    H244790   3.317   5.116  11.699 -0.8267 -1.0334 -0.9471
 7767TIP3   OH244791   6.393   6.082  15.715  1.0100 -0.0613  0.1789
 7767TIP3    H144792   6.375   6.018  15.646  1.3026 -0.4899  0.5019
 7767TIP3    H244793   6.307   6.112  15.743  0.8970  0.8626 -1.0672
 7768TIP3   OH244794   6.391   0.424   5.089 -0.7945  0.3209 -0.1682
 7768TIP3    H144795   6.421   0.348   5.139 -1.1816 -0.6518 -1.3949
 7768TIP3    H244796   6.336   0.473   5.150  0.6902  0.4355  1.1042
 7769TIP3   OH244797   3.190   5.432   4.730  0.6296  0.8502 -0.0680
 7769TIP3    H144798   3.250   5.419   4.657 -0.2055  0.7521 -0.7369
 7769TIP3    H244799   3.238   5.399   4.806  0.8620 -0.5739 -0.8182
 7770TIP3   OH244800   1.991   5.112   6.358 -0.0394  0.0153 -0.2658
 7770TIP3    H144801   1.941   5.161   6.292  2.3511 -0.0207 -2.2049
 7770TIP3    H244802   2.006   5.026   6.317  0.8646 -0.2495  0.6001
 7771TIP3   OH244803   5.960   3.667   2.454  0.5751  0.7449 -0.4452
 7771TIP3    H144804   5.878   3.623   2.474  1.8626 -1.1623  0.8056
 7771TIP3    H244805   5.934   3.755   2.427 -1.8043  0.5741  1.1162
 7772TIP3   OH244806   0.643   5.192  12.069  0.2641 -0.2826 -0.1734
 7772TIP3    H144807   0.555   5.188  12.106  1.0791  0.5427  1.9679
 7772TIP3    H244808   0.700   5.162  12.139  1.8378  0.8168 -0.9429
 7773TIP3   OH244809   0.782   3.002  12.694 -0.0376  0.1117  0.4862
 7773TIP3    H144810   0.854   2.947  12.663  0.0741  0.2704  0.4622
 7773TIP3    H244811   0.778   3.074  12.632 -0.0028  0.2782  0.6778
 7774TIP3   OH244812   0.533   5.284   2.545 -0.3640  0.1916  0.5840
 7774TIP3    H144813   0.613   5.286   2.598 -0.8285 -0.6370  1.3234
 7774TIP3    H244814   0.465   5.319   2.603 -0.4023  1.5999 -0.2887
 7775TIP3   OH244815   4.359   0.490  17.024 -0.5275  0.2600 -0.1970
 7775TIP3    H144816   4.310   0.549  16.967 -1.5842  0.9610  1.4149
 7775TIP3    H244817   4.438   0.538  17.047 -0.9725  0.7170  0.4052
 7776TIP3   OH244818   4.496   0.830   4.656 -0.8619  0.1901  0.5095
 7776TIP3    H144819   4.421   0.863   4.705 -1.3855 -1.1783  0.6533
 7776TIP3    H244820   4.487   0.735   4.660  0.7202  0.0198  0.2739
 7777TIP3   OH244821   6.233   4.277   6.286  0.5991  0.5668  0.3019
 7777TIP3    H144822   6.240   4.366   6.321  0.0092  0.1181  1.5980
 7777TIP3    H244823   6.315   4.235   6.310  1.5495  1.1906 -1.6643
 7778TIP3   OH244824   2.533   4.053  12.109  0.6165 -0.1918  0.2460
 7778TIP3    H144825   2.487   4.028  12.189  0.7145 -2.3100 -0.3370
 7778TIP3    H244826   2.625   4.043  12.130  0.6599 -0.2823  0.0104
 7779TIP3   OH244827   2.012   5.995  15.626  0.2506 -0.5081 -0.4292
 7779TIP3    H144828   1.981   6.055  15.558  0.2181  0.8460  0.7754
 7779TIP3    H244829   2.100   5.969  15.596  0.1452 -0.1094 -1.0976
 7780TIP3   OH244830   5.289   3.820  16.430 -0.0052  0.0016  0.0462
 7780TIP3    H144831   5.243   3.901  16.406 -0.8887 -0.4236  0.2744
 7780TIP3    H244832   5.219   3.756  16.442  0.7787 -1.1301 -1.3804
 7781TIP3   OH244833   3.851   5.786  12.379  0.1132 -0.3576  0.0819
 7781TIP3    H144834   3.916   5.786  12.450 -0.8994  0.3952  1.0202
 7781TIP3    H244835   3.773   5.748  12.418 -0.5407  0.3300 -0.5502
 7782TIP3   OH244836   2.614   4.579   2.926  0.1635  0.1688  0.0126
 7782TIP3    H144837   2.573   4.633   2.993 -0.0178 -0.9143  0.7638
 7782TIP3    H244838   2.610   4.633   2.847 -2.4277  0.2081  0.1369
 7783TIP3   OH244839   4.975   0.086   3.095  0.1517  0.3147  0.2397
 7783TIP3    H144840   4.935   0.005   3.128  0.1756  0.1153 -0.2151
 7783TIP3    H244841   5.064   0.061   3.071  0.1746  0.4906  0.1436
 7784TIP3   OH244842   3.273   3.006  17.285 -0.2182 -0.1340  0.3360
 7784TIP3    H144843   3.243   3.066  17.217  0.5470 -0.3561 -0.2057
 7784TIP3    H244844   3.322   3.061  17.346  1.1916 -0.3378 -0.6014
 7785TIP3   OH244845   4.672   3.026   5.683  0.1582 -0.1024  0.2767
 7785TIP3    H144846   4.680   2.965   5.757  1.2245  1.3202  1.3702
 7785TIP3    H244847   4.678   2.971   5.606  0.4589 -1.4588  1.2493
 7786TIP3   OH244848   3.374   4.266   2.585  0.3044 -0.3555  0.8194
 7786TIP3    H144849   3.420   4.347   2.605 -1.1393  0.7100 -0.0920
 7786TIP3    H244850   3.386   4.253   2.491 -0.2486 -0.7183  0.7944
 7787TIP3   OH244851   2.567   6.767   0.686  0.0823  0.3679 -0.0844
 7787TIP3    H144852   2.484   6.748   0.641  0.3165  0.6868 -0.6585
 7787TIP3    H244853   2.632   6.717   0.638  0.4579  1.3393 -0.5975
 7788TIP3   OH244854   5.469   0.979   0.167 -0.8877  0.2817 -0.0361
 7788TIP3    H144855   5.427   0.921   0.104  1.1630  0.4626 -1.6364
 7788TIP3    H244856   5.518   0.920   0.225  0.6943  0.3403 -1.2808
 7789TIP3   OH244857   0.598   3.612   2.772 -0.1403  0.3208  0.8760
 7789TIP3    H144858   0.622   3.622   2.864  1.5803 -0.2134  0.5084
 7789TIP3    H244859   0.550   3.530   2.768 -2.7625  1.7558  1.7435
 7790TIP3   OH244860   4.662   2.402   1.091 -0.1500 -0.5998 -0.0994
 7790TIP3    H144861   4.685   2.445   1.173 -1.5093 -0.2873  0.1289
 7790TIP3    H244862   4.580   2.357   1.109 -0.8319  0.0330 -1.4648
 7791TIP3   OH244863   3.729   4.415  11.710 -0.5297  0.4488  0.1983
 7791TIP3    H144864   3.662   4.457  11.763 -0.2087 -0.6986  1.5497
 7791TIP3    H244865   3.726   4.322  11.736  1.0700  0.2556 -0.2305
 7792TIP3   OH244866   5.593   3.722  14.062  0.3154 -0.4642  0.4247
 7792TIP3    H144867   5.641   3.801  14.088  0.8835 -0.8370  0.5200
 7792TIP3    H244868   5.588   3.728  13.966 -0.7964  0.3431  0.5251
 7793TIP3   OH244869   5.750   4.344   0.505  0.0165 -0.5936 -0.5174
 7793TIP3    H144870   5.804   4.405   0.556  1.3177 -1.1063 -1.2502
 7793TIP3    H244871   5.708   4.399   0.439  1.8794 -0.5990 -1.7357
 7794TIP3   OH244872   6.609   4.467   1.194  0.0707  0.1882  0.1189
 7794TIP3    H144873   6.610   4.372   1.211 -1.9585 -0.2146 -1.8346
 7794TIP3    H244874   6.523   4.495   1.223 -0.1164  1.0612 -1.2797
 7795TIP3   OH244875   2.222   0.500   6.116 -0.3422 -0.5909  0.3307
 7795TIP3    H144876   2.238   0.457   6.032 -1.8833  1.1951 -0.9317
 7795TIP3    H244877   2.129   0.483   6.135 -0.3657  0.1948  0.9650
 7796TIP3   OH244878   2.847   2.651  12.862  0.1580  0.1446  0.0886
 7796TIP3    H144879   2.888   2.650  12.948  0.4018 -1.9302 -0.0245
 7796TIP3    H244880   2.753   2.648  12.880  0.1403  1.9863  0.3111
 7797TIP3   OH244881   3.263   3.707  15.169  0.0012 -0.1545  0.3092
 7797TIP3    H144882   3.316   3.771  15.216  0.5755  0.0217 -0.5770
 7797TIP3    H244883   3.279   3.725  15.077  1.3578 -2.5570  0.0271
 7798TIP3   OH244884   2.215   0.492   1.854 -0.2993 -0.0678  0.0004
 7798TIP3    H144885   2.180   0.566   1.805 -0.8115  0.6347  1.4230
 7798TIP3    H244886   2.306   0.485   1.826 -0.7801 -0.1274 -1.5890
 7799TIP3   OH244887   6.095   0.563   5.085  0.2618  0.3512 -0.0778
 7799TIP3    H144888   6.095   0.655   5.061 -0.9859  0.4852  0.4196
 7799TIP3    H244889   6.160   0.557   5.155 -0.8213  1.1592  1.0101
 7800TIP3   OH244890   3.429   1.034  10.399 -0.1655 -0.1276 -0.4394
 7800TIP3    H144891   3.409   1.046  10.306 -1.7303 -0.6408 -0.1854
 7800TIP3    H244892   3.448   0.940  10.408  0.8950  0.0773 -0.3880
 7801TIP3   OH244893   1.257   1.392   1.260 -0.2411  0.5697  0.4600
 7801TIP3    H144894   1.175   1.390   1.309 -0.0567  2.6907  0.8966
 7801TIP3    H244895   1.309   1.320   1.296 -0.8313  0.9575  2.1320
 7802TIP3   OH244896   4.650   1.574   3.062  0.3344  0.2880  0.2654
 7802TIP3    H144897   4.717   1.549   3.127  2.2092  1.3563 -1.2095
 7802TIP3    H244898   4.595   1.638   3.107 -0.7412 -1.7992  2.0378
 7803TIP3   OH244899   0.277   5.497   0.711 -0.6069  0.1625 -0.2095
 7803TIP3    H144900   0.261   5.403   0.710 -2.8873  0.5020  1.0205
 7803TIP3    H244901   0.245   5.528   0.627  2.0883 -0.4165 -1.4975
 7804TIP3   OH244902   4.642   3.259   2.754 -0.2590 -0.6404 -0.4068
 7804TIP3    H144903   4.655   3.339   2.806 -3.8293  0.0180 -0.4151
 7804TIP3    H244904   4.730   3.224   2.742  0.9315  0.4393  4.0882
 7805TIP3   OH244905   4.004   1.564  16.507  0.5182 -0.5431  0.6659
 7805TIP3    H144906   4.095   1.576  16.480  0.6396 -0.0745  1.2663
 7805TIP3    H244907   3.969   1.498  16.447  1.5529 -1.4980  1.0987
 7806TIP3   OH244908   5.857   0.865  12.593  0.2509  0.3463  0.5733
 7806TIP3    H144909   5.791   0.932  12.573  1.2632  1.5678  1.2187
 7806TIP3    H244910   5.811   0.801  12.647 -1.4262 -0.8592 -2.1440
 7807TIP3   OH244911   3.971   3.933  15.857  0.1795 -0.1037 -0.1579
 7807TIP3    H144912   3.980   3.931  15.762  1.0964  0.9359 -0.1017
 7807TIP3    H244913   3.877   3.946  15.872  0.4392  3.0003 -0.9880
 7808TIP3   OH244914   4.478   0.572   4.696 -1.1643  0.5626  0.2433
 7808TIP3    H144915   4.495   0.566   4.790 -1.4845 -0.1728  0.2599
 7808TIP3    H244916   4.540   0.510   4.656 -1.7904  0.0479  0.0641
 7809TIP3   OH244917   4.974   5.827  17.223 -0.0053 -0.0507  0.3107
 7809TIP3    H144918   4.988   5.743  17.179  0.0327  0.0822  0.0679
 7809TIP3    H244919   4.883   5.849  17.202 -0.0747 -0.1245  0.5339
 7810TIP3   OH244920   1.556   5.098  16.085 -0.0284  0.5599 -0.1346
 7810TIP3    H144921   1.501   5.122  16.010 -0.3628  0.8774  0.2105
 7810TIP3    H244922   1.510   5.024  16.124  1.3407 -1.1080 -1.5838
 7811TIP3   OH244923   4.213   3.831  16.703  0.0654 -0.7662  0.1766
 7811TIP3    H144924   4.140   3.781  16.738 -0.1934  0.4526  1.4304
 7811TIP3    H244925   4.289   3.773  16.713 -0.2852 -1.0394  1.2964
 7812TIP3   OH244926   5.097   1.151  16.287 -0.1997  0.2519 -0.2187
 7812TIP3    H144927   5.191   1.151  16.269 -0.5109 -0.7627 -1.9356
 7812TIP3    H244928   5.081   1.071  16.337 -0.3010 -0.1133 -0.8286
 7813TIP3   OH244929   2.877   0.373  16.657  0.3194  0.0316 -0.6889
 7813TIP3    H144930   2.811   0.336  16.716  0.1125 -0.9576 -1.5338
 7813TIP3    H244931   2.960   0.361  16.702  0.0127  0.5960  0.0421
 7814TIP3   OH244932   0.620   2.682   2.112 -0.1479 -0.4629  0.3531
 7814TIP3    H144933   0.543   2.734   2.092 -0.0742 -0.3829  0.2758
 7814TIP3    H244934   0.643   2.641   2.028 -1.0049 -1.6906  0.7013
 7815TIP3   OH244935   1.485   2.882   2.976  0.2008 -0.1323 -0.7389
 7815TIP3    H144936   1.392   2.863   2.991  0.1272  0.8222  0.0655
 7815TIP3    H244937   1.498   2.867   2.883 -0.4614 -1.5554 -0.6092
 7816TIP3   OH244938   2.732   6.182   6.103  0.6117 -0.4384  0.4483
 7816TIP3    H144939   2.707   6.205   6.193 -1.3234  0.4184 -0.2859
 7816TIP3    H244940   2.651   6.186   6.053  2.2162  2.9413 -2.1263
 7817TIP3   OH244941   0.285   4.911   3.294  0.1517 -0.2826  0.1017
 7817TIP3    H144942   0.211   4.956   3.253 -0.4082 -0.6286  0.7199
 7817TIP3    H244943   0.353   4.978   3.299 -0.2560  0.1582 -0.1037
 7818TIP3   OH244944   1.924   6.548   0.674 -0.3230  0.3722  0.1645
 7818TIP3    H144945   1.925   6.642   0.690  0.8335  0.3454  0.2918
 7818TIP3    H244946   1.888   6.511   0.755 -1.4177  0.7379 -0.1395
 7819TIP3   OH244947   2.306   2.254   4.807 -0.2608 -0.0068 -0.6218
 7819TIP3    H144948   2.211   2.260   4.803 -0.3182 -0.9036 -0.7211
 7819TIP3    H244949   2.337   2.292   4.725 -0.4709  1.3331 -0.1057
 7820TIP3   OH244950   3.541   4.941  11.209 -0.0325 -1.0243  0.3389
 7820TIP3    H144951   3.521   4.849  11.227 -0.4347 -1.1845 -0.8568
 7820TIP3    H244952   3.470   4.969  11.151  1.2642 -0.5863 -1.0656
 7821TIP3   OH244953   1.880   0.044  11.862  0.8334  1.3097  0.4691
 7821TIP3    H144954   1.911  -0.015  11.931 -0.5774  0.0809  0.0820
 7821TIP3    H244955   1.954   0.054  11.803  0.5142 -1.6711 -0.5127
 7822TIP3   OH244956   6.423   1.909   5.115 -0.5114  0.1987  0.4400
 7822TIP3    H144957   6.362   1.951   5.054  0.7463  0.1926 -0.8279
 7822TIP3    H244958   6.474   1.849   5.062  1.5238  1.1808  1.2384
 7823TIP3   OH244959   5.713   2.911  16.465 -0.1220 -0.9884 -0.1690
 7823TIP3    H144960   5.622   2.890  16.443 -0.0565 -0.8471 -0.5845
 7823TIP3    H244961   5.714   3.007  16.473  0.0911 -0.9527 -0.6249
 7824TIP3   OH244962   4.483   4.909   5.034  0.2474  0.2311  0.0276
 7824TIP3    H144963   4.565   4.914   4.986  0.1588 -1.3104 -0.3073
 7824TIP3    H244964   4.434   4.839   4.991 -0.0283 -0.8476  2.0477
 7825TIP3   OH244965   2.587   1.060  13.466  0.6819 -0.2379 -0.4274
 7825TIP3    H144966   2.541   0.979  13.441  1.4921 -0.0415 -2.7404
 7825TIP3    H244967   2.517   1.121  13.489 -0.0513 -0.9535 -0.7067
 7826TIP3   OH244968   1.227   6.328  16.857 -0.2972  0.1853 -0.2320
 7826TIP3    H144969   1.176   6.272  16.915  1.9549 -0.8580  0.7987
 7826TIP3    H244970   1.197   6.304  16.769  0.2500 -2.3166  0.2182
 7827TIP3   OH244971   6.696   4.823   6.618 -0.2745  0.0677  0.0844
 7827TIP3    H144972   6.708   4.896   6.679  1.2108 -1.3032  1.5335
 7827TIP3    H244973   6.779   4.775   6.624 -1.1587 -1.6132 -0.9684
 7828TIP3   OH244974   2.227   2.062   1.731  0.0516  0.2281  0.2721
 7828TIP3    H144975   2.279   2.058   1.812  3.4106  1.8714 -1.7126
 7828TIP3    H244976   2.161   2.129   1.748  0.4790  0.2904  1.7786
 7829TIP3   OH244977   3.398   5.124   5.680 -0.1432  0.2593  0.2231
 7829TIP3    H144978   3.491   5.142   5.695 -0.0332 -0.2572  0.2029
 7829TIP3    H244979   3.357   5.210   5.675 -0.2784  0.4673  4.0111
 7830TIP3   OH244980   1.841   6.811  14.234  0.6077  0.1276 -0.3736
 7830TIP3    H144981   1.858   6.761  14.314 -3.1230 -1.8456 -0.7047
 7830TIP3    H244982   1.834   6.902  14.263  2.7582 -0.1161  0.9814
 7831TIP3   OH244983   0.408   5.139  15.791  0.3045  0.5408 -0.4373
 7831TIP3    H144984   0.496   5.175  15.801  0.3208  0.0963  1.1010
 7831TIP3    H244985   0.407   5.062  15.847 -0.5431 -0.4184 -1.7515
 7832TIP3   OH244986   2.557   0.028  14.607  0.3508 -0.4069  0.1943
 7832TIP3    H144987   2.483  -0.009  14.560  0.5728 -1.1021  0.3894
 7832TIP3    H244988   2.532   0.119  14.623  0.1609 -0.2434 -1.0205
 7833TIP3   OH244989   2.791   5.305  12.663 -0.2288 -0.3515  0.1774
 7833TIP3    H144990   2.787   5.327  12.756  0.3873 -1.9512  0.6033
 7833TIP3    H244991   2.831   5.218  12.661  1.5880  0.4829 -1.7069
 7834TIP3   OH244992   3.546   2.163   0.977 -0.6124  0.1719 -0.2074
 7834TIP3    H144993   3.543   2.153   0.882 -0.0355 -0.2874 -0.1814
 7834TIP3    H244994   3.543   2.257   0.992  0.2250  0.2834 -0.7204
 7835TIP3   OH244995   0.937   1.367  17.262  0.3305  0.0488  0.5066
 7835TIP3    H144996   0.939   1.454  17.221  0.7485 -0.3323 -0.3025
 7835TIP3    H244997   1.029   1.343  17.271  0.2320 -1.8788 -2.7082
 7836TIP3   OH244998   0.061   4.767  13.895  0.2774  0.1327  0.2162
 7836TIP3    H144999   0.143   4.751  13.941  1.3367  1.5527 -1.1188
 7836TIP3    H245000   0.014   4.829  13.950  0.1877 -0.5023  0.8630
 7837TIP3   OH245001   5.926   1.050  11.565  0.4922 -0.2213  0.4013
 7837TIP3    H145002   5.941   1.073  11.473  3.9954  0.7062  1.1091
 7837TIP3    H245003   5.912   0.956  11.564 -0.6743 -0.0570 -1.1966
 7838TIP3   OH245004   6.081   5.729  11.385 -0.5415 -0.5551 -0.1940
 7838TIP3    H145005   6.120   5.742  11.298  0.2218  0.5552  0.3114
 7838TIP3    H245006   6.003   5.784  11.385 -0.4562 -0.4342 -0.1184
 7839TIP3   OH245007   1.119   6.207   3.209 -0.4908 -0.0231 -0.1871
 7839TIP3    H145008   1.057   6.136   3.225  1.6765 -1.5618  1.7569
 7839TIP3    H245009   1.124   6.254   3.293 -1.3593  2.0383 -1.2403
 7840TIP3   OH245010   4.797   2.850  15.024  0.5653  0.0510  0.1596
 7840TIP3    H145011   4.781   2.936  15.063  4.5414  0.0213  2.1162
 7840TIP3    H245012   4.854   2.868  14.950  1.9868 -0.9239  0.9920
 7841TIP3   OH245013   2.276   0.178  16.362 -0.0702  0.3205  0.5641
 7841TIP3    H145014   2.359   0.152  16.322 -0.4235 -0.4122  0.2950
 7841TIP3    H245015   2.215   0.183  16.289 -0.4633  0.0462  0.8748
 7842TIP3   OH245016   4.936   5.769  12.309 -0.8026 -0.0287 -0.0686
 7842TIP3    H145017   4.966   5.704  12.373 -0.2735  0.3091  0.0294
 7842TIP3    H245018   4.883   5.718  12.247  1.2565 -0.9388 -1.1423
 7843TIP3   OH245019   2.664   1.851   2.055 -0.2011  0.2627 -0.2005
 7843TIP3    H145020   2.623   1.838   1.969 -1.9668 -0.9371  0.7863
 7843TIP3    H245021   2.724   1.925   2.042  0.8718 -1.0090 -2.8926
 7844TIP3   OH245022   3.508   4.591  13.178 -0.1188  0.7720  0.2790
 7844TIP3    H145023   3.419   4.604  13.211 -1.0082 -0.0096 -1.7215
 7844TIP3    H245024   3.510   4.638  13.095  0.8984 -0.3635 -0.3580
 7845TIP3   OH245025   1.953   4.277   3.662 -0.0881  0.0023  0.0310
 7845TIP3    H145026   1.979   4.255   3.751  1.1188 -1.5512 -0.6899
 7845TIP3    H245027   2.033   4.268   3.610 -1.1166 -0.6568 -1.4721
 7846TIP3   OH245028   4.001   5.551  14.795  0.0610  0.5024 -0.1731
 7846TIP3    H145029   4.034   5.478  14.848  0.0718 -0.1547 -1.0654
 7846TIP3    H245030   3.908   5.531  14.784 -0.0399  0.8872  0.0063
 7847TIP3   OH245031   4.535   1.144   0.740  0.2091 -0.0312 -0.1874
 7847TIP3    H145032   4.521   1.223   0.793  0.7916 -0.0161 -0.0593
 7847TIP3    H245033   4.551   1.075   0.804  1.0022  0.0049 -0.3457
 7848TIP3   OH245034   4.894   4.673  16.559 -0.0383  0.2971 -0.0174
 7848TIP3    H145035   4.809   4.640  16.587 -0.0958  0.6712  0.2562
 7848TIP3    H245036   4.957   4.622  16.610 -0.1345  0.7823  0.5907
 7849TIP3   OH245037   6.683   5.868   5.552  0.2742  0.0528 -0.5139
 7849TIP3    H145038   6.639   5.868   5.467 -0.2428 -1.2944 -0.2652
 7849TIP3    H245039   6.657   5.950   5.593 -0.7449 -0.0014 -1.0268
 7850TIP3   OH245040   6.204   3.907   3.197 -0.4041 -0.0007  0.0401
 7850TIP3    H145041   6.252   3.871   3.271  0.8747 -0.6162 -1.0539
 7850TIP3    H245042   6.251   3.874   3.120 -0.8523  1.7615 -1.0279
 7851TIP3   OH245043   5.424   3.517   4.376  0.0223  0.3114  0.5941
 7851TIP3    H145044   5.510   3.490   4.346 -0.7309 -0.8746 -0.5255
 7851TIP3    H245045   5.371   3.438   4.374 -0.7402  0.7349  2.6154
 7852TIP3   OH245046   4.405   6.815  14.670  0.1181  0.4790 -0.4751
 7852TIP3    H145047   4.451   6.797  14.588 -2.9667  1.8487 -2.5787
 7852TIP3    H245048   4.352   6.737  14.685 -1.2171  1.2365 -1.1568
 7853TIP3   OH245049   2.159   2.191   1.489 -0.5240  0.2533 -0.9955
 7853TIP3    H145050   2.240   2.219   1.446 -1.0077 -1.0636 -2.8099
 7853TIP3    H245051   2.188   2.127   1.554  0.0515  1.1194 -0.3744
 7854TIP3   OH245052   2.081   5.198   0.390 -0.4118 -1.1073  0.5965
 7854TIP3    H145053   2.106   5.277   0.343 -0.6414 -1.5940 -0.3566
 7854TIP3    H245054   2.020   5.153   0.331 -1.0292 -1.5174  1.5395
 7855TIP3   OH245055   5.199   2.865  14.923 -0.4863 -0.0472 -0.0388
 7855TIP3    H145056   5.189   2.953  14.961 -1.6267  0.9867 -2.5931
 7855TIP3    H245057   5.121   2.854  14.868 -0.1628 -2.5273 -0.0561
 7856TIP3   OH245058   2.746   4.111   4.278  0.4267 -0.1947  0.3305
 7856TIP3    H145059   2.756   4.114   4.183 -0.7413 -2.6628  0.0735
 7856TIP3    H245060   2.703   4.193   4.301 -4.9214 -2.1036 -2.1239
 7857TIP3   OH245061   0.021   3.028  12.524 -0.8394 -0.0209 -0.2707
 7857TIP3    H145062   0.042   2.972  12.449  2.5191 -0.4375  0.9028
 7857TIP3    H245063  -0.003   2.966  12.594 -0.5936  0.1923  0.0033
 7858TIP3   OH245064   0.605   2.981  16.834  0.3543 -0.9312 -0.7718
 7858TIP3    H145065   0.619   2.961  16.926  1.2113  0.1719 -0.6447
 7858TIP3    H245066   0.632   3.073  16.825 -0.2442 -0.8632 -2.0024
 7859TIP3   OH245067   4.604   0.115  12.656  0.3813 -0.2742 -0.4957
 7859TIP3    H145068   4.675   0.069  12.611 -0.8700 -2.1789 -0.6013
 7859TIP3    H245069   4.579   0.056  12.727 -1.5086  0.0678 -0.8480
 7860TIP3   OH245070   5.372   1.559  17.269  0.0650 -0.1841  0.1561
 7860TIP3    H145071   5.408   1.490  17.325 -0.0662  1.3922  2.2184
 7860TIP3    H245072   5.329   1.511  17.198  1.7555 -2.1823  0.4122
 7861TIP3   OH245073   3.339   4.325  13.583 -0.1486 -0.5178  0.0580
 7861TIP3    H145074   3.351   4.395  13.647 -0.6352 -0.2634 -0.1224
 7861TIP3    H245075   3.428   4.296  13.561  0.0424 -0.1282  0.3218
 7862TIP3   OH245076   3.645   1.355  15.018 -0.3392 -0.3861 -0.2019
 7862TIP3    H145077   3.674   1.278  14.969 -0.8605 -1.3519  0.9923
 7862TIP3    H245078   3.686   1.346  15.104  1.9408  2.1551 -0.9450
 7863TIP3   OH245079   1.726   3.286   1.247 -0.5272 -0.5331 -0.0931
 7863TIP3    H145080   1.706   3.201   1.288 -0.5273  0.7329  2.6388
 7863TIP3    H245081   1.819   3.300   1.265 -0.3595 -0.2457 -1.1382
 7864TIP3   OH245082   4.844   6.803  11.573  0.4904  0.0277 -0.1421
 7864TIP3    H145083   4.894   6.858  11.634  1.8331 -1.0000 -0.3077
 7864TIP3    H245084   4.776   6.862  11.539  0.6983  1.0467  1.1484
 7865TIP3   OH245085   2.052   1.549   5.229 -0.4487  0.4774  0.3990
 7865TIP3    H145086   2.064   1.589   5.143  0.7595 -0.7450 -0.0057
 7865TIP3    H245087   2.103   1.604   5.288 -1.0316  1.1374  0.3015
 7866TIP3   OH245088   1.895   3.783   3.285  0.4145  0.3021 -0.0164
 7866TIP3    H145089   1.862   3.831   3.361 -0.1865 -0.0557 -0.0487
 7866TIP3    H245090   1.832   3.802   3.215  2.4611  2.9025 -1.2399
 7867TIP3   OH245091   4.907   1.086  15.618 -0.0930 -0.2601  0.5375
 7867TIP3    H145092   4.892   1.180  15.625  1.8086  0.0718  0.3898
 7867TIP3    H245093   4.907   1.069  15.524  0.2473 -0.2753  0.5376
 7868TIP3   OH245094   1.814   3.275   5.744 -0.4912 -0.3524 -0.5918
 7868TIP3    H145095   1.808   3.370   5.735  0.9270 -0.0510  1.3542
 7868TIP3    H245096   1.896   3.252   5.699 -0.5985 -0.5996 -0.6603
 7869TIP3   OH245097   1.184   6.065  11.194  0.8341 -0.3245 -0.1803
 7869TIP3    H145098   1.262   6.020  11.162  1.0918 -0.3180  0.4219
 7869TIP3    H245099   1.214   6.110  11.273  0.6765  1.2544 -1.0098
 7870TIP3   OH245100   0.117   2.174  14.181 -0.8573  0.1311  0.1298
 7870TIP3    H145101   0.071   2.108  14.128 -1.6935  0.0362  0.9737
 7870TIP3    H245102   0.054   2.200  14.248  0.0407  0.5853  0.8096
 7871TIP3   OH245103   2.234   6.740  12.728 -0.4149 -0.2864  0.5743
 7871TIP3    H145104   2.296   6.807  12.699 -0.8179 -0.0176  0.3321
 7871TIP3    H245105   2.272   6.658  12.697 -0.4844 -0.0662 -0.1050
 7872TIP3   OH245106   3.415   3.948  17.151 -0.0097 -0.0143  0.2866
 7872TIP3    H145107   3.503   3.912  17.164  0.1965  0.1950 -0.4640
 7872TIP3    H245108   3.380   3.898  17.077 -0.2425  0.4085  0.1111
 7873TIP3   OH245109   0.499   5.825   1.553  0.0765 -0.5005 -0.5249
 7873TIP3    H145110   0.553   5.748   1.574  0.0210  0.1623  2.2968
 7873TIP3    H245111   0.415   5.806   1.594 -0.0217  0.9207 -0.0382
 7874TIP3   OH245112   2.777   1.279   4.302  0.1101  0.6130  0.0485
 7874TIP3    H145113   2.854   1.310   4.256 -0.4425  1.6834 -0.1739
 7874TIP3    H245114   2.803   1.194   4.338  1.0513  0.4951 -0.8786
 7875TIP3   OH245115   1.113   0.021   3.267 -0.6114  0.4334 -0.3642
 7875TIP3    H145116   1.081   0.037   3.179 -2.0663  1.0797  0.2682
 7875TIP3    H245117   1.134  -0.072   3.269 -0.4189  0.4493 -1.4314
 7876TIP3   OH245118   4.898   4.737  17.084  0.0015  0.2193  0.9928
 7876TIP3    H145119   4.975   4.713  17.135 -0.1169 -0.0726  1.0348
 7876TIP3    H245120   4.930   4.803  17.022  0.3786 -0.2064  0.7262
 7877TIP3   OH245121   0.729   3.993  14.400 -0.6445 -0.2671  0.5108
 7877TIP3    H145122   0.690   3.989  14.313  1.3020 -0.8069 -0.3674
 7877TIP3    H245123   0.786   4.070  14.398 -1.1763  0.1715  1.5774
 7878TIP3   OH245124   6.223   1.542   2.993 -0.1545  0.0351  0.5595
 7878TIP3    H145125   6.310   1.550   3.031  0.4672 -0.0938 -0.7960
 7878TIP3    H245126   6.238   1.502   2.907 -1.4440  0.9456 -0.1101
 7879TIP3   OH245127   5.123   1.992   4.953 -0.3296  0.1990  0.0730
 7879TIP3    H145128   5.164   2.024   4.873  1.1643  0.3650  0.8831
 7879TIP3    H245129   5.078   2.068   4.989 -2.1436 -0.1925 -1.2704
 7880TIP3   OH245130   5.483   1.114  15.430 -0.5846  0.3231  0.3769
 7880TIP3    H145131   5.498   1.020  15.437 -1.6690  0.0299 -0.8868
 7880TIP3    H245132   5.463   1.142  15.520 -0.9093 -0.7682  0.6531
 7881TIP3   OH245133   1.311   0.838   5.428  0.1384 -0.0424 -0.0164
 7881TIP3    H145134   1.354   0.810   5.510  1.0768  1.1443 -0.0848
 7881TIP3    H245135   1.373   0.812   5.359  0.3487  0.8852 -0.1812
 7882TIP3   OH245136   0.595   5.041   3.777  0.0327 -0.2253 -0.2413
 7882TIP3    H145137   0.572   4.948   3.778 -0.1447 -0.1890 -0.7801
 7882TIP3    H245138   0.603   5.064   3.870  2.4911 -1.3667 -0.1359
 7883TIP3   OH245139   1.172   3.274  16.322  0.7869  0.2214 -0.5384
 7883TIP3    H145140   1.235   3.330  16.367 -0.3282  0.1699  1.1383
 7883TIP3    H245141   1.095   3.329  16.310  0.5772 -0.1991 -1.1307
 7884TIP3   OH245142   2.172   4.386  15.808 -0.1339 -0.0564  0.3819
 7884TIP3    H145143   2.181   4.351  15.897 -0.1260 -0.6683  0.1373
 7884TIP3    H245144   2.262   4.399  15.778 -0.1338 -0.1373  0.3470
 7885TIP3   OH245145   0.304   5.823   4.165 -0.4654 -0.0073 -0.3682
 7885TIP3    H145146   0.356   5.770   4.226 -1.3054 -0.7151 -0.2622
 7885TIP3    H245147   0.298   5.909   4.207 -0.2941 -0.2405  0.1367
 7886TIP3   OH245148   1.363   3.435  12.603  0.1954 -0.0200 -0.4833
 7886TIP3    H145149   1.341   3.351  12.562  0.3278 -0.4760  0.3769
 7886TIP3    H245150   1.456   3.428  12.624 -0.0633 -0.0994  0.6423
 7887TIP3   OH245151   3.641   5.464  14.217 -0.1381 -0.0172 -0.0781
 7887TIP3    H145152   3.657   5.424  14.131 -0.3218 -1.4636  0.5422
 7887TIP3    H245153   3.684   5.549  14.212 -0.4975  0.0976 -1.7483
 7888TIP3   OH245154   3.240   1.359  12.972  0.2151 -0.2962  0.8928
 7888TIP3    H145155   3.174   1.426  12.991  0.5654  0.9391 -2.0170
 7888TIP3    H245156   3.321   1.408  12.958  1.0304 -1.5515  1.1066
 7889TIP3   OH245157   2.743   5.899   4.725 -0.4389 -0.6126  0.4979
 7889TIP3    H145158   2.792   5.844   4.665 -1.8639  0.0810 -1.3260
 7889TIP3    H245159   2.686   5.952   4.669 -1.8772 -0.0360  2.4443
 7890TIP3   OH245160   2.235   4.409  13.080 -0.0376  0.2698 -0.1121
 7890TIP3    H145161   2.140   4.417  13.085 -0.0958  0.0673 -0.9055
 7890TIP3    H245162   2.253   4.322  13.116 -0.1144  0.4622  0.4028
 7891TIP3   OH245163   0.779   0.491  12.966  0.2239  0.5353 -0.3268
 7891TIP3    H145164   0.798   0.514  12.875 -0.8173 -0.0102 -0.6882
 7891TIP3    H245165   0.834   0.550  13.017  1.9511 -0.1710 -1.3214
 7892TIP3   OH245166   0.612   1.056  12.441 -0.6513 -0.0339  0.1035
 7892TIP3    H145167   0.532   1.012  12.471 -2.2002  1.9749 -0.9379
 7892TIP3    H245168   0.661   1.074  12.521 -0.5330 -2.5243  0.6479
 7893TIP3   OH245169   6.552   1.032   4.067  0.5246  0.0980 -0.0148
 7893TIP3    H145170   6.477   0.976   4.084  1.5574 -0.9563  1.1732
 7893TIP3    H245171   6.623   0.972   4.046  1.2738  1.0412 -0.2511
 7894TIP3   OH245172   0.365   4.769   5.482 -0.0302  0.8998  0.2733
 7894TIP3    H145173   0.317   4.815   5.551 -1.3931 -2.2817  1.5515
 7894TIP3    H245174   0.300   4.713   5.440  1.7359 -0.5821 -0.5822
 7895TIP3   OH245175   5.165   4.346  12.595 -0.6363  0.3113  0.1583
 7895TIP3    H145176   5.200   4.414  12.654  3.6219 -4.6498  3.8075
 7895TIP3    H245177   5.215   4.357  12.514  0.2568  1.3324  0.8238
 7896TIP3   OH245178   0.130   4.173   2.687  0.1389  0.0624 -0.6816
 7896TIP3    H145179   0.171   4.089   2.666  1.8467  0.6382  0.3170
 7896TIP3    H245180   0.069   4.188   2.614 -0.7584 -2.4004 -0.4806
 7897TIP3   OH245181   4.918   2.161   3.737  0.5195  0.6622  0.3018
 7897TIP3    H145182   4.870   2.079   3.749  1.3141  0.2815  0.8763
 7897TIP3    H245183   4.861   2.213   3.681  0.3336 -0.5671 -0.6916
 7898TIP3   OH245184   6.257   6.510   2.859 -0.3319 -0.4844  0.3427
 7898TIP3    H145185   6.272   6.446   2.929  0.9650  0.6002  1.0813
 7898TIP3    H245186   6.206   6.579   2.901  0.6230  0.2644  0.2861
 7899TIP3   OH245187   6.499   6.435  12.968  0.1242 -0.3232 -0.0590
 7899TIP3    H145188   6.518   6.424  12.874  0.1053 -2.7098  0.1687
 7899TIP3    H245189   6.443   6.360  12.989 -0.6049  0.6966  1.6663
 7900TIP3   OH245190   1.782   2.848  15.500  0.2891  0.0428  0.5257
 7900TIP3    H145191   1.718   2.882  15.563 -0.1381  0.6989 -0.2438
 7900TIP3    H245192   1.858   2.825  15.553 -0.5674 -0.7291  1.4619
 7901TIP3   OH245193   5.918   4.947   5.925 -0.2818 -0.4045 -0.3403
 7901TIP3    H145194   5.954   5.017   5.979 -0.6299 -0.0515 -0.5546
 7901TIP3    H245195   5.983   4.878   5.928  0.2495  0.0858 -0.4382
 7902TIP3   OH245196   0.425   4.745  14.932 -0.5838  0.3837  0.2203
 7902TIP3    H145197   0.372   4.702  14.999 -0.3317 -1.8196 -0.9322
 7902TIP3    H245198   0.508   4.764  14.975 -0.8192 -0.0015  0.8544
 7903TIP3   OH245199   1.269   2.298  15.590 -0.2337 -0.6020  0.1128
 7903TIP3    H145200   1.352   2.343  15.574 -1.0005  1.2196  1.1045
 7903TIP3    H245201   1.294   2.214  15.627  1.2147 -0.7382 -1.1275
 7904TIP3   OH245202   0.787   2.034   3.332  0.1727 -0.3077 -0.3793
 7904TIP3    H145203   0.728   2.093   3.377  1.9370  1.3821 -0.2167
 7904TIP3    H245204   0.804   1.964   3.396 -0.3485  0.0571  0.1646
 7905TIP3   OH245205   5.898   6.602  14.206  0.2255  0.1989 -0.1558
 7905TIP3    H145206   5.858   6.591  14.292 -1.7987 -0.2119 -1.1252
 7905TIP3    H245207   5.847   6.671  14.164  2.8505  2.2424 -0.0878
 7906TIP3   OH245208   2.168   0.883   0.057  0.2209  0.1191 -0.1948
 7906TIP3    H145209   2.115   0.929   0.122  0.7837 -0.6598  0.8498
 7906TIP3    H245210   2.249   0.934   0.051  0.8771 -0.7425  1.0208
 7907TIP3   OH245211   1.082   5.548   6.646 -0.5646  0.2782 -0.2800
 7907TIP3    H145212   1.066   5.516   6.735  0.9417 -0.0715 -0.1133
 7907TIP3    H245213   1.073   5.470   6.591 -0.2292  0.2309 -0.2719
 7908TIP3   OH245214   0.361   1.137   0.112 -0.3941  0.8445 -0.1871
 7908TIP3    H145215   0.276   1.118   0.151  0.0943 -2.3090 -0.5261
 7908TIP3    H245216   0.423   1.082   0.160  0.8977  0.3574 -2.3168
 7909TIP3   OH245217   4.239   0.737   3.899 -0.0543  0.3459  0.3795
 7909TIP3    H145218   4.283   0.656   3.876 -0.6622 -0.1181  0.8493
 7909TIP3    H245219   4.156   0.710   3.939  0.6363  1.1496  2.4085
 7910TIP3   OH245220   1.621   1.911   0.480 -0.2191 -0.0442  0.5971
 7910TIP3    H145221   1.623   1.834   0.422 -3.1089 -1.1379  1.8441
 7910TIP3    H245222   1.684   1.890   0.549  1.0322 -0.0491 -0.5118
 7911TIP3   OH245223   5.757   1.053   5.340 -0.4801 -0.0034  0.1329
 7911TIP3    H145224   5.751   1.142   5.374 -1.7594 -0.3212  0.7861
 7911TIP3    H245225   5.826   1.012   5.391  1.4079  1.1468 -1.4361
 7912TIP3   OH245226   6.194   6.800   5.357  0.3853 -0.2408  0.0847
 7912TIP3    H145227   6.149   6.812   5.273 -0.3595  0.5693  0.5837
 7912TIP3    H245228   6.123   6.781   5.419  1.2383 -4.2542 -0.0714
 7913TIP3   OH245229   6.761   5.184  13.615 -0.5598  0.0692 -0.6732
 7913TIP3    H145230   6.826   5.255  13.615  0.3821 -0.7663  1.5443
 7913TIP3    H245231   6.775   5.138  13.697 -2.7055 -1.3182 -1.0370
 7914TIP3   OH245232   0.945   3.199   0.143  0.8815  0.2836  0.0264
 7914TIP3    H145233   0.883   3.217   0.213  2.4801  0.5692  1.3906
 7914TIP3    H245234   0.914   3.116   0.104 -1.9464  1.8146 -1.1696
 7915TIP3   OH245235   0.273   2.625   5.191  0.0721  0.5749  0.2687
 7915TIP3    H145236   0.349   2.588   5.235  1.3792  3.5302  0.6305
 7915TIP3    H245237   0.214   2.650   5.262 -0.0678  0.6716  0.1188
 7916TIP3   OH245238   3.026   4.896  13.446  0.2736  0.1219 -0.0362
 7916TIP3    H145239   2.991   4.817  13.487 -0.6231 -0.6258 -2.1748
 7916TIP3    H245240   3.040   4.871  13.355  0.5197  2.2825 -0.6074
 7917TIP3   OH245241   3.119   6.285   0.746 -0.0305  0.1700  0.3963
 7917TIP3    H145242   3.102   6.376   0.723  3.2278  1.0099  1.0566
 7917TIP3    H245243   3.084   6.235   0.673  0.2477  2.1200 -1.1213
 7918TIP3   OH245244   4.613   2.419   3.829  0.3693 -0.2421 -0.4792
 7918TIP3    H145245   4.569   2.487   3.880 -0.5140  0.1920 -1.7863
 7918TIP3    H245246   4.631   2.349   3.893 -2.2344 -0.4185  0.1223
 7919TIP3   OH245247   1.527   3.390  16.968 -0.1008 -0.0900 -0.5942
 7919TIP3    H145248   1.586   3.434  17.029 -1.0896  0.8502 -0.3093
 7919TIP3    H245249   1.440   3.419  16.994 -0.6929 -1.4388 -1.0373
 7920TIP3   OH245250   5.379   6.435  14.530  0.1124  0.1232 -0.4458
 7920TIP3    H145251   5.375   6.341  14.509 -0.0280 -0.0566  0.3518
 7920TIP3    H245252   5.294   6.454  14.569  1.6898 -0.4585  3.5571
 7921TIP3   OH245253   3.637   3.602   0.886 -0.4220  0.2814  0.0433
 7921TIP3    H145254   3.698   3.625   0.956 -1.4286 -0.4506  1.1684
 7921TIP3    H245255   3.669   3.651   0.810  0.0295  1.9522  1.2702
 7922TIP3   OH245256   6.381   2.249  12.642  0.2864  0.5852 -0.2777
 7922TIP3    H145257   6.356   2.331  12.685  1.1020  1.0043 -0.5953
 7922TIP3    H245258   6.469   2.230  12.675 -0.4255 -0.8951  0.8520
 7923TIP3   OH245259   3.031   1.843   3.680  0.0008 -0.3806 -0.1256
 7923TIP3    H145260   3.087   1.811   3.610 -0.6590 -1.6791 -0.0709
 7923TIP3    H245261   2.976   1.910   3.639  0.2148 -0.5203 -0.6375
 7924TIP3   OH245262   2.765   6.367  11.989 -0.7373 -0.4428 -0.2016
 7924TIP3    H145263   2.843   6.407  12.026 -1.3799 -1.2535  2.1522
 7924TIP3    H245264   2.791   6.338  11.902  1.4341 -0.2921  0.3774
 7925TIP3   OH245265   6.038   3.783   5.807  0.7255 -0.0239  0.4531
 7925TIP3    H145266   5.971   3.732   5.761  0.5762  0.1515  0.4758
 7925TIP3    H245267   6.076   3.840   5.740  0.9417 -0.2138  0.4127
 7926TIP3   OH245268   0.577   4.554   3.926  0.3957  0.5964 -0.3078
 7926TIP3    H145269   0.559   4.535   3.834 -1.1545 -1.7093  0.4327
 7926TIP3    H245270   0.650   4.496   3.949 -0.0837  0.2102  0.2562
 7927TIP3   OH245271   1.950   0.718  15.613 -0.6606  0.0717 -0.2971
 7927TIP3    H145272   1.909   0.699  15.698 -1.1119  0.9965 -0.2953
 7927TIP3    H245273   1.973   0.633  15.577  0.7474 -0.2922  1.3560
 7928TIP3   OH245274   2.812   5.558  13.094 -0.4027 -0.2146 -0.2771
 7928TIP3    H145275   2.881   5.576  13.158  0.4877 -0.7461 -1.0676
 7928TIP3    H245276   2.733   5.596  13.132  0.3362  0.4338  0.6267
 7929TIP3   OH245277   5.988   0.450   1.853  0.2267 -0.0326  0.7325
 7929TIP3    H145278   6.066   0.401   1.878  0.5178 -0.0382 -0.1575
 7929TIP3    H245279   5.918   0.385   1.853 -0.1672  0.3380  3.3585
 7930TIP3   OH245280   1.007   6.599  12.990 -0.1726 -0.5336  0.0524
 7930TIP3    H145281   1.085   6.647  12.961 -1.3834  0.5999 -1.3847
 7930TIP3    H245282   1.017   6.512  12.951  1.0694 -0.8673  1.0673
 7931TIP3   OH245283   4.034   4.062  13.620  0.2236  0.2577 -0.1234
 7931TIP3    H145284   4.056   4.088  13.531 -0.7162 -0.5086 -0.5799
 7931TIP3    H245285   4.100   3.996  13.643  0.0687 -0.0295 -0.4940
 7932TIP3   OH245286   1.414   3.755   3.917 -0.1866 -0.2717  0.2884
 7932TIP3    H145287   1.340   3.749   3.857 -1.8943  2.8997  1.9112
 7932TIP3    H245288   1.385   3.709   3.996  0.2267 -0.4944  0.3099
 7933TIP3   OH245289   0.188   1.499  13.052 -0.4740 -0.1530  0.9046
 7933TIP3    H145290   0.130   1.575  13.062 -0.4783  0.2027 -1.4508
 7933TIP3    H245291   0.240   1.519  12.974  0.1721 -2.1614  0.7976
 7934TIP3   OH245292   6.762   1.193  13.563 -0.3498  0.1030  0.1170
 7934TIP3    H145293   6.796   1.122  13.509  0.4769 -0.6110  1.5551
 7934TIP3    H245294   6.781   1.272  13.513  0.4653 -0.5436 -0.6179
 7935TIP3   OH245295   3.308   5.105   0.033 -0.2987  0.3152  0.2139
 7935TIP3    H145296   3.350   5.191   0.026  0.5527 -0.0514  0.7087
 7935TIP3    H245297   3.341   5.069   0.115 -0.3306 -0.6584 -0.1943
 7936TIP3   OH245298   6.300   1.567   5.008 -0.1563  0.1556 -0.0786
 7936TIP3    H145299   6.345   1.524   5.081 -1.3990  0.6960  1.0236
 7936TIP3    H245300   6.208   1.569   5.034 -0.7316 -0.3050 -1.9949
 7937TIP3   OH245301   3.747   6.068  17.208  0.5019 -0.5765 -0.0668
 7937TIP3    H145302   3.740   6.013  17.131  0.4243  3.1292 -2.8256
 7937TIP3    H245303   3.656   6.083  17.236  0.3328  0.7737 -1.2955
 7938TIP3   OH245304   2.068   6.326   4.938  0.0865 -0.8243 -0.3675
 7938TIP3    H145305   2.001   6.393   4.949  1.2306  0.2261  0.3354
 7938TIP3    H245306   2.021   6.244   4.948 -0.8255 -0.0860  1.6347
 7939TIP3   OH245307   0.482   1.990   5.403 -0.3677 -0.5468  0.0079
 7939TIP3    H145308   0.463   1.948   5.487 -2.2127  1.0320  0.4178
 7939TIP3    H245309   0.423   2.065   5.400  1.0184  0.5149 -1.8685
 7940TIP3   OH245310   4.518   5.090   0.820 -0.0688 -0.2151 -0.4588
 7940TIP3    H145311   4.525   4.997   0.800  2.6236 -0.2765  0.5229
 7940TIP3    H245312   4.475   5.128   0.743 -1.2067 -2.2630 -0.8498
 7941TIP3   OH245313   0.635   3.781  16.514  0.0217  0.1843 -0.3043
 7941TIP3    H145314   0.707   3.761  16.454  0.0359 -0.0567 -0.2067
 7941TIP3    H245315   0.562   3.727  16.483 -0.4367  1.1844 -1.0345
 7942TIP3   OH245316   3.529   6.555   3.013 -0.3000 -0.3686  0.2743
 7942TIP3    H145317   3.622   6.535   2.999 -1.0124 -2.5414 -1.6242
 7942TIP3    H245318   3.519   6.558   3.108  1.8697  0.6921  0.4984
 7943TIP3   OH245319   6.404   3.192  11.302 -0.6428 -0.4551  0.4475
 7943TIP3    H145320   6.470   3.160  11.240 -2.0953 -0.3698 -1.1666
 7943TIP3    H245321   6.435   3.162  11.387  1.1732 -0.9347 -0.3613
 7944TIP3   OH245322   1.841   6.483   4.788  0.1353  0.1254 -0.1697
 7944TIP3    H145323   1.777   6.417   4.815  1.1563 -0.4789  0.8284
 7944TIP3    H245324   1.826   6.556   4.847  0.6625 -0.2031  0.3848
 7945TIP3   OH245325   0.187   3.985  13.462  0.7765 -0.0304  0.3391
 7945TIP3    H145326   0.153   3.980  13.372 -0.9498 -0.1905  0.9825
 7945TIP3    H245327   0.113   3.960  13.517  1.7340  0.3669  1.8329
 7946TIP3   OH245328   3.823   4.444  12.846  0.1318 -0.4655 -0.6536
 7946TIP3    H145329   3.753   4.386  12.815  0.3328 -1.4750  0.7151
 7946TIP3    H245330   3.899   4.418  12.795 -0.2268 -0.1100 -1.3775
 7947TIP3   OH245331   1.799   2.226   1.165  0.2135 -0.0819 -0.1162
 7947TIP3    H145332   1.826   2.166   1.234  2.2775 -0.9046 -1.5797
 7947TIP3    H245333   1.788   2.310   1.209  0.5639 -0.7883  1.3579
 7948TIP3   OH245334   4.514   0.029   4.303 -0.0592 -0.1307 -0.2740
 7948TIP3    H145335   4.519  -0.065   4.319 -0.0144 -0.0103  0.4256
 7948TIP3    H245336   4.427   0.041   4.264  0.1565 -0.5361 -0.8819
 7949TIP3   OH245337   6.467   3.640  13.055 -0.2151 -0.6089 -0.1924
 7949TIP3    H145338   6.410   3.673  13.125 -0.3727 -0.1572 -0.5332
 7949TIP3    H245339   6.518   3.572  13.097 -0.6744 -0.6954  0.2382
 7950TIP3   OH245340   4.405   6.108   1.291  0.5291 -0.4492 -0.2574
 7950TIP3    H145341   4.431   6.025   1.331 -1.3676  0.3120  2.6565
 7950TIP3    H245342   4.474   6.169   1.317 -0.0319 -0.2531  0.7851
 7951TIP3   OH245343   0.352   2.022   5.895  0.3218 -0.1006  0.4346
 7951TIP3    H145344   0.287   1.959   5.863  0.4287 -0.1110  0.2414
 7951TIP3    H245345   0.420   1.967   5.936  1.4515 -0.2363 -1.5635
 7952TIP3   OH245346   5.814   3.448  17.147  0.3430  0.5609 -1.1663
 7952TIP3    H145347   5.860   3.371  17.181 -0.3274  0.9810  0.7673
 7952TIP3    H245348   5.722   3.421  17.142  0.2886  0.8304 -1.7418
 7953TIP3   OH245349   4.271   6.046  11.850 -0.1787  0.4291  0.3535
 7953TIP3    H145350   4.210   6.002  11.791 -0.0230  1.1915 -0.3837
 7953TIP3    H245351   4.341   6.078  11.794  0.4134  0.3975  1.0663
 7954TIP3   OH245352   3.150   3.601  14.896  0.4636 -0.1466  0.0216
 7954TIP3    H145353   3.082   3.552  14.942  1.9020 -0.4162  1.9210
 7954TIP3    H245354   3.191   3.538  14.837 -0.0707 -0.3140 -0.1640
 7955TIP3   OH245355   4.276   3.254  13.649 -0.1224  0.1065  0.4522
 7955TIP3    H145356   4.296   3.184  13.588  0.7842  0.6598  0.0988
 7955TIP3    H245357   4.357   3.267  13.698 -0.8387 -0.3306  1.7826
 7956TIP3   OH245358   4.535   4.584  13.867 -0.4340  0.3834  0.5327
 7956TIP3    H145359   4.623   4.614  13.891 -0.9243  0.6437  2.0690
 7956TIP3    H245360   4.479   4.661  13.881 -1.0560 -0.0538  0.4841
 7957TIP3   OH245361   4.614   1.689  12.181  0.1731  0.2077  0.0174
 7957TIP3    H145362   4.597   1.645  12.097  0.5446  0.5026 -0.2094
 7957TIP3    H245363   4.544   1.754  12.188 -1.0625 -1.1733  0.8849
 7958TIP3   OH245364   4.312   0.879   1.489 -0.4965  0.2792 -0.1231
 7958TIP3    H145365   4.394   0.928   1.490 -0.2821 -0.0848  0.3619
 7958TIP3    H245366   4.262   0.917   1.417 -0.2134  1.0094  0.0645
 7959TIP3   OH245367   5.558   1.151  11.955  0.2192 -0.2879 -0.2471
 7959TIP3    H145368   5.549   1.168  11.862  0.0573 -0.4688 -0.2648
 7959TIP3    H245369   5.491   1.086  11.974 -0.5824  0.6759  0.2447
 7960TIP3   OH245370   1.987   1.887  14.574  0.0429  0.1897  0.5254
 7960TIP3    H145371   1.910   1.843  14.539 -1.0149 -0.0638  3.0569
 7960TIP3    H245372   2.047   1.815  14.597  0.1927  0.2905  0.4512
 7961TIP3   OH245373   0.890   2.719   2.201  0.6078  0.1762  0.4431
 7961TIP3    H145374   0.798   2.695   2.197  0.9735 -1.1180 -0.2882
 7961TIP3    H245375   0.917   2.726   2.110  1.1696  0.8395  0.6545
 7962TIP3   OH245376   4.105   0.167   2.319  0.4082  0.0709 -0.5663
 7962TIP3    H145377   4.118   0.104   2.390 -0.3435  1.7783  1.1444
 7962TIP3    H245378   4.018   0.148   2.284 -0.3890  0.9962  0.8587
 7963TIP3   OH245379   0.166   0.857   1.672  0.1943  0.4272 -0.5324
 7963TIP3    H145380   0.074   0.880   1.685  0.9173  2.1870  1.6114
 7963TIP3    H245381   0.186   0.797   1.744  0.1470 -1.7668 -2.2902
 7964TIP3   OH245382   0.872   4.021  15.440 -0.0615 -0.4122 -0.1097
 7964TIP3    H145383   0.855   3.927  15.433 -1.3194 -0.2215  0.2724
 7964TIP3    H245384   0.808   4.061  15.382  0.5549  0.1991 -0.3580
 7965TIP3   OH245385   6.220   3.611   2.621 -0.0337 -0.1325 -0.2834
 7965TIP3    H145386   6.140   3.591   2.572 -0.9812  0.0446  1.1492
 7965TIP3    H245387   6.193   3.605   2.713  0.6338  3.7525  0.2196
 7966TIP3   OH245388   4.610   0.104  15.950  0.1204  0.1621  0.0514
 7966TIP3    H145389   4.656   0.163  15.890 -0.8446  0.2268 -0.6406
 7966TIP3    H245390   4.517   0.120  15.932 -0.1640 -0.3485  1.0555
 7967TIP3   OH245391   1.441   5.579   3.273 -0.5037 -0.2730  0.2683
 7967TIP3    H145392   1.451   5.507   3.335 -0.9485 -0.2713  0.3454
 7967TIP3    H245393   1.412   5.538   3.192  1.5454 -0.4491 -0.3925
 7968TIP3   OH245394   5.818   6.452  13.737 -0.3572  0.0322 -0.0880
 7968TIP3    H145395   5.734   6.421  13.770 -0.1683  0.6087  0.9489
 7968TIP3    H245396   5.827   6.409  13.652  0.0398 -3.0805  1.4238
 7969TIP3   OH245397   3.819   1.186   4.257 -0.1698 -0.2746  0.7258
 7969TIP3    H145398   3.816   1.105   4.307  0.6670 -0.4313  0.5293
 7969TIP3    H245399   3.812   1.159   4.166  2.0597 -0.2985  0.5346
 7970TIP3   OH245400   5.820   0.773  11.042 -0.1420 -0.5080 -0.3260
 7970TIP3    H145401   5.878   0.699  11.027 -1.2125 -1.2426 -0.9555
 7970TIP3    H245402   5.791   0.763  11.133 -1.0298 -1.4080 -0.7030
 7971TIP3   OH245403   1.064   1.175   1.933 -0.4725  0.2774 -0.1230
 7971TIP3    H145404   1.087   1.182   1.840  0.5776 -2.8680 -0.1866
 7971TIP3    H245405   1.139   1.212   1.979  0.1611 -0.4988 -0.5146
 7972TIP3   OH245406   1.391   3.398   0.774  0.2249 -0.3943 -0.4897
 7972TIP3    H145407   1.371   3.425   0.863  1.4730  0.8263 -0.5742
 7972TIP3    H245408   1.306   3.400   0.729 -0.8313 -3.2962  1.2153
 7973TIP3   OH245409   5.387   1.955  12.467  0.2082 -0.4473 -0.2968
 7973TIP3    H145410   5.457   1.968  12.530 -2.3173  0.2971  2.5061
 7973TIP3    H245411   5.412   2.008  12.391  2.2526  0.3980  0.9374
 7974TIP3   OH245412   5.676   4.683  15.539 -0.1301  0.4700  0.0648
 7974TIP3    H145413   5.685   4.590  15.559  0.5322  0.7746  1.2138
 7974TIP3    H245414   5.648   4.686  15.448 -1.4739 -0.8997  0.4196
 7975TIP3   OH245415   0.663   5.671  16.603 -0.2255 -0.2360 -1.1821
 7975TIP3    H145416   0.629   5.648  16.516 -0.8779 -1.7950 -0.5402
 7975TIP3    H245417   0.646   5.593  16.656 -4.1024  2.3581  1.6037
 7976TIP3   OH245418   2.153   1.515   6.067  0.4408 -0.6647 -0.3248
 7976TIP3    H145419   2.216   1.443   6.078  2.7155  1.5442  1.6030
 7976TIP3    H245420   2.092   1.504   6.141  1.8057  0.3532  0.9777
 7977TIP3   OH245421   5.132   0.445  12.297 -0.5686  0.1829  0.4024
 7977TIP3    H145422   5.106   0.411  12.382  1.2062 -1.0293  0.4931
 7977TIP3    H245423   5.151   0.367  12.245 -1.5800  0.9149 -1.0816
 7978TIP3   OH245424   0.731   3.844   4.589 -0.0369 -0.2148 -0.3485
 7978TIP3    H145425   0.677   3.789   4.531  0.8859 -0.7378 -0.7191
 7978TIP3    H245426   0.705   3.818   4.677  1.2666 -2.1283 -0.5148
 7979TIP3   OH245427   6.373   4.334  15.127  0.2953 -0.1767  0.1044
 7979TIP3    H145428   6.417   4.286  15.058  0.8979 -0.4203  0.6540
 7979TIP3    H245429   6.412   4.421  15.125  1.5227 -0.6834  1.2380
 7980TIP3   OH245430   2.988   1.061  15.839 -0.0822 -0.4639  0.6939
 7980TIP3    H145431   2.895   1.060  15.862  0.3397  0.0792  2.4384
 7980TIP3    H245432   3.002   0.980  15.790 -1.0367 -1.4955  2.1317
 7981TIP3   OH245433   3.521   3.328   5.264 -0.4186  0.6417  0.2979
 7981TIP3    H145434   3.433   3.297   5.242 -0.4484  0.7061  0.3274
 7981TIP3    H245435   3.512   3.366   5.352 -0.1722 -0.1568  0.6713
 7982TIP3   OH245436   3.765   6.637  15.848 -0.2297  0.3037  0.1758
 7982TIP3    H145437   3.731   6.719  15.883  1.8890  0.7524  1.2559
 7982TIP3    H245438   3.817   6.600  15.919 -1.8022 -2.4047 -0.0184
 7983TIP3   OH245439   2.212   1.451   1.935  0.0328 -0.0251 -0.2756
 7983TIP3    H145440   2.247   1.382   1.880  0.7887  1.6433 -1.9157
 7983TIP3    H245441   2.146   1.407   1.989  0.0075 -1.8825 -1.7722
 7984TIP3   OH245442   3.899   2.858  12.643  0.0072 -0.5567 -0.0351
 7984TIP3    H145443   3.901   2.936  12.588 -0.5875 -0.6688 -0.2206
 7984TIP3    H245444   3.981   2.860  12.692  0.6397 -0.5538 -1.0742
 7985TIP3   OH245445   0.708   5.459   5.675 -0.3636 -0.1645  0.0851
 7985TIP3    H145446   0.796   5.424   5.686 -0.0154  0.8273  0.5707
 7985TIP3    H245447   0.720   5.539   5.624 -1.0699 -0.4012 -0.4758
 7986TIP3   OH245448   5.980   0.990  15.590  0.0313  0.2697 -0.0738
 7986TIP3    H145449   5.940   0.982  15.504  0.2592 -1.1630 -0.0603
 7986TIP3    H245450   6.009   1.081  15.595  2.0194 -0.1713 -2.4068
 7987TIP3   OH245451   0.779   6.455   1.687  0.3105 -0.2482 -0.3814
 7987TIP3    H145452   0.756   6.537   1.732  3.1601 -0.2562  1.2276
 7987TIP3    H245453   0.770   6.387   1.754 -0.4735 -1.0395 -1.2709
 7988TIP3   OH245454   0.237   2.533  13.062 -1.0563  0.1337  0.8717
 7988TIP3    H145455   0.259   2.610  13.115  0.0703  0.5537 -0.1798
 7988TIP3    H245456   0.213   2.466  13.126  0.6904  0.4986  1.9511
 7989TIP3   OH245457   3.781   5.105  11.240  0.4288 -0.1365 -0.1720
 7989TIP3    H145458   3.703   5.050  11.245  0.1365  0.1487 -1.4466
 7989TIP3    H245459   3.763   5.166  11.168  0.9856  1.2453  0.8322
 7990TIP3   OH245460   5.764   3.329   0.794  0.8721 -0.0333  0.2561
 7990TIP3    H145461   5.824   3.367   0.858 -1.0248  0.4025  1.8081
 7990TIP3    H245462   5.750   3.239   0.823 -0.6769  0.4243  0.9730
 7991TIP3   OH245463   6.596   0.355  16.694  0.2785 -0.0180  0.1547
 7991TIP3    H145464   6.607   0.303  16.773  3.3084  0.4132  0.0774
 7991TIP3    H245465   6.541   0.428  16.721 -0.2124 -0.8350  1.4084
 7992TIP3   OH245466   6.045   0.377  16.003  1.0507  0.3646  0.8102
 7992TIP3    H145467   6.048   0.371  15.908 -1.6678  1.3896  0.6329
 7992TIP3    H245468   6.107   0.446  16.025 -0.1728  1.8828 -0.4216
 7993TIP3   OH245469   2.710   2.689   4.481  0.4907  0.1625 -0.1907
 7993TIP3    H145470   2.703   2.661   4.572  1.1143 -0.3322 -0.2919
 7993TIP3    H245471   2.649   2.633   4.434  2.1749 -1.4638 -0.4836
 7994TIP3   OH245472   6.250   6.188   1.763 -0.0599 -0.2059 -0.1339
 7994TIP3    H145473   6.158   6.205   1.784  0.4406  0.6591  1.4587
 7994TIP3    H245474   6.260   6.220   1.673 -1.7148 -1.9337 -0.9850
 7995TIP3   OH245475   0.719   1.776   4.555  0.1651  0.0432  0.3443
 7995TIP3    H145476   0.660   1.792   4.482  1.7557 -0.2413 -1.0349
 7995TIP3    H245477   0.807   1.791   4.519  1.1317 -2.4902  1.4938
 7996TIP3   OH245478   3.716   0.606  17.104 -0.0968  0.6861  0.4620
 7996TIP3    H145479   3.734   0.560  17.186 -0.4982  0.7003  0.5586
 7996TIP3    H245480   3.800   0.644  17.079  0.4686 -0.9586 -0.1555
 7997TIP3   OH245481   3.441   5.530   6.229  0.1682 -0.0534  0.2246
 7997TIP3    H145482   3.496   5.459   6.197  0.3307  0.3004 -0.2799
 7997TIP3    H245483   3.458   5.533   6.323  1.4574  0.4522 -0.0171
 7998TIP3   OH245484   4.058   3.207  13.990  0.9631  0.6039 -0.0490
 7998TIP3    H145485   4.073   3.275  14.055  0.0140  0.4784  0.3033
 7998TIP3    H245486   4.134   3.212  13.932  1.8133  0.7313  1.0506
 7999TIP3   OH245487   6.423   3.056  12.755  0.1474 -0.3778  0.1499
 7999TIP3    H145488   6.447   3.039  12.664 -2.0104 -0.4087 -0.4483
 7999TIP3    H245489   6.503   3.042  12.804  1.2480 -0.7674 -1.7020
 8000TIP3   OH245490   5.600   0.538  11.995 -0.3258 -0.3688 -0.8248
 8000TIP3    H145491   5.656   0.600  11.949  0.7664 -0.9039 -0.2261
 8000TIP3    H245492   5.554   0.591  12.060  0.7539 -0.2186 -0.1788
 8001TIP3   OH245493   3.301   4.224  17.159 -0.2620 -0.1143 -0.2621
 8001TIP3    H145494   3.318   4.132  17.140 -0.6580 -0.0257 -1.0687
 8001TIP3    H245495   3.206   4.233  17.150 -0.0801  0.6461 -1.3953
 8002TIP3   OH245496   2.366   4.834   2.431 -0.0679  0.1407 -0.0749
 8002TIP3    H145497   2.285   4.803   2.390  0.9913  0.8825 -2.8234
 8002TIP3    H245498   2.407   4.755   2.466 -1.4849 -0.3672  0.4960
 8003TIP3   OH245499   3.404   0.937  15.809 -0.1139  0.3202 -0.4331
 8003TIP3    H145500   3.343   0.963  15.741 -0.0480  0.0835 -0.5811
 8003TIP3    H245501   3.412   0.842  15.800  0.6912  0.4097 -0.7687
 8004TIP3   OH245502   5.656   4.977  10.965  0.7570 -0.5173 -0.1152
 8004TIP3    H145503   5.641   4.902  10.907  1.5299 -1.7156  1.2184
 8004TIP3    H245504   5.586   5.038  10.943  1.9719 -0.2246 -3.4650
 8005TIP3   OH245505   1.690   6.352   0.827  0.6275  0.5559 -0.6924
 8005TIP3    H145506   1.689   6.307   0.912  0.1114  1.1264 -0.4005
 8005TIP3    H245507   1.753   6.302   0.775 -1.3376 -1.6947 -1.0069
 8006TIP3   OH245508   3.532   5.140  15.499 -0.2163  0.6630  0.0656
 8006TIP3    H145509   3.624   5.134  15.472 -0.2833  1.1843 -0.2791
 8006TIP3    H245510   3.525   5.225  15.542 -0.5388  0.6237  0.0891
 8007TIP3   OH245511   5.797   0.956   5.091 -0.2383 -0.0842  0.1296
 8007TIP3    H145512   5.781   1.024   5.026 -2.6266 -0.2467  0.4757
 8007TIP3    H245513   5.775   0.996   5.175  1.0428 -0.4332  0.6401
 8008TIP3   OH245514   4.467   4.510   0.340 -0.0401 -0.8326  0.2360
 8008TIP3    H145515   4.440   4.419   0.343  0.6159 -1.0591 -0.5189
 8008TIP3    H245516   4.563   4.507   0.342 -0.0294 -0.1024  1.5791
 8009TIP3   OH245517   0.645   1.633  17.181  0.1276  0.0913 -0.1426
 8009TIP3    H145518   0.726   1.681  17.198  0.4618 -0.0482 -1.2878
 8009TIP3    H245519   0.592   1.693  17.128 -1.0050  0.6260  1.5615
 8010TIP3   OH245520   2.555   5.884   1.534 -0.0054  0.3508  0.2912
 8010TIP3    H145521   2.646   5.904   1.511  0.0719  2.3602  2.1439
 8010TIP3    H245522   2.560   5.858   1.626 -1.3476  0.9223  0.5348
 8011TIP3   OH245523   1.715   6.561  17.154  0.0382  0.4178  0.1434
 8011TIP3    H145524   1.624   6.564  17.186  0.1143  0.7856  0.3304
 8011TIP3    H245525   1.768   6.567  17.234  0.2289  0.7278 -0.0064
 8012TIP3   OH245526   2.754   3.585  12.830  0.8997  0.5650  0.1609
 8012TIP3    H145527   2.771   3.669  12.787  0.2200  0.8710  0.4854
 8012TIP3    H245528   2.692   3.606  12.899  0.1586 -0.3360 -0.2277
 8013TIP3   OH245529   2.898   2.879   1.737  0.2264  0.6575 -0.2559
 8013TIP3    H145530   2.903   2.816   1.665 -0.5503 -0.0852  0.3302
 8013TIP3    H245531   2.817   2.857   1.783 -0.7862  2.9537 -0.8448
 8014TIP3   OH245532   5.542   0.396   3.478 -0.5814 -0.5870 -0.6260
 8014TIP3    H145533   5.535   0.425   3.569  1.0447  2.1469 -1.3133
 8014TIP3    H245534   5.458   0.420   3.438 -0.7242 -0.4270 -0.2301
 8015TIP3   OH245535   4.690   5.004  12.241  0.2551 -0.5397 -0.4782
 8015TIP3    H145536   4.662   5.041  12.325  0.2358 -1.9050  0.1300
 8015TIP3    H245537   4.608   4.983  12.196  0.2604  0.5359 -1.0089
 8016TIP3   OH245538   1.400   4.281   4.276 -0.2229 -0.4108 -0.7205
 8016TIP3    H145539   1.384   4.197   4.319  1.2158 -0.5493 -0.4439
 8016TIP3    H245540   1.493   4.299   4.291 -0.6046  1.4411 -0.4193
 8017TIP3   OH245541   2.040   4.745  11.258 -0.0443  0.4458  0.4518
 8017TIP3    H145542   1.986   4.667  11.250  0.2230  0.3652 -0.5867
 8017TIP3    H245543   2.055   4.774  11.168  2.2547  0.0184  0.6544
 8018TIP3   OH245544   0.661   3.855   5.718 -0.1558 -0.1435  0.3416
 8018TIP3    H145545   0.640   3.832   5.627 -1.2397 -0.4326  0.6668
 8018TIP3    H245546   0.641   3.776   5.768  1.1740 -0.2383  0.7347
 8019TIP3   OH245547   0.359   5.788  13.567  0.6237  0.1337 -0.6169
 8019TIP3    H145548   0.264   5.797  13.574  0.6566  0.8842 -1.1370
 8019TIP3    H245549   0.387   5.766  13.655 -0.0122  0.1109 -0.4143
 8020TIP3   OH245550   4.971   2.034  11.986  0.1445 -0.5206 -0.2136
 8020TIP3    H145551   4.934   2.059  11.902  0.3295  1.0922  0.1644
 8020TIP3    H245552   4.909   2.068  12.051  0.7030 -0.5247  0.3286
 8021TIP3   OH245553   1.942   5.889  14.794 -0.1688 -0.2572  0.5169
 8021TIP3    H145554   1.981   5.956  14.738 -1.9605 -0.2676 -0.8182
 8021TIP3    H245555   1.917   5.936  14.873  0.3847  0.2487  0.3951
 8022TIP3   OH245556   0.277   4.569  15.099 -0.6039 -0.1950  0.3173
 8022TIP3    H145557   0.278   4.474  15.111 -0.0613 -0.1277  0.7962
 8022TIP3    H245558   0.195   4.586  15.053  0.2251 -1.1220 -1.5660
 8023TIP3   OH245559   5.867   0.637  12.315 -0.0341  0.2912 -0.3199
 8023TIP3    H145560   5.850   0.588  12.396  1.3510  1.0219  0.4393
 8023TIP3    H245561   5.876   0.728  12.344  0.6980  0.5261 -1.2661
 8024TIP3   OH245562   4.022   1.200   4.521 -0.5000 -0.1311 -0.8290
 8024TIP3    H145563   4.099   1.149   4.545 -1.1175 -0.5482  0.2847
 8024TIP3    H245564   3.953   1.135   4.508 -1.6152  0.4686  1.8104
 8025TIP3   OH245565   4.192   5.365  14.982 -0.2102 -0.1102 -0.4779
 8025TIP3    H145566   4.154   5.285  14.946  1.0791 -0.8987 -0.0928
 8025TIP3    H245567   4.263   5.335  15.038  0.1668  1.3015 -0.1876
 8026TIP3   OH245568   0.977   2.610   0.577  0.1365 -0.5540  0.1326
 8026TIP3    H145569   0.908   2.675   0.574 -0.1855 -0.8064  1.6431
 8026TIP3    H245570   0.933   2.529   0.602  0.9303 -0.7697  0.8600
 8027TIP3   OH245571   0.779   1.432   1.824 -0.0837 -0.4289  0.3760
 8027TIP3    H145572   0.690   1.460   1.805  0.3755  1.9825  1.5638
 8027TIP3    H245573   0.770   1.348   1.869 -1.8276  0.4880  1.7674
 8028TIP3   OH245574   5.366   0.931   2.580 -0.0399 -0.0398  0.2075
 8028TIP3    H145575   5.406   1.017   2.564  0.6605 -0.0282  1.9133
 8028TIP3    H245576   5.340   0.900   2.494  0.1071  1.7029 -0.4801
 8029TIP3   OH245577   5.690   5.316  16.897  0.1514 -0.5582  0.2439
 8029TIP3    H145578   5.635   5.318  16.819 -0.3066 -1.1907  0.5466
 8029TIP3    H245579   5.666   5.235  16.941 -1.5236  1.0669  2.4398
 8030TIP3   OH245580   0.629   4.232   5.390  0.0919  0.7344  0.7745
 8030TIP3    H145581   0.556   4.182   5.427 -1.0995  2.9983  1.6344
 8030TIP3    H245582   0.696   4.230   5.458  0.5640 -0.7495  0.2775
 8031TIP3   OH245583   2.674   6.119   4.548 -0.1559 -0.3941 -0.0489
 8031TIP3    H145584   2.765   6.130   4.523 -0.5993 -1.4390 -2.2476
 8031TIP3    H245585   2.633   6.203   4.529  0.3101  0.0398  0.8388
 8032TIP3   OH245586   2.438   3.698   3.349 -0.0259 -0.4453  0.5888
 8032TIP3    H145587   2.483   3.779   3.328  0.3201 -0.3929  1.5143
 8032TIP3    H245588   2.394   3.715   3.432 -1.1160 -0.7479  0.0799
 8033TIP3   OH245589   4.230   1.492   2.514  0.2212 -0.2281  0.2896
 8033TIP3    H145590   4.197   1.418   2.566 -2.0686  1.0049  0.6354
 8033TIP3    H245591   4.276   1.451   2.441 -0.6541 -1.9940  0.7085
 8034TIP3   OH245592   0.047   3.666  14.089  0.1354  0.1447  0.1371
 8034TIP3    H145593  -0.002   3.585  14.097 -0.7397  0.6310 -0.2178
 8034TIP3    H245594   0.071   3.689  14.179 -1.8739  0.8596  0.5159
 8035TIP3   OH245595   4.075   5.615  12.280  0.9015  0.3495  0.1656
 8035TIP3    H145596   4.063   5.664  12.199  0.5262 -1.0025 -0.5994
 8035TIP3    H245597   4.014   5.655  12.342  1.7292  1.8796  0.0243
 8036TIP3   OH245598   5.080   2.776  12.738 -0.0838 -0.1178 -0.3705
 8036TIP3    H145599   5.110   2.845  12.679 -0.3690 -1.1917 -1.7664
 8036TIP3    H245600   5.090   2.815  12.826 -1.4317  2.1757 -1.1913
 8037TIP3   OH245601   5.575   4.368  11.992 -0.4031 -0.4722 -0.2682
 8037TIP3    H145602   5.664   4.346  12.020  1.0283  3.6647 -1.3255
 8037TIP3    H245603   5.581   4.376  11.896 -1.6406  1.0496 -0.2324
 8038TIP3   OH245604   3.139   1.396   5.290  0.3098  0.1018 -0.1027
 8038TIP3    H145605   3.182   1.478   5.270 -0.2506  0.2634 -0.6578
 8038TIP3    H245606   3.046   1.414   5.278  0.0505 -0.1581  1.3716
 8039TIP3   OH245607   5.944   5.116  13.671  0.3056 -0.2779  0.0166
 8039TIP3    H145608   6.002   5.150  13.740  0.3901 -1.1205  0.3632
 8039TIP3    H245609   5.951   5.180  13.600  0.8198  0.1905  0.4863
 8040TIP3   OH245610   1.652   0.151   0.756  0.2127 -0.7615 -0.3905
 8040TIP3    H145611   1.627   0.239   0.784 -0.5746 -0.8646 -0.7497
 8040TIP3    H245612   1.600   0.092   0.811 -0.2240 -0.9835 -1.0339
 8041TIP3   OH245613   3.662   0.276  16.261  0.0285  0.1892 -0.2830
 8041TIP3    H145614   3.692   0.330  16.188 -0.1371  0.0047 -0.4897
 8041TIP3    H245615   3.589   0.226  16.225  0.7613 -0.8446 -0.3588
 8042TIP3   OH245616   4.459   5.225   2.743  0.0460 -0.0566 -0.1584
 8042TIP3    H145617   4.376   5.248   2.701  1.1574  2.2145 -1.2113
 8042TIP3    H245618   4.524   5.237   2.674  1.5353  0.6230  1.3543
 8043TIP3   OH245619   1.451   3.904   1.367 -0.1870  0.2728 -0.0367
 8043TIP3    H145620   1.475   3.954   1.445 -0.4464  0.2380  0.0655
 8043TIP3    H245621   1.442   3.814   1.398 -0.6962  0.3284 -0.0275
 8044TIP3   OH245622   6.255   4.802  12.990  0.4405  0.0874 -0.1408
 8044TIP3    H145623   6.279   4.735  13.055 -3.0838 -0.4849  0.6488
 8044TIP3    H245624   6.216   4.752  12.918 -1.5136  1.2034  0.1187
 8045TIP3   OH245625   5.484   4.129   3.384  0.2185  0.0333  0.1380
 8045TIP3    H145626   5.539   4.051   3.395  0.4231  0.5022  2.7597
 8045TIP3    H245627   5.496   4.154   3.293 -0.1075 -3.1983 -0.8563
 8046TIP3   OH245628   6.584   1.177   2.958 -0.4170  0.2256 -0.0599
 8046TIP3    H145629   6.496   1.182   2.922 -0.1394 -1.4485 -1.0256
 8046TIP3    H245630   6.615   1.089   2.935  1.7516  1.0059 -0.3204
 8047TIP3   OH245631   5.878   0.202   1.817 -0.3567 -0.2266 -0.3995
 8047TIP3    H145632   5.881   0.190   1.722 -0.1646  0.7831 -0.5367
 8047TIP3    H245633   5.941   0.140   1.851  0.6088  0.3688 -1.0522
 8048TIP3   OH245634   1.043   3.652  15.976 -0.0263 -0.1528  0.0321
 8048TIP3    H145635   1.093   3.725  15.938  0.2516  0.5948  1.7962
 8048TIP3    H245636   1.015   3.601  15.900  2.3301  0.1159 -1.0801
 8049TIP3   OH245637   3.407   6.046  11.253  0.1771  0.4589  0.0063
 8049TIP3    H145638   3.331   5.989  11.258  1.7267 -1.8269 -1.5764
 8049TIP3    H245639   3.409   6.077  11.162  3.5453 -3.0979 -1.2925
 8050TIP3   OH245640   1.984   0.386  12.792 -0.0855  0.7260  0.6005
 8050TIP3    H145641   1.922   0.313  12.801 -0.1268  0.7777  0.7341
 8050TIP3    H245642   1.953   0.452  12.854  0.5197  0.4628  1.1911
 8051TIP3   OH245643   0.213   5.417   1.343  0.2431 -0.8757 -0.7023
 8051TIP3    H145644   0.270   5.492   1.325 -2.0118  1.2914  0.8914
 8051TIP3    H245645   0.257   5.343   1.301  2.4954  1.3328 -2.3905
 8052TIP3   OH245646   2.741   5.282   1.687  0.1818  0.1071 -0.7786
 8052TIP3    H145647   2.832   5.308   1.669 -0.0177  1.7819  0.4520
 8052TIP3    H245648   2.696   5.291   1.603  0.9907  0.0152 -1.2274
 8053TIP3   OH245649   3.395   5.434   2.124  0.0796 -0.0386 -0.5797
 8053TIP3    H145650   3.458   5.381   2.075  0.2391 -0.7261  0.3513
 8053TIP3    H245651   3.336   5.370   2.163  0.2325  0.4717  0.4925
 8054TIP3   OH245652   5.455   2.425   1.059  0.3809  0.3870  0.1473
 8054TIP3    H145653   5.470   2.437   0.966  0.2323 -1.9761 -0.2194
 8054TIP3    H245654   5.543   2.419   1.097  0.4367  0.9436  0.1146
 8055TIP3   OH245655   5.398   0.958  16.520 -0.0313  0.2079 -0.3310
 8055TIP3    H145656   5.441   0.959  16.435 -0.9446  0.9537 -0.7984
 8055TIP3    H245657   5.352   1.042  16.524  0.4322  0.4086  1.1145
 8056TIP3   OH245658   3.465   4.448   3.283 -0.6972  0.1308  0.1660
 8056TIP3    H145659   3.546   4.489   3.315 -1.0118  0.3592  0.6755
 8056TIP3    H245660   3.415   4.521   3.246 -0.7237  0.0073 -0.0447
 8057TIP3   OH245661   2.223   1.685   4.306  0.4189  0.3998  0.0391
 8057TIP3    H145662   2.224   1.724   4.219 -0.2970 -1.5260 -0.8709
 8057TIP3    H245663   2.192   1.755   4.364 -0.1656  1.3697 -1.4229
 8058TIP3   OH245664   1.130   2.598  16.360  0.2281 -0.2388  0.2896
 8058TIP3    H145665   1.052   2.643  16.328 -0.0926  0.0236  1.4298
 8058TIP3    H245666   1.185   2.667  16.398  0.0283 -0.7021  1.4519
 8059TIP3   OH245667   1.508   0.761  10.454 -0.4732 -0.0208 -0.3868
 8059TIP3    H145668   1.465   0.806  10.527 -0.7968 -0.6852 -0.1639
 8059TIP3    H245669   1.491   0.668  10.470 -1.9380 -0.0879 -2.1611
 8060TIP3   OH245670   0.850   4.539   5.047  0.8108  0.1441  0.8326
 8060TIP3    H145671   0.812   4.503   5.127  0.2308  1.9927  1.4145
 8060TIP3    H245672   0.940   4.560   5.070  1.3399 -1.5265  0.3048
 8061TIP3   OH245673   5.940   4.120   4.264 -0.0780 -0.1043 -0.8381
 8061TIP3    H145674   5.888   4.052   4.306 -0.8972  0.2199 -1.3273
 8061TIP3    H245675   5.889   4.146   4.188  0.1254  1.2201 -0.5272
 8062TIP3   OH245676   4.609   5.483   2.153  0.1721  0.0302  0.6233
 8062TIP3    H145677   4.686   5.476   2.096  0.6473 -0.6325  1.3444
 8062TIP3    H245678   4.583   5.575   2.146  0.8458  0.1901  0.1381
 8063TIP3   OH245679   6.302   2.104   6.709 -0.4665 -0.3442  0.2309
 8063TIP3    H145680   6.208   2.096   6.725 -0.4665  0.1312  0.4877
 8063TIP3    H245681   6.317   2.055   6.629 -1.4442  2.1707 -1.5459
 8064TIP3   OH245682   6.781   6.347   5.560 -0.3605  0.2035  0.0703
 8064TIP3    H145683   6.783   6.356   5.655 -2.2529  1.1645  0.0503
 8064TIP3    H245684   6.702   6.394   5.534 -0.6023 -1.2294 -1.8606
 8065TIP3   OH245685   5.885   5.620  12.823  0.2896  0.1923  0.2043
 8065TIP3    H145686   5.925   5.543  12.783 -0.1805 -0.7393  1.5304
 8065TIP3    H245687   5.832   5.658  12.753  0.2037 -0.9114 -0.3383
 8066TIP3   OH245688   2.432   0.338   5.231  0.8001 -0.3513  0.1434
 8066TIP3    H145689   2.359   0.310   5.175  0.4886  0.3137  0.2186
 8066TIP3    H245690   2.508   0.292   5.195  0.5667 -0.0863 -0.7118
 8067TIP3   OH245691   0.528   3.002   6.689 -0.4022 -0.1826 -0.1282
 8067TIP3    H145692   0.466   3.024   6.758 -3.0697 -0.6257 -2.3194
 8067TIP3    H245693   0.588   2.940   6.730 -0.3918  1.4666  2.4767
 8068TIP3   OH245694   0.059   0.877  13.764 -0.8666 -0.2474 -0.2063
 8068TIP3    H145695  -0.009   0.943  13.775 -0.9995 -0.3455 -0.4392
 8068TIP3    H245696   0.050   0.848  13.673  1.3986  1.8221 -1.1214
 8069TIP3   OH245697   0.915   2.726  12.060  0.2811  0.1342 -0.4337
 8069TIP3    H145698   0.857   2.695  12.129 -0.1490 -0.5383 -1.0841
 8069TIP3    H245699   0.922   2.821  12.075 -0.5926  0.1416 -0.0580
 8070TIP3   OH245700   6.031   5.374  16.092  0.3910  0.1166 -0.0072
 8070TIP3    H145701   6.032   5.391  15.997 -1.4600  0.5087  0.0202
 8070TIP3    H245702   5.999   5.284  16.100  0.2206  0.1963  0.2406
 8071TIP3   OH245703   6.502   2.802  12.329  0.3100 -0.0229 -0.4642
 8071TIP3    H145704   6.465   2.756  12.253  0.1343 -2.1584  0.8565
 8071TIP3    H245705   6.569   2.859  12.292  0.3300 -1.1448 -2.2315
 8072TIP3   OH245706   5.148   4.128   5.379 -0.1412  0.2439 -0.5637
 8072TIP3    H145707   5.130   4.134   5.285 -1.5388  4.3410 -0.1145
 8072TIP3    H245708   5.233   4.170   5.389 -0.0451 -0.0967  0.0705
 8073TIP3   OH245709   0.104   5.761   1.985  0.2244  0.0033  0.2513
 8073TIP3    H145710   0.167   5.833   1.990  0.0746  0.4224 -2.8798
 8073TIP3    H245711   0.020   5.805   1.968 -0.1391 -0.8279 -0.1199
 8074TIP3   OH245712   5.911   6.435   2.049 -0.8267  0.3312  0.2418
 8074TIP3    H145713   5.871   6.348   2.060 -1.8686  0.7205 -0.4345
 8074TIP3    H245714   5.855   6.494   2.098 -1.2739  0.9310 -0.9689
 8075TIP3   OH245715   0.747   3.899  13.667 -0.2233  0.8694  0.0838
 8075TIP3    H145716   0.799   3.929  13.741  0.4672  0.7702 -0.3592
 8075TIP3    H245717   0.799   3.922  13.590 -0.9210  0.9463 -0.3740
 8076TIP3   OH245718   5.440   5.139  16.876  0.4428 -0.1291 -0.6391
 8076TIP3    H145719   5.445   5.045  16.860 -0.4995 -0.2646 -0.1296
 8076TIP3    H245720   5.446   5.148  16.971 -1.0083  0.2252 -0.5753
 8077TIP3   OH245721   5.311   6.222  11.834  0.8476  0.2101 -0.3616
 8077TIP3    H145722   5.376   6.155  11.854  0.7966  1.1296  3.1176
 8077TIP3    H245723   5.228   6.174  11.830  0.7198  0.0994  2.7441
 8078TIP3   OH245724   2.216   5.146  16.281 -0.0587  0.0465 -0.4978
 8078TIP3    H145725   2.298   5.110  16.248  0.5687  0.6542  0.3825
 8078TIP3    H245726   2.216   5.237  16.252 -0.5355 -0.0266 -0.7166
 8079TIP3   OH245727   4.992   1.351   2.260 -0.6707  0.3180 -0.6162
 8079TIP3    H145728   4.917   1.293   2.270 -1.6924  1.7070 -0.0351
 8079TIP3    H245729   5.037   1.348   2.345 -1.6320  1.5909 -0.0461
 8080TIP3   OH245730   1.695   0.197   0.485  0.5784 -0.2307  0.0062
 8080TIP3    H145731   1.696   0.202   0.581 -1.1122  0.5482 -0.0074
 8080TIP3    H245732   1.682   0.104   0.466  0.9460 -0.3920  0.5350
 8081TIP3   OH245733   1.195   1.195   5.821  0.1642 -0.1587 -0.1791
 8081TIP3    H145734   1.219   1.234   5.737 -2.0000  2.1050  0.1852
 8081TIP3    H245735   1.174   1.104   5.799 -0.7156  0.4855 -2.1700
 8082TIP3   OH245736   3.433   0.009  13.764 -0.0740  0.5125  0.0205
 8082TIP3    H145737   3.434  -0.045  13.843  0.1548  0.4075 -0.0545
 8082TIP3    H245738   3.525   0.015  13.738 -0.2319 -0.1410 -0.7103
 8083TIP3   OH245739   0.214   4.352   1.789  0.0383 -0.8544  0.0069
 8083TIP3    H145740   0.195   4.302   1.868  0.5692 -1.7052 -0.3966
 8083TIP3    H245741   0.173   4.303   1.719  2.4561 -1.9579 -0.6939
 8084TIP3   OH245742   5.731   5.625   0.033 -0.6376 -0.0434  0.1778
 8084TIP3    H145743   5.765   5.553  -0.020 -1.3692 -0.5508  0.3953
 8084TIP3    H245744   5.717   5.696  -0.030 -1.1860 -0.5316 -0.2650
 8085TIP3   OH245745   1.523   5.913   4.813  0.2866  0.2810 -0.4834
 8085TIP3    H145746   1.548   5.942   4.725 -0.6498 -1.9617 -1.5478
 8085TIP3    H245747   1.467   5.983   4.846  0.9170  1.3079 -1.5472
 8086TIP3   OH245748   0.432   3.550  10.840  0.2450 -0.4685 -0.0914
 8086TIP3    H145749   0.360   3.488  10.826  0.3422 -0.2684 -1.5293
 8086TIP3    H245750   0.398   3.633  10.807  0.2103  0.2144  1.5915
 8087TIP3   OH245751   0.098   2.167   6.024  0.5717  0.1309  0.5526
 8087TIP3    H145752   0.080   2.106   5.953  0.1442  0.6772  0.1859
 8087TIP3    H245753   0.111   2.251   5.981 -1.7730  0.9021  1.2388
 8088TIP3   OH245754   2.985   5.955  11.547  0.4330 -0.0335 -0.6056
 8088TIP3    H145755   2.985   5.995  11.634 -2.7869 -0.6531 -0.2579
 8088TIP3    H245756   3.015   5.865  11.562 -1.1599 -0.4688  0.0644
 8089TIP3   OH245757   0.470   0.121  15.156  0.7159  0.0540 -0.1915
 8089TIP3    H145758   0.551   0.076  15.136 -0.5344 -1.9879 -0.8355
 8089TIP3    H245759   0.429   0.068  15.225  0.8215  2.1275  1.5054
 8090TIP3   OH245760   5.407   0.547   4.460  0.7581 -0.3139  0.3903
 8090TIP3    H145761   5.443   0.524   4.375  1.1972  3.4261 -0.5406
 8090TIP3    H245762   5.473   0.603   4.500 -0.7385  0.4592  1.8776
 8091TIP3   OH245763   4.012   1.993   1.424 -0.1768 -0.4599 -0.0658
 8091TIP3    H145764   4.047   1.927   1.483  1.7197 -0.9984 -1.7238
 8091TIP3    H245765   4.085   2.012   1.364 -1.0143  2.3734 -0.2525
 8092TIP3   OH245766   1.840   4.790  13.710 -0.1432  0.4445  0.3427
 8092TIP3    H145767   1.901   4.721  13.736 -0.2809 -0.6802 -2.1707
 8092TIP3    H245768   1.821   4.837  13.791 -1.0910 -3.2914  2.3711
 8093TIP3   OH245769   4.751   6.556  12.515 -0.0960  0.4573 -0.2804
 8093TIP3    H145770   4.746   6.471  12.559  0.2777  0.5744 -0.0094
 8093TIP3    H245771   4.695   6.546  12.438  0.3227 -0.1867 -0.5055
 8094TIP3   OH245772   5.349   6.458  16.301 -0.4120  0.6914  0.9575
 8094TIP3    H145773   5.443   6.442  16.309 -0.3944  1.0419  1.4701
 8094TIP3    H245774   5.310   6.371  16.302 -0.0921  0.5402  0.6887
 8095TIP3   OH245775   0.026   3.924   3.888  0.4671 -0.2140 -0.8030
 8095TIP3    H145776   0.056   3.973   3.965 -2.7231 -0.0083  0.3975
 8095TIP3    H245777   0.035   3.985   3.815  0.3097  0.7760  0.0031
 8096TIP3   OH245778   3.791   5.425  16.684  1.1034  0.1155  0.1370
 8096TIP3    H145779   3.862   5.463  16.632  0.8533  1.1665  0.5560
 8096TIP3    H245780   3.807   5.458  16.773 -1.0073  1.9065 -0.1263
 8097TIP3   OH245781   5.758   1.672   4.885  0.2460 -0.1300  0.4790
 8097TIP3    H145782   5.770   1.743   4.948  2.5671 -0.6032  0.6199
 8097TIP3    H245783   5.785   1.710   4.801 -1.7032  0.1422 -0.0414
 8098TIP3   OH245784   1.543   2.283   1.823 -0.0399  0.5949  0.2901
 8098TIP3    H145785   1.506   2.201   1.792 -0.1149  1.3536 -1.6723
 8098TIP3    H245786   1.492   2.351   1.777  3.8255  1.6856 -2.6091
 8099TIP3   OH245787   0.541   0.138   2.621  0.1604  0.0940  0.0759
 8099TIP3    H145788   0.464   0.125   2.566  0.1938 -0.3846  0.1335
 8099TIP3    H245789   0.614   0.141   2.559  0.2059 -0.5210  0.0959
 8100TIP3   OH245790   1.507   0.615   3.272  0.1084  0.2041  0.2796
 8100TIP3    H145791   1.412   0.608   3.273  0.0664  0.7281  0.2325
 8100TIP3    H245792   1.525   0.691   3.216  0.4462  1.7007  2.3428
 8101TIP3   OH245793   4.752   3.735   2.050  0.5472 -0.5222 -0.1148
 8101TIP3    H145794   4.764   3.727   2.145  0.8649 -0.3678 -0.1416
 8101TIP3    H245795   4.799   3.815   2.027 -2.7159  1.5966  0.1856
 8102TIP3   OH245796   3.130   1.212  13.201 -0.1092  0.7051  0.1719
 8102TIP3    H145797   3.163   1.261  13.126  0.0351  1.1209  0.5130
 8102TIP3    H245798   3.052   1.260  13.228 -0.4662  0.2517 -0.0450
 8103TIP3   OH245799   5.914   2.348   5.463 -0.3094  0.0672 -0.0969
 8103TIP3    H145800   5.957   2.307   5.538  0.9823 -0.5949 -1.1714
 8103TIP3    H245801   5.984   2.363   5.400 -1.6331 -1.0542 -1.9001
 8104TIP3   OH245802   4.824   4.348   5.697  0.2614 -0.0577 -0.0303
 8104TIP3    H145803   4.735   4.337   5.664 -0.2466 -0.9135  1.6131
 8104TIP3    H245804   4.874   4.378   5.621 -1.6323  1.4474 -0.7220
 8105TIP3   OH245805   0.140   0.487   5.653  0.7069  0.3081 -0.3232
 8105TIP3    H145806   0.091   0.569   5.646 -0.8003 -0.6138 -0.7248
 8105TIP3    H245807   0.146   0.470   5.747  0.3604  0.4776 -0.2712
 8106TIP3   OH245808   1.853   0.889  14.988  0.2495  0.9112 -0.2115
 8106TIP3    H145809   1.928   0.939  14.956  1.4072  0.7707  2.1849
 8106TIP3    H245810   1.874   0.798  14.966  0.1176  1.0223 -0.7981
 8107TIP3   OH245811   5.085   6.426  13.445  0.0118  0.0896  0.2797
 8107TIP3    H145812   5.010   6.416  13.503 -0.1561  0.8912  0.2163
 8107TIP3    H245813   5.151   6.472  13.498  0.4354 -0.5486  0.3141
 8108TIP3   OH245814   3.517   5.875  14.123 -0.2001 -0.6024 -0.4405
 8108TIP3    H145815   3.541   5.820  14.197  0.2331  0.5866  0.3098
 8108TIP3    H245816   3.549   5.962  14.145 -2.5512  0.3878 -0.7555
 8109TIP3   OH245817   0.122   2.751  11.265 -0.3258 -0.2969 -0.5988
 8109TIP3    H145818   0.203   2.801  11.259 -0.0900 -0.4985  0.6353
 8109TIP3    H245819   0.094   2.738  11.175  0.7918  0.1492 -1.0145
 8110TIP3   OH245820   6.599   6.508   6.122 -0.0802 -0.5582 -0.1360
 8110TIP3    H145821   6.516   6.487   6.081  0.2505 -0.1882 -1.0258
 8110TIP3    H245822   6.630   6.585   6.074  1.0214 -1.0104 -0.1604
 8111TIP3   OH245823   5.315   1.748   5.276  0.6581 -0.2014  0.3701
 8111TIP3    H145824   5.286   1.835   5.247  1.6432  0.4833  1.3843
 8111TIP3    H245825   5.235   1.705   5.307  0.3160  0.7131  0.7723
 8112TIP3   OH245826   2.156   6.163  11.498 -0.0380 -0.2326 -0.2219
 8112TIP3    H145827   2.186   6.229  11.560 -0.8380  1.1180 -1.2364
 8112TIP3    H245828   2.189   6.193  11.413 -1.0222 -0.7503 -0.8017
 8113TIP3   OH245829   2.397   3.468   5.864  0.5807 -0.5275  0.0005
 8113TIP3    H145830   2.368   3.377   5.861 -0.5224 -0.1255 -3.3336
 8113TIP3    H245831   2.492   3.464   5.850  0.1944 -1.0392 -2.5671
 8114TIP3   OH245832   2.695   2.978  13.448  0.7419  0.5576  0.6250
 8114TIP3    H145833   2.680   2.999  13.356 -0.6943 -2.1014  0.2308
 8114TIP3    H245834   2.608   2.974  13.487  1.3643  2.7186  2.4105
 8115TIP3   OH245835   6.778   5.863   4.777 -0.5292 -0.0384 -0.0641
 8115TIP3    H145836   6.800   5.936   4.719  0.3118 -0.0294  0.2521
 8115TIP3    H245837   6.863   5.829   4.806 -0.9303 -0.2614  0.8915
 8116TIP3   OH245838   2.304   5.969  15.545  0.0447 -0.2213 -0.0095
 8116TIP3    H145839   2.336   5.881  15.561 -0.0840 -0.2908 -0.1353
 8116TIP3    H245840   2.347   6.023  15.612  0.3423 -0.3309 -0.1107
 8117TIP3   OH245841   3.854   5.233  17.023  0.2016  0.0512  0.2756
 8117TIP3    H145842   3.806   5.252  17.103 -1.1208 -0.5662 -0.3560
 8117TIP3    H245843   3.876   5.320  16.987 -0.8983  0.3455  0.2967
 8118TIP3   OH245844   2.602   1.978  10.471 -0.0965  0.3838  0.2733
 8118TIP3    H145845   2.667   2.009  10.534 -0.2904  0.1349  0.6006
 8118TIP3    H245846   2.584   1.888  10.497 -1.1866  0.7091  0.7061
 8119TIP3   OH245847   3.247   0.545  12.833  0.1968 -0.0424 -0.0405
 8119TIP3    H145848   3.197   0.591  12.765  2.4511  0.1549 -1.6240
 8119TIP3    H245849   3.330   0.522  12.791  0.8049 -1.8348  2.0146
 8120TIP3   OH245850   4.549   4.843   3.024 -0.6109 -0.7073  0.2299
 8120TIP3    H145851   4.547   4.889   3.108  0.2374 -0.6424  0.2210
 8120TIP3    H245852   4.641   4.843   2.999 -0.8181 -1.0098 -0.5485
 8121TIP3   OH245853   5.366   2.520  11.432 -1.1903 -0.2849 -0.1741
 8121TIP3    H145854   5.272   2.518  11.450 -1.0701  0.3494  0.5654
 8121TIP3    H245855   5.399   2.589  11.489 -0.4001  0.0570 -1.0504
 8122TIP3   OH245856   5.854   1.543  12.137 -0.1640  0.0315 -0.4178
 8122TIP3    H145857   5.876   1.451  12.123 -1.7326 -0.1472 -1.9254
 8122TIP3    H245858   5.936   1.583  12.166  0.4707 -1.8822  0.5510
 8123TIP3   OH245859   1.193   4.395   4.895  0.1725  0.1290 -0.0597
 8123TIP3    H145860   1.268   4.436   4.937  0.9446 -0.8345 -0.5039
 8123TIP3    H245861   1.140   4.469   4.863  0.8026  0.8033  0.4527
 8124TIP3   OH245862   4.431   3.258   6.682 -0.4243  0.3713  0.4589
 8124TIP3    H145863   4.466   3.261   6.593  1.6564  0.6296  1.2547
 8124TIP3    H245864   4.443   3.347   6.715 -0.9630  0.2114  1.0972
 8125TIP3   OH245865   4.534   1.602   2.487 -0.1786 -0.1026  0.7420
 8125TIP3    H145866   4.576   1.537   2.543 -0.7149 -1.2504 -0.1740
 8125TIP3    H245867   4.444   1.573   2.480 -0.0977 -0.0196 -0.7920
 8126TIP3   OH245868   4.008   4.104  12.673 -0.3672 -0.2360 -0.3941
 8126TIP3    H145869   4.023   4.153  12.592 -1.6746 -0.8742 -1.0411
 8126TIP3    H245870   4.072   4.033  12.670  2.1503  1.9122  0.9802
 8127TIP3   OH245871   0.015   1.165   1.890 -0.5795 -0.1118  0.5236
 8127TIP3    H145872   0.077   1.106   1.934 -2.6811 -1.2515  2.0590
 8127TIP3    H245873  -0.008   1.230   1.957 -2.7762 -1.0628  0.7283
 8128TIP3   OH245874   0.127   5.154  15.788  0.0200  0.0909 -1.0300
 8128TIP3    H145875   0.223   5.155  15.790 -0.0010  2.5943  0.5077
 8128TIP3    H245876   0.105   5.061  15.780  2.5573 -0.5902 -0.7587
 8129TIP3   OH245877   5.123   3.048  16.367  0.3968 -0.2189 -0.0797
 8129TIP3    H145878   5.123   2.954  16.388 -1.2115 -0.4875 -1.1143
 8129TIP3    H245879   5.210   3.065  16.332  0.4015 -1.5582 -0.7738
 8130TIP3   OH245880   0.930   6.210  11.465 -0.4922 -0.4403  0.6650
 8130TIP3    H145881   0.899   6.127  11.501 -1.0274 -0.0656  1.0779
 8130TIP3    H245882   0.878   6.276  11.510  1.3886  0.2474  1.8453
 8131TIP3   OH245883   3.996   2.969  15.280  0.2809  0.4091 -0.4763
 8131TIP3    H145884   4.059   2.907  15.243 -0.4563 -1.2078  0.8920
 8131TIP3    H245885   3.926   2.974  15.215  0.3455 -0.1901 -0.5961
 8132TIP3   OH245886   2.136   1.875  14.344  0.2378  0.0250  0.9759
 8132TIP3    H145887   2.090   1.905  14.422 -0.0510  2.5239 -0.1140
 8132TIP3    H245888   2.228   1.896  14.360  0.4819 -1.3897  1.5041
 8133TIP3   OH245889   2.174   4.143   1.978  0.2691 -0.5389 -0.1650
 8133TIP3    H145890   2.213   4.164   1.893  1.6203  0.0664  0.5883
 8133TIP3    H245891   2.090   4.187   1.978 -0.9432 -2.7267 -2.2468
 8134TIP3   OH245892   3.025   1.132   2.592 -0.0728 -0.1291  0.0169
 8134TIP3    H145893   3.072   1.175   2.663 -1.3418  0.7116  0.3590
 8134TIP3    H245894   2.933   1.130   2.620 -0.9544  2.1119 -2.4548
 8135TIP3   OH245895   2.145   3.627  15.980  0.0125  0.1713 -0.3207
 8135TIP3    H145896   2.205   3.666  15.918  0.9423 -0.1019  0.3870
 8135TIP3    H245897   2.103   3.701  16.024 -0.3844  0.3612 -1.0275
 8136TIP3   OH245898   0.497   4.406   5.585 -0.1956  0.1815  0.3517
 8136TIP3    H145899   0.516   4.487   5.632 -0.5645  0.4602  0.0245
 8136TIP3    H245900   0.576   4.354   5.595  0.8180  1.3970 -1.1575
 8137TIP3   OH245901   4.695   3.443  12.651 -0.0485  0.1987 -0.8042
 8137TIP3    H145902   4.651   3.516  12.695  1.1574  1.4576 -1.6512
 8137TIP3    H245903   4.732   3.391  12.722  0.5018  1.3297 -0.2555
 8138TIP3   OH245904   2.339   1.130  11.328  0.2599 -0.3581 -0.4730
 8138TIP3    H145905   2.325   1.155  11.419  2.5594 -0.8916  0.0707
 8138TIP3    H245906   2.294   1.197  11.277 -0.6981  0.1783  1.0469
 8139TIP3   OH245907   3.451   2.221  16.411  0.5253  0.2507 -0.1033
 8139TIP3    H145908   3.435   2.291  16.475  0.8620  0.7561 -0.5616
 8139TIP3    H245909   3.506   2.262  16.344  1.1927 -0.6116 -0.0983
 8140TIP3   OH245910   1.055   5.288   1.543  0.1722  0.0991  0.4769
 8140TIP3    H145911   1.104   5.245   1.474  0.6655  0.4304  0.6191
 8140TIP3    H245912   1.078   5.239   1.623  0.7060  0.6010  0.6330
 8141TIP3   OH245913   0.148   6.802  15.867 -0.3468  0.9869  0.4874
 8141TIP3    H145914   0.235   6.792  15.905  0.4779  1.2893 -1.3301
 8141TIP3    H245915   0.116   6.712  15.856  0.0829  0.8538  0.3394
 8142TIP3   OH245916   2.248   0.805  11.962  0.5038 -0.1251  0.3442
 8142TIP3    H145917   2.284   0.891  11.983 -1.5680  1.0547 -0.7973
 8142TIP3    H245918   2.170   0.824  11.910 -1.9099 -2.5537  2.9007
 8143TIP3   OH245919   3.995   4.303   2.361 -0.6332  0.5876  0.3500
 8143TIP3    H145920   3.928   4.238   2.379  0.9022 -1.0687  0.1893
 8143TIP3    H245921   3.993   4.313   2.265 -0.5912  0.4631  0.3356
 8144TIP3   OH245922   1.117   3.401   2.045 -0.3925 -0.1023  0.0207
 8144TIP3    H145923   1.105   3.394   1.951  0.2471 -2.3065  0.0619
 8144TIP3    H245924   1.032   3.378   2.082 -0.5407  0.3915 -0.0167
 8145TIP3   OH245925   4.628   0.853  12.305 -0.6001 -0.2048 -0.4394
 8145TIP3    H145926   4.620   0.759  12.323 -0.2076 -0.3361 -0.9614
 8145TIP3    H245927   4.582   0.895  12.378 -0.3519 -0.7904  0.0558
 8146TIP3   OH245928   4.790   0.886   3.175  0.5146  0.2723 -0.3069
 8146TIP3    H145929   4.781   0.820   3.106 -3.4638 -1.1894  1.4541
 8146TIP3    H245930   4.750   0.965   3.138  1.9286  0.6744 -1.0385
 8147TIP3   OH245931   4.406   5.570   3.330 -0.5921 -0.1141 -0.0233
 8147TIP3    H145932   4.336   5.523   3.285 -0.3210  0.9215 -1.5683
 8147TIP3    H245933   4.378   5.574   3.421 -1.7188 -1.2297 -0.3152
 8148TIP3   OH245934   0.197   2.634   6.056 -0.2187 -0.3500 -0.8221
 8148TIP3    H145935   0.118   2.687   6.044 -1.5590 -1.7556  1.3853
 8148TIP3    H245936   0.208   2.588   5.973  0.1039  2.2465 -2.2338
 8149TIP3   OH245937   2.048   0.367  10.666 -0.2185  0.4379 -0.5845
 8149TIP3    H145938   1.971   0.391  10.614 -0.0856  2.1791 -0.0193
 8149TIP3    H245939   2.068   0.446  10.716 -0.4464 -1.2238  2.2601
 8150TIP3   OH245940   2.579   5.287  11.909  0.3334  0.2933  0.1171
 8150TIP3    H145941   2.529   5.275  11.990  0.6853  0.9735  0.4348
 8150TIP3    H245942   2.653   5.342  11.935  1.4909 -1.0726 -0.2564
 8151TIP3   OH245943   4.556   6.477   3.077 -0.3023 -0.3467  0.1417
 8151TIP3    H145944   4.583   6.487   3.168  1.5805 -1.8862 -0.2063
 8151TIP3    H245945   4.497   6.401   3.078 -0.1585 -0.4595  0.0671
 8152TIP3   OH245946   3.744   2.376   3.326  0.3948  0.3712  1.1997
 8152TIP3    H145947   3.668   2.374   3.385 -1.7282  1.4682 -1.3750
 8152TIP3    H245948   3.787   2.459   3.345 -0.0662  0.5544  1.4546
 8153TIP3   OH245949   3.360   5.190   4.619  0.0860  0.1504  0.1239
 8153TIP3    H145950   3.448   5.152   4.621  1.1310  2.4969  0.6586
 8153TIP3    H245951   3.331   5.180   4.529  0.2099 -2.1263  0.3136
 8154TIP3   OH245952   2.902   4.114  12.737 -0.2113 -0.0533 -0.0983
 8154TIP3    H145953   2.994   4.118  12.710 -0.0736 -1.6108  0.0824
 8154TIP3    H245954   2.854   4.098  12.655 -0.3014  0.6346 -0.1752
 8155TIP3   OH245955   5.424   1.867   4.868  0.4479  0.2560  0.1837
 8155TIP3    H145956   5.501   1.833   4.913 -0.4836  0.5859  2.0824
 8155TIP3    H245957   5.350   1.821   4.908 -0.4392  0.7811 -0.7996
 8156TIP3   OH245958   4.257   4.010   6.580  0.6255 -0.1538 -0.0102
 8156TIP3    H145959   4.337   3.969   6.613  0.5995 -0.7208 -0.6379
 8156TIP3    H245960   4.255   3.988   6.487 -0.2545 -0.1434 -0.0049
 8157TIP3   OH245961   5.682   5.999   0.258  0.3291 -0.1534  0.2648
 8157TIP3    H145962   5.668   5.972   0.167 -0.8441 -0.3353  0.4820
 8157TIP3    H245963   5.765   6.046   0.257  0.8655 -1.1058 -0.7013
 8158TIP3   OH245964   3.178   3.812   4.567 -0.5336 -0.1997 -0.0325
 8158TIP3    H145965   3.114   3.787   4.633 -0.8014 -1.0710 -0.6209
 8158TIP3    H245966   3.141   3.890   4.526 -1.3865 -0.8858 -0.5953
 8159TIP3   OH245967   0.473   3.606  14.817 -0.2410  0.4198 -0.4900
 8159TIP3    H145968   0.546   3.629  14.760 -0.2096 -1.0168 -1.0554
 8159TIP3    H245969   0.412   3.679  14.809 -0.5289 -0.0385 -2.8644
 8160TIP3   OH245970   4.805   2.734  12.047  0.2406 -0.4103 -0.4208
 8160TIP3    H145971   4.826   2.657  11.994  0.6713  0.0506 -0.9256
 8160TIP3    H245972   4.739   2.703  12.109 -0.8408 -0.7563 -1.7397
 8161TIP3   OH245973   3.738   5.742   0.750 -0.0955 -0.1814 -0.0358
 8161TIP3    H145974   3.696   5.671   0.798  2.4599 -0.5581  1.7181
 8161TIP3    H245975   3.681   5.817   0.763 -1.3488 -1.2051  0.4516
 8162TIP3   OH245976   2.425   4.361  15.696 -0.3223  0.3445  0.6902
 8162TIP3    H145977   2.472   4.433  15.737  1.1591 -0.3792  0.3251
 8162TIP3    H245978   2.463   4.282  15.735 -1.4195 -0.2558  0.5682
 8163TIP3   OH245979   3.195   6.582   0.048  0.5751 -0.0631  0.7376
 8163TIP3    H145980   3.285   6.614   0.053  0.7236 -0.1602 -1.0763
 8163TIP3    H245981   3.198   6.510  -0.016 -1.0932  1.0570 -0.6555
 8164TIP3   OH245982   1.951   5.670  12.585 -0.5207  0.0371 -0.1106
 8164TIP3    H145983   1.987   5.591  12.625 -1.2848 -0.8361 -1.1355
 8164TIP3    H245984   2.026   5.731  12.581  0.3155 -0.9845 -0.2305
 8165TIP3   OH245985   1.393   0.012  11.488  0.5277 -0.4583  0.4677
 8165TIP3    H145986   1.323   0.036  11.428  0.3648  0.4026  1.0026
 8165TIP3    H245987   1.448  -0.048  11.437  0.4306  0.3184 -0.5661
 8166TIP3   OH245988   1.951   2.994  14.193 -0.1158 -0.2832 -1.1357
 8166TIP3    H145989   1.978   3.038  14.274 -0.4008 -0.1085 -1.1345
 8166TIP3    H245990   1.877   3.046  14.162  0.6632  0.2919 -2.0829
 8167TIP3   OH245991   2.135   6.125   2.859  0.3210  0.7206 -0.3629
 8167TIP3    H145992   2.110   6.194   2.921  1.6861  0.2873  0.6913
 8167TIP3    H245993   2.199   6.166   2.802  1.8126  0.0912  0.8323
 8168TIP3   OH245994   6.233   2.573  13.270  0.5257  0.3655 -0.0657
 8168TIP3    H145995   6.151   2.528  13.289  0.1997  1.5584  1.5262
 8168TIP3    H245996   6.273   2.522  13.200 -0.3404 -1.7394  0.9255
 8169TIP3   OH245997   3.788   2.930   4.234 -0.3076 -0.2137 -0.6452
 8169TIP3    H145998   3.756   2.920   4.324  0.2361  0.4358 -0.3794
 8169TIP3    H245999   3.843   2.853   4.220 -0.8345 -0.5975 -0.6100
 8170TIP3   OH246000   3.791   0.442   2.198  0.4047  0.5123  0.4076
 8170TIP3    H146001   3.721   0.403   2.145  1.8782 -1.4653 -0.0943
 8170TIP3    H246002   3.871   0.428   2.147  1.1358  3.2719  0.7032
 8171TIP3   OH246003   2.522   0.956   4.019 -0.0739 -0.6936  0.0377
 8171TIP3    H146004   2.614   0.959   3.991 -0.2530 -0.3718 -0.5140
 8171TIP3    H246005   2.506   1.041   4.060 -0.5158 -0.2143 -1.1054
 8172TIP3   OH246006   4.341   5.135  16.925  0.0059  0.6347  0.0985
 8172TIP3    H146007   4.373   5.177  16.845  1.6326 -0.4722  0.1242
 8172TIP3    H246008   4.249   5.117  16.908 -0.5403  3.4668 -0.2121
 8173TIP3   OH246009   4.715   4.495   1.691  0.1510  0.5946 -0.1646
 8173TIP3    H146010   4.662   4.463   1.764  1.4321 -0.1231  0.4499
 8173TIP3    H246011   4.779   4.553   1.731  0.0677  1.1749 -0.8708
 8174TIP3   OH246012   0.733   3.775  11.623 -0.2122  0.1025 -0.1405
 8174TIP3    H146013   0.717   3.862  11.587 -0.5997  0.1636  0.1657
 8174TIP3    H246014   0.827   3.762  11.616 -0.3006  0.0790 -1.2275
 8175TIP3   OH246015   4.995   0.389   4.168 -0.0582 -0.0097  0.0337
 8175TIP3    H146016   4.909   0.359   4.197 -0.6282  1.2019 -0.3999
 8175TIP3    H246017   5.055   0.322   4.201 -0.9025  0.2846  2.2999
 8176TIP3   OH246018   0.598   0.991   3.817 -0.3708  0.6501  0.0099
 8176TIP3    H146019   0.607   0.896   3.819 -2.5420  0.4030 -0.3945
 8176TIP3    H246020   0.609   1.013   3.724  0.4658  0.8330  0.1521
 8177TIP3   OH246021   3.824   2.340   5.870 -0.0908  0.1255  0.1111
 8177TIP3    H146022   3.789   2.426   5.847  0.6742  0.1575 -0.9478
 8177TIP3    H246023   3.851   2.349   5.962  2.7994  1.9381 -0.8683
 8178TIP3   OH246024   4.994   0.798  17.013  0.4950  0.0230  0.1395
 8178TIP3    H146025   5.087   0.803  16.991  1.1291  1.8525  2.9879
 8178TIP3    H246026   4.957   0.879  16.977  0.0710 -0.4856 -0.5857
 8179TIP3   OH246027   2.495   0.575   1.843 -0.2475 -0.4135 -0.1297
 8179TIP3    H146028   2.555   0.642   1.876 -0.0672 -0.3803 -0.5137
 8179TIP3    H246029   2.499   0.504   1.908 -1.4051  0.4747  0.9240
 8180TIP3   OH246030   3.587   2.077   0.260  0.6325 -0.2921 -0.4555
 8180TIP3    H146031   3.552   2.067   0.171  0.6393 -0.6029 -0.4244
 8180TIP3    H246032   3.649   2.150   0.253 -1.6992  1.7992 -0.0122
 8181TIP3   OH246033   3.235   0.885   4.883 -0.3162 -0.0834 -0.9005
 8181TIP3    H146034   3.162   0.929   4.927 -1.1004 -3.0341  0.9032
 8181TIP3    H246035   3.296   0.862   4.953  0.7078 -0.6624 -1.9553
 8182TIP3   OH246036   3.561   3.257   3.820  0.2942  0.3468  0.0455
 8182TIP3    H146037   3.479   3.247   3.868 -1.5264  0.3864 -2.9184
 8182TIP3    H246038   3.605   3.331   3.861 -1.3340  0.5392  1.4541
 8183TIP3   OH246039   0.887   0.630  13.269  0.3284  0.3574  0.0612
 8183TIP3    H146040   0.963   0.655  13.322  2.2855 -1.2901 -1.8839
 8183TIP3    H246041   0.872   0.537  13.290  0.4868 -0.0321 -1.5176
 8184TIP3   OH246042   0.365   2.310   6.541  0.4050 -0.7371  0.2181
 8184TIP3    H146043   0.420   2.299   6.619  1.5762  0.3509 -0.4171
 8184TIP3    H246044   0.428   2.324   6.470 -0.6673 -1.0648 -0.8060
 8185TIP3   OH246045   3.345   6.722  15.343 -0.3468  1.0194 -0.0085
 8185TIP3    H146046   3.399   6.800  15.330  2.7995 -0.9241  0.7809
 8185TIP3    H246047   3.317   6.727  15.434  2.6408 -0.3796  1.0385
 8186TIP3   OH246048   2.550   6.212   3.622 -0.4979  0.1103  0.2444
 8186TIP3    H146049   2.593   6.249   3.544 -0.2619 -0.2600  0.1971
 8186TIP3    H246050   2.560   6.279   3.689 -1.6973  0.9085 -0.3619
 8187TIP3   OH246051   5.464   6.739  17.125 -0.1517 -0.0343 -0.0964
 8187TIP3    H146052   5.458   6.820  17.075 -2.2902  2.1074  3.3912
 8187TIP3    H246053   5.374   6.723  17.155  0.6706 -2.4039  1.2446
 8188TIP3   OH246054   3.594   2.685   0.540  0.4002 -0.2781 -0.2996
 8188TIP3    H146055   3.529   2.741   0.583  2.0937  0.0802  1.9303
 8188TIP3    H246056   3.666   2.745   0.517  0.7267 -0.9611 -1.0812
 8189TIP3   OH246057   1.894   3.569  16.965  0.1547  0.0407 -0.1588
 8189TIP3    H146058   1.981   3.574  17.005 -0.2638 -3.0696  1.3024
 8189TIP3    H246059   1.835   3.554  17.039 -1.3781  0.0813 -1.3573
 8190TIP3   OH246060   2.427   0.557  12.833  0.3045  0.6904 -0.4722
 8190TIP3    H146061   2.518   0.548  12.862  1.0144 -0.6743 -2.9509
 8190TIP3    H246062   2.386   0.473  12.855 -0.2871  1.2043  0.4016
 8191TIP3   OH246063   1.173   3.447   4.717 -0.3647 -0.0926 -0.3920
 8191TIP3    H146064   1.139   3.441   4.628  2.5543  1.9508 -1.7176
 8191TIP3    H246065   1.237   3.518   4.714  1.8300 -1.8052  2.6624
 8192TIP3   OH246066   3.635   1.873   4.021  0.4317 -0.0337 -0.0341
 8192TIP3    H146067   3.619   1.807   3.953  0.0324 -0.1519  0.1730
 8192TIP3    H246068   3.571   1.853   4.090 -0.4495  1.2623 -0.4626
 8193TIP3   OH246069   6.399   4.390  16.546  0.7639  0.0605  0.0171
 8193TIP3    H146070   6.476   4.396  16.602  0.8082 -1.7248  0.1717
 8193TIP3    H246071   6.325   4.405  16.605  0.7892 -2.1549  0.6444
 8194TIP3   OH246072   4.836   6.295  11.008 -0.1309 -0.1189  0.3594
 8194TIP3    H146073   4.904   6.295  10.940  0.0023  0.5155  0.4889
 8194TIP3    H246074   4.882   6.315  11.089  0.0447 -3.0403  1.0071
 8195TIP3   OH246075   5.426   3.246   3.776  0.5013 -0.9650 -0.3161
 8195TIP3    H146076   5.520   3.228   3.776  0.8513  0.7029  0.0534
 8195TIP3    H246077   5.414   3.307   3.849 -0.8895 -1.2695 -0.2836
 8196TIP3   OH246078   0.469   4.499   1.754 -0.6844  0.0865  0.5873
 8196TIP3    H146079   0.375   4.486   1.763 -0.4021 -0.2102  3.7813
 8196TIP3    H246080   0.488   4.574   1.811  1.3838 -1.6655  2.2937
 8197TIP3   OH246081   3.722   4.117  15.214  0.5771 -0.0794  0.0787
 8197TIP3    H146082   3.664   4.192  15.205 -0.3869 -1.0362 -2.0584
 8197TIP3    H246083   3.787   4.144  15.278 -1.4472  1.4937  1.5261
 8198TIP3   OH246084   2.241   5.607   1.433  0.3176  0.0956 -0.0779
 8198TIP3    H146085   2.272   5.522   1.466  1.5261  0.6637  0.2660
 8198TIP3    H246086   2.272   5.611   1.343  0.6686  0.3750  0.0547
 8199TIP3   OH246087   3.739   2.272   0.494 -0.1524 -0.0981  0.2303
 8199TIP3    H146088   3.829   2.250   0.518 -0.4390 -0.4029  1.0490
 8199TIP3    H246089   3.743   2.289   0.400  0.5290 -1.2775  0.0405
 8200TIP3   OH246090   5.518   3.224  13.021  0.1242  0.2694 -0.7636
 8200TIP3    H146091   5.546   3.211  13.112 -0.7402 -0.7975 -0.6432
 8200TIP3    H246092   5.534   3.317  13.005 -1.4478  0.8950  1.0762
 8201TIP3   OH246093   1.002   3.258  12.362 -0.5585  0.5312  0.2356
 8201TIP3    H146094   0.993   3.249  12.267 -1.7240  1.4732  0.2491
 8201TIP3    H246095   0.912   3.266  12.394 -0.1461  0.6742  1.3803
 8202TIP3   OH246096   2.657   5.237   5.486 -0.6285 -0.3936  0.3327
 8202TIP3    H146097   2.745   5.245   5.450 -1.1924  1.3125 -0.7659
 8202TIP3    H246098   2.644   5.317   5.536 -1.5563 -0.6280  0.4752
 8203TIP3   OH246099   4.096   0.956  16.125  0.2768  0.3729 -0.1639
 8203TIP3    H146100   4.057   0.944  16.039 -2.7444 -2.6272  1.4962
 8203TIP3    H246101   4.022   0.970  16.184  2.0957  0.1989  2.2845
 8204TIP3   OH246102   3.783   5.942   1.339  0.2226  0.5661  0.1151
 8204TIP3    H146103   3.860   5.998   1.348 -0.5153  1.4701  0.9536
 8204TIP3    H246104   3.709   6.000   1.356 -0.6609 -0.2382 -0.9485
 8205TIP3   OH246105   5.844   1.957  15.040 -0.2951  0.5107 -0.7649
 8205TIP3    H146106   5.785   2.026  15.010  0.4963  1.1838 -0.7970
 8205TIP3    H246107   5.879   1.919  14.959 -1.4162 -0.5423 -0.7694
 8206TIP3   OH246108   4.852   6.412   3.451 -0.2974 -0.0036  0.0056
 8206TIP3    H146109   4.813   6.353   3.516  0.5886  1.0449  1.5425
 8206TIP3    H246110   4.786   6.481   3.439 -0.1123  0.2547  0.4503
 8207TIP3   OH246111   1.539   1.192   4.163  0.6009  0.2207  0.0624
 8207TIP3    H146112   1.463   1.243   4.190 -0.0838 -0.5983 -0.2893
 8207TIP3    H246113   1.612   1.230   4.212  0.0197  1.1962  0.1853
 8208TIP3   OH246114   2.659   1.057   2.938  0.1300  0.2831 -0.1600
 8208TIP3    H146115   2.590   1.027   2.878  1.2124 -0.0975 -1.2235
 8208TIP3    H246116   2.653   0.996   3.013 -1.5601  1.0790  0.3824
 8209TIP3   OH246117   0.696   0.734   5.452  0.1207  0.6837 -0.3294
 8209TIP3    H146118   0.745   0.652   5.445 -0.6234  0.4252 -3.1333
 8209TIP3    H246119   0.762   0.801   5.468  0.9187 -0.2193  0.1793
 8210TIP3   OH246120   5.248   2.401  12.414  0.2373 -0.0584  0.4378
 8210TIP3    H146121   5.334   2.390  12.373 -0.1043  0.1296 -0.3492
 8210TIP3    H246122   5.254   2.484  12.460  0.6875 -0.3597  0.9308
 8211TIP3   OH246123   4.161   5.955  16.354  0.3532 -0.0974 -0.7979
 8211TIP3    H146124   4.091   5.980  16.293 -0.4758  2.1374  0.9774
 8211TIP3    H246125   4.178   5.863  16.335 -2.2763 -0.3767 -2.0481
 8212TIP3   OH246126   3.956   4.855  13.792  0.6948 -0.2287 -0.2939
 8212TIP3    H146127   3.876   4.808  13.816  0.5362 -0.3673 -1.0748
 8212TIP3    H246128   4.016   4.838  13.864 -0.6310  1.5322  1.2872
 8213TIP3   OH246129   4.338   5.118  13.663 -0.5385 -0.8540  0.1400
 8213TIP3    H146130   4.269   5.166  13.617 -0.3969 -0.6072  0.1870
 8213TIP3    H246131   4.380   5.066  13.595  0.1015  0.0114 -0.1360
 8214TIP3   OH246132   3.927   2.297   3.781 -0.0190  0.0474 -0.2935
 8214TIP3    H146133   3.871   2.222   3.764 -1.2551  1.0393 -0.6357
 8214TIP3    H246134   3.906   2.359   3.711  0.9103  0.7571  0.0460
 8215TIP3   OH246135   2.099   6.090  10.988 -0.7009 -0.2120  0.8045
 8215TIP3    H146136   2.112   6.007  10.943  0.8492 -0.1695  1.1646
 8215TIP3    H246137   2.179   6.139  10.973 -1.0846  0.7123  1.6880
 8216TIP3   OH246138   4.462   3.645   5.611 -0.0278 -0.6373 -0.3082
 8216TIP3    H146139   4.395   3.580   5.590 -0.5736  0.0272 -0.6644
 8216TIP3    H246140   4.544   3.606   5.580 -0.1867 -1.6423  0.5419
 8217TIP3   OH246141   0.620   4.260  13.697 -0.9971 -0.0663 -0.1950
 8217TIP3    H146142   0.563   4.283  13.623 -1.8510  0.0644  0.4881
 8217TIP3    H246143   0.581   4.181  13.734  0.3176 -1.0265 -0.8118
 8218TIP3   OH246144   4.737   5.904   2.550 -0.2484 -0.2676 -0.0393
 8218TIP3    H146145   4.661   5.917   2.606  0.7177  0.1313  1.2006
 8218TIP3    H246146   4.754   5.990   2.512  0.1530 -0.1346  0.4333
 8219TIP3   OH246147   6.624   0.195   4.578 -0.0325 -0.7688 -0.2738
 8219TIP3    H146148   6.591   0.285   4.582 -2.0166 -1.5764  3.5058
 8219TIP3    H246149   6.719   0.204   4.586 -0.0533  1.0368 -1.5767
 8220TIP3   OH246150   0.362   1.778   1.779  1.0984  0.4346  0.1013
 8220TIP3    H146151   0.313   1.707   1.738 -0.1588  2.7098 -2.4508
 8220TIP3    H246152   0.337   1.774   1.871 -1.8585 -0.1072 -0.6890
 8221TIP3   OH246153   2.539   2.633  13.262  0.5711 -0.0971 -0.2213
 8221TIP3    H146154   2.470   2.698  13.252  0.5252 -0.2787 -1.1270
 8221TIP3    H246155   2.620   2.680  13.243  0.4695 -0.4814 -1.6517
 8222TIP3   OH246156   4.035   4.287   4.564 -0.4625  0.7294 -0.5609
 8222TIP3    H146157   4.085   4.207   4.545  1.2898  1.4293  0.9317
 8222TIP3    H246158   3.963   4.257   4.619 -0.1923  0.0839 -0.5542
 8223TIP3   OH246159   2.452   1.311   5.527  0.0386 -0.3315 -0.1344
 8223TIP3    H146160   2.432   1.400   5.558  0.2375 -0.5598  0.6662
 8223TIP3    H246161   2.548   1.306   5.529  0.1486  0.2831 -2.6080
 8224TIP3   OH246162   0.959   5.946   4.305 -0.0063  0.0076  0.0122
 8224TIP3    H146163   0.937   5.968   4.215 -0.2545  1.2774  0.3736
 8224TIP3    H246164   0.892   5.990   4.358  1.2276  0.8647  0.9110
 8225TIP3   OH246165   6.769   5.441   3.738  0.4502  0.1889  0.5140
 8225TIP3    H146166   6.718   5.491   3.802 -0.2255  1.2207 -0.8105
 8225TIP3    H246167   6.842   5.405   3.788 -0.7344 -0.0343  2.1121
 8226TIP3   OH246168   5.775   5.040  15.100 -0.6351  0.4827  0.0220
 8226TIP3    H146169   5.687   5.026  15.066 -0.3012 -1.3329 -0.1254
 8226TIP3    H246170   5.833   5.013  15.029  0.0370 -0.3057  0.8492
 8227TIP3   OH246171   4.123   3.691  11.672 -0.2725 -0.0058 -0.1300
 8227TIP3    H146172   4.156   3.618  11.724 -0.4613  0.4400  0.6339
 8227TIP3    H246173   4.047   3.723  11.721 -0.4073  0.4726 -0.6437
 8228TIP3   OH246174   5.065   4.340   0.270  0.2346 -0.0199 -0.0233
 8228TIP3    H146175   5.067   4.436   0.269  1.2527 -0.0336 -1.5158
 8228TIP3    H246176   5.097   4.316   0.357  0.4541  0.9949  0.1840
 8229TIP3   OH246177   1.381   2.770   1.751 -0.4186 -0.3175 -0.2982
 8229TIP3    H146178   1.404   2.862   1.760 -3.0626  0.3979 -0.4321
 8229TIP3    H246179   1.381   2.753   1.657 -0.8912 -0.1742 -0.3275
 8230TIP3   OH246180   3.079   6.172   1.915  0.1520 -0.5488 -0.7844
 8230TIP3    H146181   3.146   6.235   1.941 -1.7133  0.2949  2.1551
 8230TIP3    H246182   3.025   6.220   1.851  0.4294 -0.1372 -0.7095
 8231TIP3   OH246183   5.452   6.811  14.946 -0.3547 -0.1028 -0.0526
 8231TIP3    H146184   5.393   6.853  14.883 -1.1303 -0.7242  0.2590
 8231TIP3    H246185   5.467   6.723  14.910 -2.3605 -1.1546  1.6198
 8232TIP3   OH246186   4.676   0.748  10.900 -0.9075  0.2454  0.3947
 8232TIP3    H146187   4.584   0.733  10.878 -1.1314  1.0043  0.8110
 8232TIP3    H246188   4.675   0.825  10.957  0.1175  1.0209 -0.6270
 8233TIP3   OH246189   6.434   1.499   5.245 -0.1311  0.2815 -0.5027
 8233TIP3    H146190   6.472   1.421   5.206 -0.0377  0.8517 -1.5603
 8233TIP3    H246191   6.444   1.486   5.339 -1.4537 -1.6617 -0.5919
 8234TIP3   OH246192   6.737   3.540  15.383  0.0233  0.3681 -0.0320
 8234TIP3    H146193   6.647   3.552  15.353  0.5389  1.0375 -1.4024
 8234TIP3    H246194   6.770   3.466  15.331 -0.7698 -2.1389  2.9050
 8235TIP3   OH246195   0.770   2.092  12.225  0.2532  0.1121 -0.4665
 8235TIP3    H146196   0.841   2.104  12.288 -1.3367 -0.3188  1.4430
 8235TIP3    H246197   0.744   2.000  12.235  0.3506 -0.1248 -2.1787
 8236TIP3   OH246198   4.645   6.774  14.496  0.1801 -0.4926 -0.4907
 8236TIP3    H146199   4.654   6.865  14.524  1.5303 -0.5220 -0.7918
 8236TIP3    H246200   4.687   6.771  14.410 -0.6163 -1.2180 -0.8620
 8237TIP3   OH246201   1.505   1.266   1.391 -0.2293 -0.4679  0.0921
 8237TIP3    H146202   1.549   1.216   1.459  1.6225 -0.2120 -0.8900
 8237TIP3    H246203   1.542   1.354   1.398 -1.5037  0.0835  0.0622
 8238TIP3   OH246204   4.606   3.983  16.371 -0.1193  0.5108  0.0806
 8238TIP3    H146205   4.522   3.962  16.412 -0.7294 -0.3284 -1.5508
 8238TIP3    H246206   4.583   4.040  16.297  1.0206  2.5224  1.2504
 8239TIP3   OH246207   5.537   5.730  10.698  0.1552 -0.0398  0.1776
 8239TIP3    H146208   5.545   5.739  10.603  3.0579  2.2587  0.5549
 8239TIP3    H246209   5.466   5.789  10.722 -0.5519 -0.5860 -0.5713
 8240TIP3   OH246210   0.717   0.431   4.296 -0.6279  0.0152 -0.0031
 8240TIP3    H146211   0.765   0.419   4.214  1.3313 -4.3084  1.6199
 8240TIP3    H246212   0.656   0.357   4.299 -0.0977 -0.3788  2.7399
 8241TIP3   OH246213   0.649   4.112  12.131  0.3267 -0.3392  0.1082
 8241TIP3    H146214   0.726   4.075  12.174  0.7851  1.8849  1.2704
 8241TIP3    H246215   0.582   4.045  12.140  0.7296 -0.4128  3.3748
 8242TIP3   OH246216   0.114   0.915  17.066 -0.3617  0.1184 -0.7380
 8242TIP3    H146217   0.089   0.914  16.973  0.3272 -0.6930 -0.9085
 8242TIP3    H246218   0.208   0.929  17.065 -0.2035 -0.9502 -0.1801
 8243TIP3   OH246219   0.126   0.613   3.559  0.6800 -0.6939 -0.0442
 8243TIP3    H146220   0.177   0.690   3.586 -1.6962  1.4162 -1.3923
 8243TIP3    H246221   0.068   0.596   3.633  1.5290 -1.4963  0.4431
 8244TIP3   OH246222   3.857   1.944   0.611 -0.4201  0.3112 -0.4296
 8244TIP3    H146223   3.856   1.878   0.681  0.5280 -0.8934 -1.5366
 8244TIP3    H246224   3.795   1.912   0.547  0.5966  0.1012 -1.3232
 8245TIP3   OH246225   0.663   1.776   5.659  0.5303  0.0917 -0.4486
 8245TIP3    H146226   0.694   1.698   5.613  0.6411 -0.0914 -0.0606
 8245TIP3    H246227   0.571   1.783   5.635  0.8728  0.6791 -1.6688
 8246TIP3   OH246228   5.051   2.465  11.586  0.3191 -0.2346 -0.4976
 8246TIP3    H146229   4.976   2.428  11.539 -0.2267 -0.4890  0.5662
 8246TIP3    H246230   5.052   2.558  11.560  0.4499 -0.5143 -1.5457
 8247TIP3   OH246231   3.923   4.945  17.080 -0.0185  0.3579  0.0726
 8247TIP3    H146232   3.864   5.010  17.117  0.0402 -0.0414  0.8845
 8247TIP3    H246233   3.941   4.885  17.153  0.4226 -0.2095 -0.4999
 8248TIP3   OH246234   0.111   3.085  10.736  0.2248 -0.1585 -0.0357
 8248TIP3    H146235   0.097   3.008  10.681 -0.0239 -1.1812  1.4292
 8248TIP3    H246236   0.191   3.066  10.784  2.4571  2.2562 -2.5716
 8249TIP3   OH246237   6.052   6.738  16.583 -0.4422  0.5913 -0.1021
 8249TIP3    H146238   6.058   6.758  16.489 -1.2552 -1.4166 -0.6110
 8249TIP3    H246239   5.959   6.728  16.600 -0.4213  2.5906  1.3006
 8250TIP3   OH246240   2.240   4.217  12.099  0.1725 -0.3453  0.7970
 8250TIP3    H146241   2.234   4.311  12.116  0.3375  0.0898 -1.4009
 8250TIP3    H246242   2.311   4.187  12.155  0.0359  0.8266  1.6048
 8251TIP3   OH246243   3.629   1.384   2.664  0.0510  0.1649  0.1028
 8251TIP3    H146244   3.561   1.336   2.712 -1.6836  2.7767  0.3409
 8251TIP3    H246245   3.583   1.421   2.589  1.7169  0.1764 -0.9248
 8252TIP3   OH246246   5.371   6.722  12.546 -0.9359  0.1403 -0.2493
 8252TIP3    H146247   5.334   6.695  12.631  0.2753 -2.7949 -0.6046
 8252TIP3    H246248   5.295   6.753  12.496 -1.9742 -0.0742  1.1604
 8253TIP3   OH246249   0.813   6.790   5.652  0.2451 -0.2764  0.1853
 8253TIP3    H146250   0.781   6.789   5.742  1.9236  0.0515  0.7972
 8253TIP3    H246251   0.902   6.823   5.659  0.3708 -0.2134 -1.6098
 8254TIP3   OH246252   2.962   4.391  12.408 -0.6067 -0.5877  0.6979
 8254TIP3    H146253   2.903   4.429  12.474  1.1052 -0.4409  2.1703
 8254TIP3    H246254   2.948   4.445  12.330 -0.4689  1.1659  1.8535
 8255TIP3   OH246255   4.406   5.670   1.793 -0.0506  0.3263  0.5080
 8255TIP3    H146256   4.464   5.623   1.732  0.4423  1.1520  0.3378
 8255TIP3    H246257   4.404   5.760   1.760 -0.1524  0.6699  1.4420
 8256TIP3   OH246258   0.746   5.833   1.212 -0.2477 -0.0046  0.1258
 8256TIP3    H146259   0.797   5.914   1.222 -0.1259  0.1094 -1.3158
 8256TIP3    H246260   0.757   5.788   1.296  0.0376  1.2650  0.7908
 8257TIP3   OH246261   0.433   5.454   0.247 -0.0939  0.0032  0.0670
 8257TIP3    H146262   0.388   5.474   0.164 -2.1230 -0.1186  1.1050
 8257TIP3    H246263   0.470   5.367   0.235 -0.4536 -0.0468 -0.6759
 8258TIP3   OH246264   4.228   6.783   0.190 -0.1121 -0.3796  0.2256
 8258TIP3    H146265   4.135   6.770   0.177  0.0035  0.2531 -1.2871
 8258TIP3    H246266   4.269   6.705   0.153  0.0186 -0.1779 -0.0578
 8259TIP3   OH246267   5.392   6.102   2.724  0.2986 -0.4183 -0.0569
 8259TIP3    H146268   5.338   6.172   2.761 -0.4886  0.6413 -3.0773
 8259TIP3    H246269   5.481   6.122   2.753 -0.0852  1.2099  0.0624
 8260TIP3   OH246270   2.776   5.372  16.905 -0.6896 -0.0721 -0.4434
 8260TIP3    H146271   2.814   5.287  16.882 -2.3458 -0.6835 -0.9958
 8260TIP3    H246272   2.781   5.375  17.001  1.6390  0.2986 -0.5535
 8261TIP3   OH246273   5.166   0.891  14.250  0.2346 -0.0902  0.5451
 8261TIP3    H146274   5.172   0.987  14.242 -0.4361  0.0893  2.0373
 8261TIP3    H246275   5.249   0.866  14.290  0.3573 -0.1244  0.2720
 8262TIP3   OH246276   5.496   1.580  14.600 -0.0413 -0.1764  0.3331
 8262TIP3    H146277   5.535   1.498  14.630  0.3762 -0.5476 -1.1715
 8262TIP3    H246278   5.563   1.619  14.544  0.0663  1.5790  1.6464
 8263TIP3   OH246279   0.320   2.133  11.420  0.1051 -0.1656  0.2818
 8263TIP3    H146280   0.313   2.056  11.477 -0.2943  0.1555  0.6681
 8263TIP3    H246281   0.381   2.106  11.351 -0.4371 -1.0043  0.1258
 8264TIP3   OH246282   0.645   0.497   4.551  0.1558 -0.4091 -0.3093
 8264TIP3    H146283   0.722   0.460   4.595  1.3101  0.4626 -1.5432
 8264TIP3    H246284   0.674   0.512   4.461 -0.1684  3.6987  0.1922
 8265TIP3   OH246285   1.197   1.679  11.522  0.2043  0.9060 -0.2757
 8265TIP3    H146286   1.271   1.668  11.463  0.2454  2.4042 -0.5356
 8265TIP3    H246287   1.162   1.591  11.534  1.1893  0.3699 -1.2323
 8266TIP3   OH246288   1.570   6.370   4.838 -0.3270 -0.3434  0.1284
 8266TIP3    H146289   1.611   6.381   4.924 -0.0908  2.0429 -0.2617
 8266TIP3    H246290   1.512   6.445   4.829  2.0421  1.2283 -3.1084
 8267TIP3   OH246291   5.956   3.410   0.955 -0.2201 -0.1404  0.3095
 8267TIP3    H146292   6.009   3.475   0.909 -1.1536 -0.5918 -1.4631
 8267TIP3    H246293   5.960   3.435   1.047  0.4718  1.6686 -0.2113
 8268TIP3   OH246294   5.872   2.931  12.618  0.0719 -0.1054  0.1919
 8268TIP3    H146295   5.863   2.955  12.710  0.1735  0.2682  0.1072
 8268TIP3    H246296   5.811   2.989  12.572  0.7738  0.4294 -0.0808
 8269TIP3   OH246297   0.467   3.533   5.497 -0.3176 -0.2074  0.6549
 8269TIP3    H146298   0.420   3.540   5.414 -0.5591 -2.5496  0.5701
 8269TIP3    H246299   0.400   3.550   5.564 -0.7411 -1.0697  0.4536
 8270TIP3   OH246300   0.346   6.403   2.536  0.2666  0.6557  0.5671
 8270TIP3    H146301   0.251   6.397   2.542  0.4207 -1.7016  1.3928
 8270TIP3    H246302   0.378   6.369   2.620  1.8293  2.4903  0.7634
 8271TIP3   OH246303   6.480   2.844  15.780  0.0848 -0.1918  0.4857
 8271TIP3    H146304   6.487   2.910  15.711  1.3254 -1.1177 -0.3005
 8271TIP3    H246305   6.459   2.894  15.859  1.6770  1.2414  0.0315
 8272TIP3   OH246306   0.542   4.906   1.784 -0.7610 -0.4597 -0.5066
 8272TIP3    H146307   0.607   4.975   1.772  0.1107 -1.0028  1.0210
 8272TIP3    H246308   0.547   4.855   1.703  1.1148 -0.8032 -0.1949
 8273TIP3   OH246309   0.124   0.229  17.105  0.8345 -0.0454 -0.0707
 8273TIP3    H146310   0.153   0.156  17.050 -0.4411  0.8406 -1.9658
 8273TIP3    H246311   0.180   0.303  17.079 -0.9651  0.8476 -1.4977
 8274TIP3   OH246312   1.056   4.932   0.199 -0.4460  0.7315 -0.1918
 8274TIP3    H146313   0.992   4.954   0.131 -1.6056 -0.9224  0.3360
 8274TIP3    H246314   1.006   4.930   0.280  0.5318  0.6939  0.4199
 8275TIP3   OH246315   5.923   4.135  12.640 -0.0686  0.4666  0.0342
 8275TIP3    H146316   5.963   4.058  12.681  1.3347  0.4899 -1.2737
 8275TIP3    H246317   5.831   4.111  12.631  0.5247 -1.4496 -1.2192
 8276TIP3   OH246318   2.119   3.265  16.649  0.0986  0.1531 -0.3007
 8276TIP3    H146319   2.079   3.187  16.609  0.7989 -0.2526 -0.2214
 8276TIP3    H246320   2.207   3.268  16.613  0.2808  0.5612  0.1743
 8277TIP3   OH246321   5.332   0.414  10.393 -0.1623 -0.5317  0.2203
 8277TIP3    H146322   5.307   0.433  10.483  1.3101  2.0075  0.1323
 8277TIP3    H246323   5.383   0.333  10.398 -2.0249 -1.6760  1.3282
 8278TIP3   OH246324   5.634   6.569   5.518  0.1140  0.3182  0.2697
 8278TIP3    H146325   5.596   6.657   5.520 -0.9403 -0.1236  0.4189
 8278TIP3    H246326   5.711   6.575   5.575 -1.1742  0.6234  2.0385
 8279TIP3   OH246327   4.797   2.729  13.141 -0.5657  0.2930 -0.1541
 8279TIP3    H146328   4.702   2.739  13.143 -0.6183 -0.1811 -0.1894
 8279TIP3    H246329   4.822   2.722  13.233 -0.6262 -0.1303 -0.1704
 8280TIP3   OH246330   2.431   3.702   3.824  0.1881  0.2881  0.3535
 8280TIP3    H146331   2.459   3.758   3.752  0.9129  1.0310  1.1990
 8280TIP3    H246332   2.428   3.760   3.901 -0.5993 -0.4816  0.9148
 8281TIP3   OH246333   4.214   2.606  12.853 -0.1573  0.2334 -0.8128
 8281TIP3    H146334   4.184   2.644  12.936  0.0398  1.5865 -1.3503
 8281TIP3    H246335   4.283   2.545  12.878 -1.4910 -0.8910  0.1999
 8282TIP3   OH246336   3.066   5.210   3.606  0.4584 -0.1176 -0.1252
 8282TIP3    H146337   3.071   5.167   3.520 -0.3348  0.3811 -0.4269
 8282TIP3    H246338   3.078   5.139   3.669  1.4707 -0.4207 -0.6544
 8283TIP3   OH246339   2.194   6.615   5.623 -0.0469  0.2089  0.2664
 8283TIP3    H146340   2.129   6.652   5.683 -0.8980 -0.0170 -0.5037
 8283TIP3    H246341   2.165   6.644   5.536  1.0742  0.3848 -0.0547
 8284TIP3   OH246342   4.726   0.930   5.707 -0.2229 -0.1038 -0.2110
 8284TIP3    H146343   4.778   0.850   5.696  0.9483  0.7839 -1.2709
 8284TIP3    H246344   4.736   0.954   5.799 -1.0699 -1.4961  0.2601
 8285TIP3   OH246345   0.975   3.080  16.082  0.1794 -0.5592 -0.7244
 8285TIP3    H146346   0.993   3.174  16.085  0.9418 -0.7097 -0.3577
 8285TIP3    H246347   0.944   3.064  15.993 -1.4217  0.2977 -0.3459
 8286TIP3   OH246348   3.053   5.085   2.461 -0.1502  0.0284  0.0866
 8286TIP3    H146349   3.017   5.174   2.464 -2.0136 -0.7559  2.1138
 8286TIP3    H246350   3.127   5.088   2.522 -0.1867  0.1912  0.1241
 8287TIP3   OH246351   6.378   0.798   0.393  0.0390 -0.1256 -0.1080
 8287TIP3    H146352   6.395   0.761   0.479  1.1072 -0.4918 -0.4772
 8287TIP3    H246353   6.294   0.844   0.403 -0.3004 -0.9410  0.8777
 8288TIP3   OH246354   6.375   0.212   1.583  0.2343 -0.0598 -0.0491
 8288TIP3    H146355   6.294   0.194   1.535 -0.9059  1.7945  1.1074
 8288TIP3    H246356   6.441   0.223   1.516 -1.2659  2.1937 -1.2107
 8289TIP3   OH246357   6.147   5.285  16.584  0.3722  0.3057 -0.1388
 8289TIP3    H146358   6.218   5.330  16.539 -0.4788  0.8434 -0.9569
 8289TIP3    H246359   6.092   5.250  16.514 -0.5219  0.4565  0.4748
 8290TIP3   OH246360   1.593   5.085   4.958 -0.3514 -0.7747  0.1247
 8290TIP3    H146361   1.652   5.039   5.018  1.2422  1.9835  0.7791
 8290TIP3    H246362   1.550   5.151   5.012 -1.3390 -0.3725 -1.1156
 8291TIP3   OH246363   4.093   0.247  15.047 -0.0757 -0.1797  0.1078
 8291TIP3    H146364   4.115   0.329  15.093 -0.6692  0.2251 -0.3179
 8291TIP3    H246365   4.170   0.229  14.994  0.5321 -0.5346  1.0915
 8292TIP3   OH246366   4.786   6.484   4.526 -0.4120  0.2353  0.3153
 8292TIP3    H146367   4.806   6.397   4.493  1.0278  0.9944 -0.8992
 8292TIP3    H246368   4.793   6.477   4.621 -0.4748 -1.0120  0.2243
 8293TIP3   OH246369   4.646   5.690  12.985  0.0236 -0.2211  0.4803
 8293TIP3    H146370   4.691   5.650  12.910 -1.7978 -0.3476 -0.5832
 8293TIP3    H246371   4.710   5.688  13.055  1.9943  0.4844 -1.2567
 8294TIP3   OH246372   3.369   6.030  14.377  0.1601 -0.9480  0.6433
 8294TIP3    H146373   3.442   6.028  14.439  0.3988 -2.0271  0.3324
 8294TIP3    H246374   3.393   6.099  14.315  0.9698 -1.3610  0.4865
 8295TIP3   OH246375   0.288   1.057   1.499  0.2132  0.1662 -0.1650
 8295TIP3    H146376   0.318   1.003   1.426 -1.1937  0.0443 -0.6771
 8295TIP3    H246377   0.214   1.009   1.536 -0.1079  1.0163  0.3252
 8296TIP3   OH246378   5.895   3.726   3.444  0.0515  0.2616 -0.2320
 8296TIP3    H146379   5.819   3.705   3.498  0.9953  1.2673  1.5361
 8296TIP3    H246380   5.957   3.767   3.505  2.3432 -1.2846 -1.4456
 8297TIP3   OH246381   0.702   2.038   2.411  0.2490 -0.4942 -0.6478
 8297TIP3    H146382   0.643   1.974   2.372 -2.2664  0.1887  1.9291
 8297TIP3    H246383   0.656   2.121   2.405  2.3367  0.6575 -1.4664
 8298TIP3   OH246384   4.766   2.557   5.114 -0.5737 -0.4691  0.3556
 8298TIP3    H146385   4.706   2.502   5.165 -0.5539  0.3566  1.2868
 8298TIP3    H246386   4.716   2.638   5.098  0.4526  0.4130  1.5407
 8299TIP3   OH246387   4.592   4.143   1.854 -0.5699 -0.1322  0.0429
 8299TIP3    H146388   4.651   4.186   1.915 -0.7789  1.0665 -0.5929
 8299TIP3    H246389   4.633   4.155   1.768 -1.1589 -0.2922 -0.2662
 8300TIP3   OH246390   4.231   1.049   1.232 -0.5705 -0.1287  0.2060
 8300TIP3    H146391   4.226   1.144   1.235 -0.0101 -0.0733 -0.4216
 8300TIP3    H246392   4.140   1.020   1.223 -0.6435  0.4061 -0.8222
 8301TIP3   OH246393   2.469   6.558   6.300  0.1094  0.2103  0.3524
 8301TIP3    H146394   2.516   6.629   6.346  1.1942  0.0420 -0.4758
 8301TIP3    H246395   2.384   6.555   6.343  0.4380  1.3005  1.1269
 8302TIP3   OH246396   6.155   2.514  12.018 -0.0510 -0.2571  0.0961
 8302TIP3    H146397   6.109   2.438  11.983 -1.4573  0.2029  0.9357
 8302TIP3    H246398   6.089   2.583  12.022  0.8042  0.5253  0.9336
 8303TIP3   OH246399   5.524   5.377   5.412  0.0410  0.2467  0.1575
 8303TIP3    H146400   5.437   5.416   5.400  0.1027  0.1115 -0.7903
 8303TIP3    H246401   5.563   5.379   5.325  1.2281  0.8504  0.6977
 8304TIP3   OH246402   4.014   6.710   3.073 -0.7970 -0.0570 -0.4539
 8304TIP3    H146403   4.077   6.670   3.133 -0.4733 -1.0633 -1.4331
 8304TIP3    H246404   4.029   6.804   3.081 -1.3264 -0.1279  1.6357
 8305TIP3   OH246405   5.298   3.157  12.839 -0.1734  0.1828  0.3484
 8305TIP3    H146406   5.378   3.177  12.887 -0.5394 -0.2893  1.1721
 8305TIP3    H246407   5.305   3.207  12.758  1.8570 -1.3762 -0.4718
 8306TIP3   OH246408   1.388   2.092   0.583 -0.1749  0.1355 -0.6368
 8306TIP3    H146409   1.459   2.063   0.525  0.0083  0.8765 -0.7861
 8306TIP3    H246410   1.308   2.075   0.533 -0.3226 -3.7026  0.7909
 8307TIP3   OH246411   5.661   0.251  11.093  0.3526  0.2634  0.5365
 8307TIP3    H146412   5.732   0.272  11.032 -0.0329  2.0597  0.6650
 8307TIP3    H246413   5.622   0.336  11.113 -1.2985 -0.6222  1.1269
 8308TIP3   OH246414   5.845   2.706   2.315 -0.0779  0.4126  0.0690
 8308TIP3    H146415   5.839   2.611   2.327 -1.5964  0.6677  1.6146
 8308TIP3    H246416   5.903   2.735   2.386  1.2462  0.5358 -1.0465
 8309TIP3   OH246417   0.701   2.675  14.713 -0.4140  0.1778 -0.0122
 8309TIP3    H146418   0.648   2.739  14.760 -0.8596  0.5692 -1.0325
 8309TIP3    H246419   0.658   2.591  14.731 -2.0651  0.6200 -1.7442
 8310TIP3   OH246420   5.520   0.580   4.179  0.1853 -0.7965 -0.2563
 8310TIP3    H146421   5.500   0.663   4.224 -2.5548 -0.0368 -2.7050
 8310TIP3    H246422   5.600   0.597   4.131 -0.2494  0.4009 -0.5768
 8311TIP3   OH246423   5.738   1.948   3.882  0.1116 -0.2728 -0.4546
 8311TIP3    H146424   5.789   1.959   3.802  0.3962  3.6840  0.2031
 8311TIP3    H246425   5.647   1.960   3.855  0.1888  0.8330 -0.2293
 8312TIP3   OH246426   5.434   0.236  16.750 -0.6201  0.6891  0.1423
 8312TIP3    H146427   5.528   0.235  16.771 -0.6086  0.5052  0.0851
 8312TIP3    H246428   5.430   0.260  16.657 -0.5666 -0.4678 -0.1726
 8313TIP3   OH246429   0.271   2.365  13.986  0.1414 -0.1013 -0.2464
 8313TIP3    H146430   0.232   2.320  13.912 -0.3269 -0.9346  0.5002
 8313TIP3    H246431   0.203   2.426  14.016  0.2037 -0.0148 -0.2783
 8314TIP3   OH246432   4.426   3.446  13.157 -0.2748  0.0928 -0.3540
 8314TIP3    H146433   4.405   3.512  13.223 -1.1317  0.7306 -1.2386
 8314TIP3    H246434   4.341   3.423  13.119  0.0938 -1.0429 -0.5031
 8315TIP3   OH246435   0.486   0.838   2.008 -0.3090 -0.3419  0.6146
 8315TIP3    H146436   0.576   0.858   2.034 -0.7085  1.4033  0.7533
 8315TIP3    H246437   0.435   0.845   2.089 -0.7963  0.1811  0.2714
 8316TIP3   OH246438   3.878   5.977   5.591 -0.0217 -0.6759  0.1335
 8316TIP3    H146439   3.972   5.988   5.574 -0.3464  1.9517 -0.2817
 8316TIP3    H246440   3.872   5.965   5.686  0.5916  1.5059  0.4718
 8317TIP3   OH246441   3.761   1.104   5.955 -0.0376  0.2432 -0.2951
 8317TIP3    H146442   3.842   1.077   5.999 -0.2490 -0.8672 -0.5752
 8317TIP3    H246443   3.710   1.147   6.024 -0.0104 -0.7344  0.3347
 8318TIP3   OH246444   3.168   3.530  11.570  0.1163 -0.0982  0.3053
 8318TIP3    H146445   3.142   3.454  11.621 -0.6672 -0.2822 -0.3715
 8318TIP3    H246446   3.224   3.495  11.501  0.5748  0.0618  0.5925
 8319TIP3   OH246447   3.206   5.698  16.278 -0.5433  0.2090 -0.5705
 8319TIP3    H146448   3.204   5.615  16.230 -0.9420  0.5464 -1.1492
 8319TIP3    H246449   3.279   5.689  16.340 -0.3733 -0.4397 -0.8691
 8320TIP3   OH246450   2.065   6.696  13.811  0.0292 -0.7107 -0.2030
 8320TIP3    H146451   1.996   6.752  13.847  1.5759 -0.4050  2.4015
 8320TIP3    H246452   2.058   6.614  13.859  1.0587 -0.9204 -0.3978
 8321TIP3   OH246453   6.044   6.396  13.231 -0.2060  0.1860 -0.1313
 8321TIP3    H146454   6.002   6.322  13.186  0.9974 -1.6984  1.7382
 8321TIP3    H246455   5.972   6.441  13.275 -0.5437 -1.9995  1.6274
 8322TIP3   OH246456   1.634   5.153  15.104  0.7124 -0.2910 -0.0943
 8322TIP3    H146457   1.626   5.215  15.031 -0.4395 -1.3254 -0.8686
 8322TIP3    H246458   1.728   5.138  15.112  0.9865  1.2797 -0.1277
 8323TIP3   OH246459   5.483   5.567   2.049 -0.2226 -0.7280  0.4410
 8323TIP3    H146460   5.534   5.625   2.105 -1.0588  2.0023 -1.4862
 8323TIP3    H246461   5.493   5.604   1.961 -1.6979 -2.8839 -0.6779
 8324TIP3   OH246462   3.898   2.765   4.733  0.1450  0.1231 -1.0208
 8324TIP3    H146463   3.978   2.741   4.687  1.0332 -0.5516  0.8187
 8324TIP3    H246464   3.928   2.815   4.809 -0.9834 -2.0610  0.9308
 8325TIP3   OH246465   4.596   0.660   1.066 -0.4328 -0.4104 -0.1718
 8325TIP3    H146466   4.587   0.592   1.000  0.2445  0.0101 -0.6966
 8325TIP3    H246467   4.514   0.710   1.061 -1.6305 -2.1745  1.3415
 8326TIP3   OH246468   5.281   2.455   0.089  0.7592 -0.2002  0.5170
 8326TIP3    H146469   5.374   2.472   0.106  1.0233 -1.5998  0.5257
 8326TIP3    H246470   5.281   2.390   0.019 -0.2237 -0.3464  0.6424
 8327TIP3   OH246471   4.543   6.649  11.426  0.2661  0.3734 -0.4016
 8327TIP3    H146472   4.569   6.739  11.446  0.9314 -0.2391  1.5376
 8327TIP3    H246473   4.602   6.621  11.356  0.2289  1.3395 -0.8224
 8328TIP3   OH246474   1.510   2.056   5.404 -0.0630 -0.7235  0.2917
 8328TIP3    H146475   1.435   2.105   5.438 -0.6664 -1.0398 -0.5740
 8328TIP3    H246476   1.481   2.025   5.318  1.9480  1.2477 -1.1340
 8329TIP3   OH246477   3.196   2.579   1.264  0.8031 -0.4282  0.7668
 8329TIP3    H146478   3.267   2.568   1.201  0.9623  2.0522  0.4728
 8329TIP3    H246479   3.239   2.605   1.346  0.3908 -0.9833  1.1670
 8330TIP3   OH246480   5.288   2.325   1.586 -0.9143 -0.0407 -0.0302
 8330TIP3    H146481   5.291   2.420   1.597 -0.8743 -0.1354  0.7738
 8330TIP3    H246482   5.222   2.311   1.518 -0.1824  0.6178 -0.8955
 8331TIP3   OH246483   6.376   1.961  16.846 -0.4620 -0.2965 -0.3404
 8331TIP3    H146484   6.408   2.037  16.796 -1.7514 -0.2293 -1.0937
 8331TIP3    H246485   6.289   1.987  16.875 -0.2827 -0.8965  0.7490
 8332TIP3   OH246486   5.472   4.973  10.650 -0.1098  0.6748 -0.0974
 8332TIP3    H146487   5.496   4.896  10.702 -1.4452  0.3664  0.0631
 8332TIP3    H246488   5.421   4.939  10.577 -1.3135  1.4606  0.3544
 8333TIP3   OH246489   2.532   3.048   1.826  0.4057 -0.6531 -0.4844
 8333TIP3    H146490   2.452   3.052   1.878  0.3965  1.0611 -0.5895
 8333TIP3    H246491   2.502   3.025   1.738  0.1459 -1.0696 -0.2871
 8334TIP3   OH246492   5.852   0.328  12.819  0.0338  0.0500 -0.0305
 8334TIP3    H146493   5.918   0.392  12.792 -1.7306  1.7124 -0.4550
 8334TIP3    H246494   5.769   0.363  12.788 -1.3220 -1.0122  2.2303
 8335TIP3   OH246495   2.230   5.876  14.427  0.0184 -0.2066  0.5570
 8335TIP3    H146496   2.302   5.860  14.366 -0.7122 -0.4995 -0.2294
 8335TIP3    H246497   2.272   5.919  14.502  0.7839  1.0302 -0.5375
 8336TIP3   OH246498   6.297   3.336  11.894  0.4860 -0.3256  0.2870
 8336TIP3    H146499   6.246   3.263  11.859  0.0844 -0.3306  0.8781
 8336TIP3    H246500   6.244   3.371  11.966  1.7613 -0.9834  1.5791
 8337TIP3   OH246501   3.857   4.744  11.719  0.6316  0.9475 -0.3193
 8337TIP3    H146502   3.928   4.801  11.690  1.3713  0.3320  0.2670
 8337TIP3    H246503   3.897   4.688  11.785 -0.0496 -0.3311 -0.9714
 8338TIP3   OH246504   1.647   5.999  11.360 -0.1805  0.4999  0.4360
 8338TIP3    H146505   1.699   6.017  11.439 -0.9187  1.3970  0.7186
 8338TIP3    H246506   1.591   6.075  11.350 -0.5851  0.0777 -0.5738
 8339TIP3   OH246507   1.611   1.656   0.930 -0.1066  0.4071 -0.2975
 8339TIP3    H146508   1.697   1.635   0.893 -0.7043 -0.2581 -1.3641
 8339TIP3    H246509   1.630   1.696   1.015  1.3220  1.9408 -1.2961
 8340TIP3   OH246510   6.507   0.931  12.520  0.1351 -0.3085  0.7135
 8340TIP3    H146511   6.585   0.945  12.573  0.6833 -1.0512  0.1241
 8340TIP3    H246512   6.479   0.842  12.541  0.1764 -0.4954 -0.0069
 8341TIP3   OH246513   2.848   2.553  17.104  0.1767 -0.4693 -0.1310
 8341TIP3    H146514   2.796   2.615  17.156 -0.3481  0.5003 -1.7580
 8341TIP3    H246515   2.784   2.510  17.048  0.8263 -0.9919 -0.4698
 8342TIP3   OH246516   2.257   2.385  15.351  0.0835  0.0931 -0.0855
 8342TIP3    H146517   2.274   2.423  15.264 -1.5647  0.5792 -0.2122
 8342TIP3    H246518   2.219   2.457  15.401 -1.3452 -0.8720  0.2431
 8343TIP3   OH246519   6.671   4.638   0.494  0.6639  0.8040  0.1172
 8343TIP3    H146520   6.651   4.545   0.481 -1.8009  1.0767  1.6786
 8343TIP3    H246521   6.659   4.677   0.408 -0.0674 -0.0301 -0.1709
 8344TIP3   OH246522   5.717   5.194   4.981  0.2337  0.5654 -0.0257
 8344TIP3    H146523   5.734   5.238   4.898  0.4496 -0.7964 -0.7009
 8344TIP3    H246524   5.792   5.217   5.037 -0.2863  2.1063  0.0678
 8345TIP3   OH246525   3.055   2.186   1.610 -0.0691 -0.0592 -0.6944
 8345TIP3    H146526   3.034   2.095   1.592 -0.7947 -0.3627  1.5553
 8345TIP3    H246527   2.970   2.229   1.617  0.2255  0.4373 -0.0934
 8346TIP3   OH246528   5.950   2.897   4.670 -0.0844  0.8996  0.1097
 8346TIP3    H146529   5.896   2.894   4.749 -0.3220  0.7740 -0.0548
 8346TIP3    H246530   5.950   2.990   4.646  2.2214  1.3518  1.7674
 8347TIP3   OH246531   2.678   0.432   4.428 -0.2266  0.2187 -0.0979
 8347TIP3    H146532   2.644   0.497   4.489  0.0062  0.2547 -0.0049
 8347TIP3    H246533   2.602   0.381   4.402  0.0052 -1.1587  1.8546
 8348TIP3   OH246534   1.679   4.861   2.831  0.5405  0.0841 -0.4003
 8348TIP3    H146535   1.614   4.931   2.832 -0.6314 -0.9677  1.6023
 8348TIP3    H246536   1.763   4.906   2.837 -0.1266  1.3571 -0.3962
 8349TIP3   OH246537   1.519   0.794   0.628  0.4448 -0.3777  0.0305
 8349TIP3    H146538   1.474   0.717   0.593  0.4334 -0.9015  1.1749
 8349TIP3    H246539   1.450   0.843   0.674  0.2295  0.8597 -1.5410
 8350TIP3   OH246540   2.110   2.764  16.445  0.1317  0.4133 -0.2982
 8350TIP3    H146541   2.166   2.686  16.445  0.2026  0.4572  1.7605
 8350TIP3    H246542   2.161   2.831  16.489 -1.3036  0.6336  1.0555
 8351TIP3   OH246543   1.130   3.610  11.507 -0.1940  0.0554 -0.0213
 8351TIP3    H146544   1.111   3.703  11.512 -2.2062 -0.3171 -0.0131
 8351TIP3    H246545   1.195   3.602  11.438 -0.0962  1.4492 -0.1061
 8352TIP3   OH246546   3.742   2.486   4.941  0.0560 -0.3739 -0.4930
 8352TIP3    H146547   3.828   2.504   4.979 -0.2904 -0.3866  0.2971
 8352TIP3    H246548   3.692   2.566   4.955 -1.1413 -1.4991  2.0727
 8353TIP3   OH246549   2.050   5.253  14.679 -0.0339 -0.5059  0.2367
 8353TIP3    H146550   1.981   5.315  14.657 -0.2988 -1.0437 -0.4814
 8353TIP3    H246551   2.004   5.174  14.705  0.3015 -0.2946  1.4994
 8354TIP3   OH246552   4.414   1.321  17.270 -0.0427 -0.0248  0.0049
 8354TIP3    H146553   4.438   1.229  17.278  0.1424 -0.1678 -1.9198
 8354TIP3    H246554   4.348   1.335  17.338 -0.6222 -1.7689 -0.1820
 8355TIP3   OH246555   5.775   3.401  13.427  0.0235 -0.6369 -0.1627
 8355TIP3    H146556   5.827   3.391  13.347 -1.2044 -0.5326 -1.0032
 8355TIP3    H246557   5.687   3.374  13.401 -0.3420 -0.7991  1.2282
 8356TIP3   OH246558   6.483   0.936   5.956 -0.2175  0.1921 -0.0372
 8356TIP3    H146559   6.419   0.972   5.894 -0.6125  0.5315  0.5728
 8356TIP3    H246560   6.563   0.928   5.904 -0.7394 -0.2159 -0.7984
 8357TIP3   OH246561   4.433   1.926  16.233 -0.1227  0.1354 -0.3412
 8357TIP3    H146562   4.365   1.888  16.177  0.8802  0.0131 -1.5131
 8357TIP3    H246563   4.401   2.014  16.254 -1.9588 -0.9565  1.5120
 8358TIP3   OH246564   2.573   1.161  13.818 -0.2694 -0.2395  0.5832
 8358TIP3    H146565   2.525   1.182  13.898 -1.0473 -0.1631  0.0992
 8358TIP3    H246566   2.515   1.189  13.747  1.3220  1.6583  0.0071
 8359TIP3   OH246567   3.826   3.013  10.791  0.3307 -0.1268 -0.2638
 8359TIP3    H146568   3.813   3.006  10.696  0.7123 -1.1051 -0.2440
 8359TIP3    H246569   3.746   3.054  10.823  0.6597  1.2567 -1.1463
 8360TIP3   OH246570   2.861   0.448  17.064 -0.0544 -0.6330  0.0604
 8360TIP3    H146571   2.877   0.462  16.971  0.7526  0.3552  0.3462
 8360TIP3    H246572   2.929   0.386  17.091  1.2323  0.9254  0.5062
 8361TIP3   OH246573   2.269   4.418  13.496 -0.5535 -0.5951  0.1021
 8361TIP3    H146574   2.184   4.452  13.470  0.4316 -0.9996 -3.9484
 8361TIP3    H246575   2.327   4.495  13.493 -0.4225 -0.6373  1.2666
 8362TIP3   OH246576   4.016   0.049   0.390  0.3650 -0.2759 -0.0618
 8362TIP3    H146577   4.098   0.013   0.423  0.0756 -0.0662  0.9069
 8362TIP3    H246578   4.030   0.144   0.388 -0.6774 -0.0331  2.4623
 8363TIP3   OH246579   5.872   6.078   4.528 -0.1305 -0.0946 -0.0177
 8363TIP3    H146580   5.964   6.104   4.525 -0.6702  1.8010 -1.4283
 8363TIP3    H246581   5.870   5.991   4.488  0.9310  0.2701 -0.8867
 8364TIP3   OH246582   4.797   4.238  16.140  0.1373 -1.0894 -0.4388
 8364TIP3    H146583   4.703   4.242  16.160  0.8409 -1.7072  3.1850
 8364TIP3    H246584   4.834   4.316  16.180  1.6010 -2.3894  0.8416
 8365TIP3   OH246585   4.387   4.360   1.705  0.6829  0.4229  0.2538
 8365TIP3    H146586   4.309   4.335   1.656  1.4613  0.6375 -1.1367
 8365TIP3    H246587   4.388   4.302   1.781 -1.3148  1.0352  0.7712
 8366TIP3   OH246588   2.932   4.588  11.913  0.0565 -0.8786 -0.0472
 8366TIP3    H146589   2.874   4.658  11.945  3.3318  1.2244  1.5257
 8366TIP3    H246590   2.947   4.532  11.989  0.0254 -1.4669 -0.4717
 8367TIP3   OH246591   3.025   0.498   2.361 -0.4892  0.1350  0.0771
 8367TIP3    H146592   3.062   0.415   2.390 -0.8198  0.9012  2.7926
 8367TIP3    H246593   2.955   0.473   2.300  0.5690 -1.4931 -0.5012
 8368TIP3   OH246594   5.029   1.349  15.644  0.2083 -0.3257  0.1849
 8368TIP3    H146595   4.944   1.379  15.611  1.0132  2.6051  0.6414
 8368TIP3    H246596   5.093   1.395  15.591  1.5144 -0.4370  1.6311
 8369TIP3   OH246597   4.703   3.254  13.421  0.6141 -0.7305  0.8110
 8369TIP3    H146598   4.692   3.340  13.381 -1.3886 -1.0908  0.4993
 8369TIP3    H246599   4.727   3.273  13.512  0.3904  0.1523  0.6899
 8370TIP3   OH246600   1.622   4.856   2.543  0.2892 -0.2472 -0.3352
 8370TIP3    H146601   1.573   4.922   2.494 -0.9542 -0.8705  0.0375
 8370TIP3    H246602   1.645   4.900   2.625 -0.8281 -0.3594  0.0553
 8371TIP3   OH246603   6.133   4.046   5.087  0.3007 -0.4118  0.0798
 8371TIP3    H146604   6.119   4.141   5.094  5.4797  0.6902 -2.3975
 8371TIP3    H246605   6.125   4.028   4.993  3.0938 -1.7283  0.0661
 8372TIP3   OH246606   5.232   4.357   0.797 -0.2921  0.1615 -0.4999
 8372TIP3    H146607   5.240   4.438   0.746 -0.9204  1.3717  1.2551
 8372TIP3    H246608   5.277   4.377   0.880 -0.7835 -1.1489  0.0975
 8373TIP3   OH246609   4.535   5.084  15.375 -0.1772 -0.0106 -0.4670
 8373TIP3    H146610   4.471   5.062  15.443 -0.0877 -0.2967 -0.4721
 8373TIP3    H246611   4.491   5.064  15.293 -0.9422  2.0727 -0.5722
 8374TIP3   OH246612   2.273   0.459  16.940  0.4763 -0.1565  0.0983
 8374TIP3    H146613   2.271   0.440  17.033 -1.5733  1.4384  0.4353
 8374TIP3    H246614   2.365   0.457  16.916  0.8637 -2.9861  1.6208
 8375TIP3   OH246615   1.217   2.682  11.352 -0.0121 -0.1935  0.2662
 8375TIP3    H146616   1.299   2.662  11.307 -0.4276 -1.2666 -0.0379
 8375TIP3    H246617   1.151   2.629  11.306 -0.9177  0.8270  0.3608
 8376TIP3   OH246618   3.249   3.195  16.558 -0.8815 -0.3949  0.4709
 8376TIP3    H146619   3.326   3.138  16.559 -0.2642  0.4008 -0.4613
 8376TIP3    H246620   3.240   3.221  16.466 -1.5939  0.4134  0.7611
 8377TIP3   OH246621   6.464   2.230   4.722  0.2532 -0.1085 -0.8439
 8377TIP3    H146622   6.553   2.248   4.691  0.0171  1.1797 -0.8120
 8377TIP3    H246623   6.408   2.254   4.649 -0.2161  1.5391  0.0270
 8378TIP3   OH246624   3.392   1.248   5.792 -0.4690 -0.6848  0.3515
 8378TIP3    H146625   3.344   1.294   5.723  0.0878 -2.3085 -1.1450
 8378TIP3    H246626   3.324   1.213   5.849 -0.9400  0.4298  0.4979
 8379TIP3   OH246627   1.823   1.233  14.728 -0.3845 -0.3364 -0.2196
 8379TIP3    H146628   1.798   1.140  14.723  3.2179 -1.3432 -0.8868
 8379TIP3    H246629   1.851   1.246  14.818 -1.3754  0.2704  0.0100
 8380TIP3   OH246630   5.313   6.706  13.273 -0.1422  0.0356 -0.5888
 8380TIP3    H146631   5.283   6.621  13.242  2.3254 -1.0313 -0.1994
 8380TIP3    H246632   5.267   6.718  13.356  0.0417 -1.2763 -0.2761
 8381TIP3   OH246633   6.214   5.446  11.265 -0.0644  0.0458 -0.4157
 8381TIP3    H146634   6.153   5.445  11.191 -0.2669  2.4929 -0.3118
 8381TIP3    H246635   6.281   5.510  11.240  0.5594 -0.0312  0.9953
 8382TIP3   OH246636   3.004   4.259  11.036 -0.0258  0.1175  0.2668
 8382TIP3    H146637   2.985   4.335  11.091 -1.4597  0.8005 -1.1171
 8382TIP3    H246638   3.099   4.251  11.036  0.3002  3.3805 -1.4631
 8383TIP3   OH246639   6.434   4.808   3.600 -0.3735  0.6834  0.4857
 8383TIP3    H146640   6.347   4.772   3.617 -0.6775  0.9617 -0.4623
 8383TIP3    H246641   6.488   4.773   3.671 -1.2472  0.4989  1.0763
 8384TIP3   OH246642   1.714   4.281   2.903 -0.4142  0.5219 -0.1870
 8384TIP3    H146643   1.785   4.322   2.854 -1.0063  0.6070 -0.9778
 8384TIP3    H246644   1.742   4.190   2.914  0.1896  0.7510  0.2331
 8385TIP3   OH246645   5.987   0.244  16.551 -0.2565 -0.2720 -0.2191
 8385TIP3    H146646   6.048   0.270  16.620  2.0030 -1.0713 -1.8845
 8385TIP3    H246647   6.014   0.294  16.474 -1.2146 -1.2117 -1.1873
 8386TIP3   OH246648   3.328   1.330  16.888  0.0361 -0.2528 -0.6117
 8386TIP3    H146649   3.272   1.262  16.851  1.2185 -0.9407 -1.1502
 8386TIP3    H246650   3.303   1.409  16.841  1.1527 -1.0117 -2.5243
 8387TIP3   OH246651   2.207   3.754   1.187  0.1042 -0.0678  0.1278
 8387TIP3    H146652   2.136   3.815   1.208  0.9026  1.6187 -1.8445
 8387TIP3    H246653   2.235   3.780   1.099  2.2718 -1.5778  0.3401
 8388TIP3   OH246654   4.530   4.305   2.746 -0.2347  0.2900 -0.4610
 8388TIP3    H146655   4.462   4.295   2.680 -0.5049  1.3437 -0.3516
 8388TIP3    H246656   4.484   4.332   2.825  0.1994  0.0094 -0.1081
 8389TIP3   OH246657   0.124   5.643   0.477 -0.4380 -0.0157  0.5436
 8389TIP3    H146658   0.080   5.571   0.431  0.4337  0.1761 -0.6148
 8389TIP3    H246659   0.053   5.695   0.514 -1.1030 -0.9930  0.6411
 8390TIP3   OH246660   5.269   5.853  15.033  0.4192  0.2835 -0.0666
 8390TIP3    H146661   5.334   5.821  15.095 -1.0893  0.3288  1.5820
 8390TIP3    H246662   5.251   5.943  15.062 -0.5872  0.1696 -0.3386
 8391TIP3   OH246663   2.434   5.026   2.235  0.2447 -0.6266  0.1793
 8391TIP3    H146664   2.423   4.952   2.295 -0.6211  1.3020  2.4826
 8391TIP3    H246665   2.439   4.986   2.148 -2.3940 -3.2518  1.1524
 8392TIP3   OH246666   3.966   1.255   5.316 -0.5528  0.0908  0.4351
 8392TIP3    H146667   3.916   1.234   5.237 -1.7354  0.1938  1.1386
 8392TIP3    H246668   3.908   1.229   5.388  1.6245 -2.6494  1.2758
 8393TIP3   OH246669   1.214   0.314   2.513  0.0963 -0.2175 -0.0914
 8393TIP3    H146670   1.138   0.311   2.455  0.5238 -1.5929 -0.5910
 8393TIP3    H246671   1.196   0.247   2.579  0.9616 -0.6933 -0.3345
 8394TIP3   OH246672   4.865   2.522  12.678 -0.1793 -0.2594  0.1719
 8394TIP3    H146673   4.939   2.581  12.667  0.5203 -1.3510 -1.0780
 8394TIP3    H246674   4.799   2.554  12.616  0.8655 -1.8141 -1.7872
 8395TIP3   OH246675   2.969   0.565  10.915  0.9232  0.4681  0.0888
 8395TIP3    H146676   2.887   0.589  10.873  0.7752 -1.1603 -0.5784
 8395TIP3    H246677   3.028   0.638  10.896 -0.2850  1.5202  0.3472
 8396TIP3   OH246678   3.020   4.346   2.158 -0.1773 -0.6113  0.1187
 8396TIP3    H146679   3.022   4.419   2.096  0.8209 -1.0467 -0.3652
 8396TIP3    H246680   2.958   4.374   2.225  0.3098  0.7543  0.0227
 8397TIP3   OH246681   4.604   5.135  15.928  0.0491  0.1982 -0.0992
 8397TIP3    H146682   4.516   5.099  15.914  0.9885 -1.6755 -1.3945
 8397TIP3    H246683   4.617   5.196  15.856 -0.5087  1.1255  0.5769
 8398TIP3   OH246684   4.573   4.692   4.103  0.4272  0.4291  0.0590
 8398TIP3    H146685   4.646   4.657   4.154  1.1975  0.5537 -0.9428
 8398TIP3    H246686   4.592   4.667   4.012  0.0309  1.7928 -0.4262
 8399TIP3   OH246687   6.019   2.051  12.105 -0.4545  0.2466 -0.2306
 8399TIP3    H146688   5.955   1.992  12.146 -0.6207 -0.0526 -0.9244
 8399TIP3    H246689   6.001   2.045  12.012 -0.8249  1.8371 -0.2630
 8400TIP3   OH246690   4.099   3.797   5.301 -0.1365  0.1808  0.1809
 8400TIP3    H146691   4.135   3.783   5.388 -0.5108 -0.4019  0.2431
 8400TIP3    H246692   4.109   3.713   5.256 -0.9791  0.1418  0.0452
 8401TIP3   OH246693   5.595   5.652   6.349 -0.0888  0.1145  0.2764
 8401TIP3    H146694   5.662   5.672   6.284 -0.3313  1.2281  0.3611
 8401TIP3    H246695   5.566   5.737   6.382  0.5132 -0.4472  2.3350
 8402TIP3   OH246696   6.209   0.079  17.162 -0.2286 -0.4839  0.1032
 8402TIP3    H146697   6.202   0.161  17.113 -1.8342 -0.1135  0.9015
 8402TIP3    H246698   6.294   0.043  17.137  0.0648  0.9294 -1.0172
 8403TIP3   OH246699   0.567   3.372   1.502 -0.1207 -0.4922  0.1712
 8403TIP3    H146700   0.621   3.294   1.519  1.7143  0.6011 -0.4840
 8403TIP3    H246701   0.590   3.433   1.572 -1.5260 -0.4931  0.6597
 8404TIP3   OH246702   2.633   6.087  12.160 -0.1656 -0.2744  0.0125
 8404TIP3    H146703   2.627   6.183  12.163  1.4365 -0.1948  1.6585
 8404TIP3    H246704   2.575   6.058  12.230  0.0042 -0.4654  0.0741
 8405TIP3   OH246705   3.632   1.604  15.669 -0.2473  0.2621  0.6116
 8405TIP3    H146706   3.580   1.545  15.614 -1.2746  1.8495 -0.1540
 8405TIP3    H246707   3.695   1.643  15.609 -0.5630  1.0685  0.7897
 8406TIP3   OH246708   4.906   6.598   6.230 -0.0077 -0.0107  0.0203
 8406TIP3    H146709   4.832   6.601   6.291 -0.5418 -0.4474 -0.5953
 8406TIP3    H246710   4.941   6.509   6.240 -0.5233 -0.3137 -0.7966
 8407TIP3   OH246711   0.628   4.122  13.407 -0.0465 -0.4053 -0.3337
 8407TIP3    H146712   0.548   4.162  13.373  0.1038 -0.8856 -1.2556
 8407TIP3    H246713   0.601   4.082  13.490 -0.2689  1.2932  0.4396
 8408TIP3   OH246714   0.260   0.793   0.039  0.1560  0.1968  0.8528
 8408TIP3    H146715   0.275   0.717  -0.018  0.4352  0.1869  0.9378
 8408TIP3    H246716   0.327   0.856   0.012  0.2932  0.1903  1.1756
 8409TIP3   OH246717   4.314   6.627   1.816 -0.2152 -0.0524 -0.5153
 8409TIP3    H146718   4.297   6.622   1.910  0.3520  1.4192 -0.3107
 8409TIP3    H246719   4.308   6.537   1.785  2.2789 -0.9168  1.3974
 8410TIP3   OH246720   0.433   5.509  15.490  0.3277  0.2426  0.5166
 8410TIP3    H146721   0.428   5.549  15.403 -0.6633 -0.2033  0.3627
 8410TIP3    H246722   0.429   5.415  15.473  1.0007  0.1302  0.9892
 8411TIP3   OH246723   1.472   6.670  11.060  0.2167 -0.2605 -0.3132
 8411TIP3    H146724   1.384   6.635  11.072  0.8149 -1.8686 -0.5229
 8411TIP3    H246725   1.517   6.605  11.007  1.4895  0.6412 -0.3757
 8412TIP3   OH246726   1.940   5.379  13.123  0.1183  0.3720  0.2610
 8412TIP3    H146727   1.942   5.294  13.168 -0.2015  0.8703  1.2053
 8412TIP3    H246728   1.856   5.417  13.147 -0.3969  0.3193 -1.3626
 8413TIP3   OH246729   4.537   3.674   3.405  0.0632 -0.6168 -0.0951
 8413TIP3    H146730   4.484   3.616   3.351 -0.6355 -0.2585  0.2031
 8413TIP3    H246731   4.585   3.728   3.341 -1.9954  0.9245 -0.3740
 8414TIP3   OH246732   0.218   6.551  14.171 -0.1461 -0.2212 -0.2023
 8414TIP3    H146733   0.124   6.567  14.162 -0.0286  0.7773  0.3171
 8414TIP3    H246734   0.224   6.458  14.192 -0.8762 -0.8335 -2.5015
 8415TIP3   OH246735   0.723   1.735   3.197  0.1375 -0.0862 -0.2409
 8415TIP3    H146736   0.645   1.702   3.153  0.5443 -0.7552 -0.4664
 8415TIP3    H246737   0.728   1.827   3.170  1.4653 -0.9661 -3.2286
 8416TIP3   OH246738   2.198   0.668   1.610  0.6436 -0.7191 -0.5121
 8416TIP3    H146739   2.150   0.743   1.645  0.8415 -0.8003 -0.0606
 8416TIP3    H246740   2.134   0.621   1.558  0.8480  0.4678 -1.8769
 8417TIP3   OH246741   2.829   6.453   1.560  0.0142  0.0678 -0.1225
 8417TIP3    H146742   2.822   6.549   1.565 -0.7673  0.0449 -0.7363
 8417TIP3    H246743   2.853   6.427   1.649 -0.6872  0.7553  0.2799
 8418TIP3   OH246744   2.533   4.105   0.127 -0.0513 -0.3486  0.0690
 8418TIP3    H146745   2.448   4.066   0.107 -1.5745  1.6769  2.3038
 8418TIP3    H246746   2.537   4.184   0.073 -1.3384  1.6186  2.7114
 8419TIP3   OH246747   1.453   2.041   4.266 -0.5550 -0.5624 -0.3210
 8419TIP3    H146748   1.398   2.078   4.336  0.1032 -1.2566  0.5875
 8419TIP3    H246749   1.493   2.117   4.225 -1.6713 -0.0872 -0.5614
 8420TIP3   OH246750   2.870   2.900  11.710 -0.0707  0.2003 -0.0004
 8420TIP3    H146751   2.933   2.829  11.706  0.3265  0.6155 -1.1795
 8420TIP3    H246752   2.786   2.860  11.688  0.3745  0.3545 -2.0994
 8421TIP3   OH246753   6.593   0.491   1.477  0.8600 -1.0065  0.0465
 8421TIP3    H146754   6.657   0.560   1.496  1.7699 -1.3550 -1.6655
 8421TIP3    H246755   6.515   0.516   1.526  1.5285  0.6915  0.2640
 8422TIP3   OH246756   3.490   1.266   9.986 -0.1138  0.4743  0.5323
 8422TIP3    H146757   3.446   1.352   9.984  1.7638  1.6841  5.0518
 8422TIP3    H246758   3.582   1.287   9.972  0.1584 -1.0115  0.1139
 8423TIP3   OH246759   0.256   5.799  14.651 -0.0265 -0.2856  0.4157
 8423TIP3    H146760   0.330   5.787  14.591 -0.4351 -0.1844 -0.1169
 8423TIP3    H246761   0.194   5.729  14.627 -0.4306  0.0914  0.3482
 8424TIP3   OH246762   2.835   6.243   4.002 -0.1722 -0.1755 -0.2324
 8424TIP3    H146763   2.752   6.244   3.954 -0.2180  2.4788 -0.1691
 8424TIP3    H246764   2.897   6.284   3.941  0.3969  0.6400  0.8901
 8425TIP3   OH246765   3.066   4.128  11.481  0.1318 -0.6554  0.0039
 8425TIP3    H146766   3.008   4.053  11.498 -0.8818  0.3554  1.1095
 8425TIP3    H246767   3.006   4.200  11.460  1.0563  0.0909 -0.1114
 8426TIP3   OH246768   0.431   2.547  12.820 -0.4892  0.0718 -0.8580
 8426TIP3    H146769   0.365   2.539  12.751 -0.9453 -3.1774 -0.1440
 8426TIP3    H246770   0.381   2.559  12.900  0.0347  3.5423 -0.9713
 8427TIP3   OH246771   4.256   3.981   4.027 -0.3817 -0.2912  0.3284
 8427TIP3    H146772   4.209   3.900   4.008 -0.2457 -0.0641 -1.0294
 8427TIP3    H246773   4.265   4.024   3.942  0.3998  0.6874  0.8941
 8428TIP3   OH246774   6.730   0.804   4.026 -0.1244 -0.0564 -0.0529
 8428TIP3    H146775   6.703   0.719   4.060 -0.6802  0.3748  0.6262
 8428TIP3    H246776   6.812   0.823   4.071 -1.1327  0.7535  1.4872
 8429TIP3   OH246777   2.025   0.203  12.215  0.0099  0.1978 -0.4275
 8429TIP3    H146778   2.090   0.159  12.160  1.5833  1.4748  0.3690
 8429TIP3    H246779   2.026   0.154  12.297  2.0858  1.8619  0.6235
 8430TIP3   OH246780   1.525   1.049  11.382  1.0437 -0.1231 -0.2860
 8430TIP3    H146781   1.544   0.963  11.344 -2.4111 -1.6798  1.3033
 8430TIP3    H246782   1.590   1.059  11.451  2.1693 -0.9746 -1.2023
 8431TIP3   OH246783   0.098   6.301  15.458  0.3457  0.0712  0.0501
 8431TIP3    H146784   0.112   6.264  15.371  0.5137 -0.4741  0.3053
 8431TIP3    H246785   0.154   6.249  15.515 -0.3087 -0.0365  0.5947
 8432TIP3   OH246786   1.666   6.287  12.818 -0.5125 -0.3173  0.1151
 8432TIP3    H146787   1.671   6.273  12.913 -1.8760  0.4578  0.3190
 8432TIP3    H246788   1.748   6.330  12.796  0.3389 -1.5676  0.7388
 8433TIP3   OH246789   5.515   1.988   2.758 -0.1376 -0.2792  0.0777
 8433TIP3    H146790   5.545   1.914   2.707  0.2967 -0.1922  0.2024
 8433TIP3    H246791   5.585   2.004   2.821 -1.3919 -1.4489  1.8220
 8434TIP3   OH246792   4.182   4.533  13.985 -0.4407 -0.0308 -0.1915
 8434TIP3    H146793   4.197   4.587  13.907 -0.6624  0.7810  0.3262
 8434TIP3    H246794   4.262   4.480  13.993 -0.3158  0.0580 -0.8303
 8435TIP3   OH246795   1.460   5.245  14.616  0.0213 -0.1731 -0.2970
 8435TIP3    H146796   1.425   5.178  14.558  0.5889  0.0830 -0.9380
 8435TIP3    H246797   1.412   5.324  14.593 -0.9001 -0.4293  0.7030
 8436TIP3   OH246798   6.257   4.678  16.727  0.4157 -0.4682 -0.1430
 8436TIP3    H146799   6.269   4.752  16.667  1.0431  0.0694  0.6296
 8436TIP3    H246800   6.340   4.672  16.774  0.5247 -1.9388 -0.4975
 8437TIP3   OH246801   1.049   4.889  13.038 -0.4403  0.0612  0.1862
 8437TIP3    H146802   1.041   4.981  13.013  1.4423  1.1768  3.4005
 8437TIP3    H246803   1.136   4.864  13.010  0.1272  0.1320  1.8279
 8438TIP3   OH246804   5.742   0.645  16.078  0.3162 -0.0366  0.2514
 8438TIP3    H146805   5.787   0.576  16.129  0.4367  0.0953  0.3254
 8438TIP3    H246806   5.807   0.673  16.014  0.4841  0.4456  0.6265
 8439TIP3   OH246807   0.125   2.796   4.850 -0.5374 -0.0774  0.2118
 8439TIP3    H146808   0.148   2.731   4.916 -0.7707  0.9597  1.3318
 8439TIP3    H246809   0.069   2.749   4.788 -1.5015 -0.6970  1.5356
 8440TIP3   OH246810   3.134   6.036   6.823 -0.0021 -0.0273 -0.0680
 8440TIP3    H146811   3.042   6.059   6.837  0.2567  2.9237 -2.6251
 8440TIP3    H246812   3.134   5.993   6.737  0.9920 -0.0743 -0.0429
 8441TIP3   OH246813   4.434   2.821  14.187 -0.4787 -0.0057  0.0064
 8441TIP3    H146814   4.378   2.758  14.232 -0.3459 -1.4827 -1.7983
 8441TIP3    H246815   4.383   2.902  14.185 -1.8429 -0.8551 -0.1166
 8442TIP3   OH246816   0.248   5.830  11.444 -0.1591  0.1125 -0.2673
 8442TIP3    H146817   0.325   5.857  11.394  0.9103 -2.3220 -0.0234
 8442TIP3    H246818   0.283   5.780  11.518 -1.8832  0.8120  1.0579
 8443TIP3   OH246819   2.223   2.952   5.900  0.7810 -0.1695 -0.0549
 8443TIP3    H146820   2.194   2.959   5.990 -0.1355 -0.4258 -0.3283
 8443TIP3    H246821   2.243   3.041   5.873  0.1113  0.0237  0.0901
 8444TIP3   OH246822   2.004   2.994   0.278 -0.3121  0.5154 -0.0500
 8444TIP3    H146823   2.028   2.953   0.195 -3.2260 -1.3882 -0.0075
 8444TIP3    H246824   2.075   2.970   0.338  2.1186  2.3991 -2.0507
 8445TIP3   OH246825   4.703   0.367   4.196 -0.0456 -0.3388  0.1208
 8445TIP3    H146826   4.708   0.429   4.123  1.3861  0.9991  1.3266
 8445TIP3    H246827   4.626   0.394   4.246  1.3825  1.4248  1.4470
 8446TIP3   OH246828   1.036   6.163  12.510 -0.1463 -0.1458 -0.6804
 8446TIP3    H146829   0.952   6.123  12.534 -0.3274 -0.3787 -1.6674
 8446TIP3    H246830   1.012   6.246  12.470  0.0266 -0.7323 -2.0108
 8447TIP3   OH246831   1.503   5.267  11.694 -0.1998  0.6603 -0.0390
 8447TIP3    H146832   1.582   5.288  11.644  0.0388 -0.5720 -0.1850
 8447TIP3    H246833   1.461   5.197  11.644  0.5371 -1.2620  1.9738
 8448TIP3   OH246834   4.465   2.943  10.702  0.3128 -0.1645 -0.0905
 8448TIP3    H146835   4.506   2.949  10.616 -0.1258 -1.9110 -0.4388
 8448TIP3    H246836   4.494   2.859  10.737 -1.2666 -0.4644  0.5424
 8449TIP3   OH246837   1.495   4.746   3.785 -1.1011  0.2555  0.3027
 8449TIP3    H146838   1.519   4.828   3.742 -0.0439 -0.2828 -0.1647
 8449TIP3    H246839   1.401   4.736   3.767 -0.8345  0.4035 -1.2869
 8450TIP3   OH246840   1.617   4.699   0.279 -1.2491  0.9576 -0.2248
 8450TIP3    H146841   1.612   4.603   0.274 -1.1170  0.9679 -0.5900
 8450TIP3    H246842   1.537   4.729   0.237 -1.1342  1.0123 -0.4052
 8451TIP3   OH246843   3.162   0.801  10.925  0.7166 -0.1573 -0.0346
 8451TIP3    H146844   3.227   0.869  10.945  0.6322  0.2505 -1.0586
 8451TIP3    H246845   3.079   0.839  10.951  0.9977 -1.1692  2.4357
 8452TIP3   OH246846   1.720   2.532  15.580  0.2490 -0.2862  0.6510
 8452TIP3    H146847   1.659   2.605  15.588 -0.2648 -0.6906  0.4707
 8452TIP3    H246848   1.805   2.570  15.601  0.2589  0.7649 -1.1891
 8453TIP3   OH246849   0.495   3.182   2.357 -0.0552 -0.2728 -0.0148
 8453TIP3    H146850   0.585   3.175   2.325  0.4366  2.2281  0.7263
 8453TIP3    H246851   0.477   3.276   2.357 -1.2086 -0.4260  3.8567
 8454TIP3   OH246852   3.115   5.661  15.064  0.3941  0.1529  0.0011
 8454TIP3    H146853   3.108   5.568  15.087  1.2728  0.1681  0.3621
 8454TIP3    H246854   3.113   5.662  14.968  0.6927 -0.2653 -0.0115
 8455TIP3   OH246855   6.637   1.691   5.283  0.3128 -0.0066  0.0766
 8455TIP3    H146856   6.645   1.733   5.198  1.0919 -0.7186 -0.2035
 8455TIP3    H246857   6.576   1.618   5.268  2.2263 -1.5492 -0.4238
 8456TIP3   OH246858   0.302   4.605  13.646 -0.4194  0.0545  0.5931
 8456TIP3    H146859   0.238   4.535  13.662  1.0830 -1.2001  1.1845
 8456TIP3    H246860   0.381   4.560  13.618  0.4492  1.5549  0.5593
 8457TIP3   OH246861   4.959   5.334   3.645 -0.2144 -0.2626 -0.6197
 8457TIP3    H146862   5.039   5.359   3.690 -1.1420 -1.8722  2.0390
 8457TIP3    H246863   4.937   5.410   3.592  1.8039  1.0919  0.4224
 8458TIP3   OH246864   3.684   5.045  14.140  0.2270 -0.3714 -0.3604
 8458TIP3    H146865   3.627   5.068  14.214  0.5396  0.1693 -0.2915
 8458TIP3    H246866   3.773   5.051  14.174  0.3978  0.3546 -0.9031
 8459TIP3   OH246867   4.917   5.950   4.517 -0.7299  0.0499  0.3424
 8459TIP3    H146868   4.957   6.025   4.474 -1.4854  0.4079  0.2588
 8459TIP3    H246869   4.959   5.946   4.603 -0.4369  0.3524  0.2129
 8460TIP3   OH246870   1.855   5.484  15.056 -0.1919  0.6601  0.1842
 8460TIP3    H146871   1.926   5.548  15.046  0.2811  0.3728  1.6607
 8460TIP3    H246872   1.812   5.508  15.138 -0.7396 -0.2173  0.1625
 8461TIP3   OH246873   4.845   5.857  16.805  0.1715  0.2111  0.3888
 8461TIP3    H146874   4.856   5.922  16.875  0.1952  0.2260  0.3680
 8461TIP3    H246875   4.862   5.773  16.848 -1.7265  0.0499  0.8679
 8462TIP3   OH246876   1.678   0.893   1.321  0.0467  0.0244 -0.4237
 8462TIP3    H146877   1.687   0.855   1.233 -1.2018  3.6023 -2.2004
 8462TIP3    H246878   1.637   0.824   1.373  0.2145 -1.9457 -2.7973
 8463TIP3   OH246879   5.236   4.600   0.626  0.5329 -0.0296 -0.2627
 8463TIP3    H146880   5.244   4.677   0.682 -0.2581 -1.0747  1.3242
 8463TIP3    H246881   5.155   4.614   0.576  1.2411  0.9015 -1.1686
 8464TIP3   OH246882   1.362   2.806  13.281 -0.2523  0.3237  0.2625
 8464TIP3    H146883   1.359   2.756  13.199  0.2924  2.3287 -1.0253
 8464TIP3    H246884   1.280   2.783  13.326 -0.5266 -0.8674 -0.8032
 8465TIP3   OH246885   1.840   0.343  12.017 -0.2079  0.3686 -0.1117
 8465TIP3    H146886   1.863   0.307  12.103  1.4865  0.0870 -0.6736
 8465TIP3    H246887   1.796   0.426  12.037 -0.2329  0.0861  1.0384
 8466TIP3   OH246888   5.389   4.503  16.311 -0.6614 -0.0048 -0.3349
 8466TIP3    H146889   5.410   4.414  16.281 -0.5137 -0.2221  0.4115
 8466TIP3    H246890   5.309   4.526  16.264 -0.7656 -0.5787 -0.4464
 8467TIP3   OH246891   0.888   5.598  10.992 -0.4209 -0.0457 -0.1324
 8467TIP3    H146892   0.827   5.540  10.947  0.2559 -1.7686  1.1189
 8467TIP3    H246893   0.971   5.549  10.992  0.0869  0.8088  1.1671
 8468TIP3   OH246894   1.867   4.444  11.923 -0.0384  0.2567  0.2312
 8468TIP3    H146895   1.781   4.431  11.884 -0.6101  0.5516  1.3623
 8468TIP3    H246896   1.928   4.437  11.850 -1.0697  0.6845 -0.6839
 8469TIP3   OH246897   0.146   6.467  16.437  0.4043  0.5186  0.0640
 8469TIP3    H146898   0.068   6.425  16.402  0.5560  0.8077 -0.6170
 8469TIP3    H246899   0.115   6.514  16.515  0.0288  0.0891  0.1773
 8470TIP3   OH246900   0.284   3.891  14.232  0.5821  0.6765  0.3963
 8470TIP3    H146901   0.361   3.888  14.288  0.7294 -1.2894  0.1174
 8470TIP3    H246902   0.226   3.823  14.266 -1.8139  3.2524  1.6847
 8471TIP3   OH246903   4.578   2.600   4.484 -0.0117  0.0645 -0.1742
 8471TIP3    H146904   4.651   2.539   4.496  0.7635  0.9213 -0.5455
 8471TIP3    H246905   4.619   2.684   4.467 -1.0824  0.8095  0.8560
 8472TIP3   OH246906   5.512   0.057  13.847  0.6581 -0.3879  0.2221
 8472TIP3    H146907   5.457   0.014  13.912 -1.0921  1.7387  0.2128
 8472TIP3    H246908   5.602   0.039  13.876 -0.0409 -2.3904  1.2396
 8473TIP3   OH246909   1.090   4.436   4.612 -0.2179 -0.0006  0.2495
 8473TIP3    H146910   1.102   4.500   4.682 -0.8394  0.0252  0.3337
 8473TIP3    H246911   1.010   4.390   4.635 -0.9463  0.6380 -0.9247
 8474TIP3   OH246912   1.947   5.181  11.530  0.4970 -0.5250 -0.2188
 8474TIP3    H146913   1.879   5.122  11.561 -1.7026  0.8400 -2.2305
 8474TIP3    H246914   2.016   5.176  11.596 -0.0687 -4.4992  0.1642
 8475TIP3   OH246915   3.778   6.733   5.170 -0.2712  0.1470  0.3041
 8475TIP3    H146916   3.793   6.656   5.116 -0.9368  0.8529 -0.9301
 8475TIP3    H246917   3.686   6.755   5.155 -0.9930 -0.6941  3.1613
 8476TIP3   OH246918   3.427   6.378  15.828 -0.8089 -0.1540  0.5948
 8476TIP3    H146919   3.421   6.370  15.923  1.2736  1.0209  0.8590
 8476TIP3    H246920   3.477   6.300  15.801  0.2250  0.4604  0.6949
 8477TIP3   OH246921   0.199   3.603  13.597  0.0273 -0.3058 -0.4003
 8477TIP3    H146922   0.187   3.621  13.504  0.9314  0.8232 -0.3106
 8477TIP3    H246923   0.177   3.685  13.640  2.9957  0.2668  0.1106
 8478TIP3   OH246924   4.843   4.876   1.627 -0.3432  0.0446 -0.3281
 8478TIP3    H146925   4.764   4.902   1.579 -0.3068  0.4550 -0.1656
 8478TIP3    H246926   4.817   4.796   1.673 -1.1178  1.0000  0.9133
 8479TIP3   OH246927   0.367   0.839  15.473 -0.1659 -0.1144 -0.2055
 8479TIP3    H146928   0.294   0.899  15.483  0.2207  0.1880  0.9101
 8479TIP3    H246929   0.330   0.753  15.493 -0.4823 -0.1215 -0.8053
 8480TIP3   OH246930   1.263   6.303  14.659 -0.2001  0.9156 -0.7100
 8480TIP3    H146931   1.275   6.309  14.754 -1.7710  0.4542 -0.4692
 8480TIP3    H246932   1.352   6.290  14.625  0.1540 -1.1144  0.8809
 8481TIP3   OH246933   1.600   2.734   1.363 -0.0481 -0.1425 -0.3874
 8481TIP3    H146934   1.657   2.708   1.435  1.3966  0.5402 -1.2642
 8481TIP3    H246935   1.525   2.776   1.405  1.7536  2.1222  0.6415
 8482TIP3   OH246936   3.252   5.839  11.037 -0.1628  0.6391  0.4988
 8482TIP3    H146937   3.195   5.899  11.084  0.3552  1.2612  0.3401
 8482TIP3    H246938   3.299   5.894  10.974  0.1152  0.0286  0.1634
 8483TIP3   OH246939   5.665   0.066   0.239 -0.0695  0.4014 -0.4851
 8483TIP3    H146940   5.694   0.155   0.219  0.1160  0.1957 -1.1172
 8483TIP3    H246941   5.744   0.013   0.233 -0.5495 -0.1459 -2.1663
 8484TIP3   OH246942   6.003   4.025   2.534  0.2142 -0.4395 -0.4139
 8484TIP3    H146943   6.086   3.981   2.516  0.3594  0.2332 -1.3864
 8484TIP3    H246944   6.001   4.099   2.474  0.5195  1.6069  2.0114
 8485TIP3   OH246945   6.207   4.157   3.400 -0.2100 -0.0991 -0.2345
 8485TIP3    H146946   6.114   4.134   3.406 -0.0990 -0.4441  0.2421
 8485TIP3    H246947   6.250   4.097   3.461  0.1272  1.2381  0.8615
 8486TIP3   OH246948   5.413   3.426  15.558  0.0505 -0.0408  0.0381
 8486TIP3    H146949   5.495   3.464  15.527  0.7473 -3.2419 -2.2139
 8486TIP3    H246950   5.350   3.446  15.488  0.1698 -2.0364 -0.6592
 8487TIP3   OH246951   3.014   2.667  11.650  0.0676  0.0326  0.0823
 8487TIP3    H146952   2.952   2.629  11.712 -1.1702 -1.0606 -1.7632
 8487TIP3    H246953   3.025   2.599  11.583  1.4520  1.1378 -0.8307
 8488TIP3   OH246954   1.204   6.128  15.382  0.0894 -0.0171 -0.8918
 8488TIP3    H146955   1.191   6.154  15.473 -0.5106 -1.6647 -0.4868
 8488TIP3    H246956   1.116   6.122  15.346  0.2865 -0.0870 -1.3689
 8489TIP3   OH246957   0.261   0.068   1.043  0.0992 -0.3974 -0.6043
 8489TIP3    H146958   0.278  -0.005   0.985  0.2771 -1.7253  1.0728
 8489TIP3    H246959   0.347   0.088   1.082 -0.5185 -1.4919  1.4142
 8490TIP3   OH246960   4.817   1.373   3.663  0.2251  0.1054 -0.2917
 8490TIP3    H146961   4.731   1.337   3.640  0.3681  0.7912 -1.9829
 8490TIP3    H246962   4.876   1.298   3.658 -0.0125 -0.0571 -0.7134
 8491TIP3   OH246963   2.335   1.344   5.273  0.0819  0.2762  0.1354
 8491TIP3    H146964   2.351   1.349   5.367 -1.0581 -1.3102  0.4263
 8491TIP3    H246965   2.387   1.269   5.244 -2.1659 -1.3249  0.1049
 8492TIP3   OH246966   4.595   4.142   4.675  0.4615  0.0386  0.7513
 8492TIP3    H146967   4.619   4.229   4.706  0.5305  1.0495 -2.0187
 8492TIP3    H246968   4.663   4.119   4.611 -2.3140  0.2274 -2.4173
 8493TIP3   OH246969   0.209   5.470   4.245 -0.4452 -0.3866 -0.0094
 8493TIP3    H146970   0.258   5.496   4.167 -0.6962  1.9005  0.5577
 8493TIP3    H246971   0.118   5.492   4.225 -0.1973  2.5565  1.8229
 8494TIP3   OH246972   2.075   2.704   0.477  0.4713 -0.4733 -0.5272
 8494TIP3    H146973   1.995   2.728   0.431  0.8079 -2.2160 -2.0495
 8494TIP3    H246974   2.046   2.680   0.565 -0.2273  2.3987  0.0840
 8495TIP3   OH246975   6.313   2.311  14.169  0.2551  0.3773  0.0037
 8495TIP3    H146976   6.276   2.223  14.160  0.7074  0.0537  1.2894
 8495TIP3    H246977   6.237   2.369  14.170 -0.1055 -0.1049  0.4697
 8496TIP3   OH246978   5.517   0.129  15.761 -0.4328 -0.4844 -0.0063
 8496TIP3    H146979   5.605   0.152  15.790  0.4353 -1.0617 -2.0799
 8496TIP3    H246980   5.459   0.188  15.810  0.9900 -0.8770  2.2294
 8497TIP3   OH246981   0.995   6.679   1.607  0.6426 -0.0307 -0.0672
 8497TIP3    H146982   1.080   6.637   1.624  1.8638  1.7734 -1.5522
 8497TIP3    H246983   0.943   6.659   1.685  2.1589 -1.8150  0.5397
 8498TIP3   OH246984   0.359   6.124   3.517  0.5073 -0.3249 -0.6289
 8498TIP3    H146985   0.268   6.144   3.540 -0.9227 -4.0158 -2.7187
 8498TIP3    H246986   0.387   6.059   3.582  1.8493  1.0250  0.2085
 8499TIP3   OH246987   6.311   0.755   3.692 -0.1000  0.0253  0.3171
 8499TIP3    H146988   6.309   0.737   3.786 -0.1669 -3.0168 -0.2127
 8499TIP3    H246989   6.338   0.672   3.652  0.7269  1.4978 -2.3022
 8500TIP3   OH246990   3.337   1.866  11.005 -0.4111 -0.1361 -0.1964
 8500TIP3    H146991   3.296   1.953  11.002  0.2258  0.2303  1.4860
 8500TIP3    H246992   3.324   1.837  11.095 -0.6600 -1.8152 -0.7675
 8501TIP3   OH246993   1.936   5.530   5.919  0.4219  0.3996 -0.3242
 8501TIP3    H146994   1.963   5.447   5.958  1.3370  1.1042  0.5500
 8501TIP3    H246995   1.929   5.590   5.992  1.0552  1.4466 -1.1123
 8502TIP3   OH246996   1.864   2.184  14.861  0.0753  0.3299 -0.1384
 8502TIP3    H146997   1.877   2.189  14.767 -0.1560 -0.7560 -0.2454
 8502TIP3    H246998   1.945   2.217  14.899  0.1670  0.7711 -0.7218
 8503TIP3   OH246999   4.522   2.336   3.340 -0.4360  0.0870  0.1127
 8503TIP3    H147000   4.533   2.416   3.391 -1.4153  0.3817 -0.1379
 8503TIP3    H247001   4.429   2.314   3.348 -0.1419 -1.1310  0.3392
 8504TIP3   OH247002   3.816   2.032  12.408  0.2376 -0.6571  0.0528
 8504TIP3    H147003   3.779   1.951  12.373  0.2192 -0.8451  0.5105
 8504TIP3    H247004   3.900   2.042  12.362 -0.6945  0.1537 -1.5398
 8505TIP3   OH247005   3.357   3.189   3.977 -0.0889  0.9346 -0.3854
 8505TIP3    H147006   3.438   3.148   4.006 -0.7526  1.2786  2.0946
 8505TIP3    H247007   3.290   3.153   4.035 -1.8673  0.0742 -2.8685
 8506TIP3   OH247008   5.657   6.612   3.437 -0.3903 -0.1535 -0.4845
 8506TIP3    H147009   5.712   6.690   3.434  1.0157 -1.1131  0.2595
 8506TIP3    H247010   5.567   6.647   3.435  0.1788  1.5723  1.9548
 8507TIP3   OH247011   3.301   6.075   2.263 -0.0839 -0.3034  0.1948
 8507TIP3    H147012   3.389   6.090   2.296  0.4648 -1.0223 -0.9223
 8507TIP3    H247013   3.273   5.993   2.304 -0.7168  0.5442  1.4984
 8508TIP3   OH247014   1.263   2.088  14.992  0.3731  0.1583 -0.1239
 8508TIP3    H147015   1.297   2.003  15.020  0.7519  0.1623 -0.5612
 8508TIP3    H247016   1.175   2.069  14.960  0.8075 -0.2455 -1.1302
 8509TIP3   OH247017   1.750   4.951   0.013  0.4491 -0.2348 -0.2022
 8509TIP3    H147018   1.671   4.928  -0.036  0.1498 -0.9363  0.5984
 8509TIP3    H247019   1.783   5.030  -0.030 -0.7352  0.1094 -0.4819
 8510TIP3   OH247020   1.363   5.468   5.531  0.6499 -0.1384 -0.1821
 8510TIP3    H147021   1.429   5.536   5.514  0.3856  0.0148 -0.6125
 8510TIP3    H247022   1.394   5.392   5.483  0.7665 -0.2166  0.0163
 8511TIP3   OH247023   6.664   0.195  15.756  0.3676  0.1130 -0.4702
 8511TIP3    H147024   6.616   0.126  15.803 -1.4082  1.0047 -0.9247
 8511TIP3    H247025   6.677   0.263  15.822  0.7339  0.0093 -0.4338
 8512TIP3   OH247026   5.602   2.655  13.253 -0.7089  0.0907  0.3340
 8512TIP3    H147027   5.623   2.611  13.335  0.7753 -2.9293 -1.5697
 8512TIP3    H247028   5.540   2.597  13.210 -0.7171  1.1490 -1.1225
 8513TIP3   OH247029   4.776   3.715   5.133  0.5220  0.0424  0.4081
 8513TIP3    H147030   4.754   3.716   5.227  1.4984  0.7142  0.6313
 8513TIP3    H247031   4.701   3.671   5.092  0.2616 -0.6101  1.5452
 8514TIP3   OH247032   5.774   5.713  16.399 -0.0757 -0.0993  0.0320
 8514TIP3    H147033   5.857   5.667  16.388  0.6921  0.8382  1.8056
 8514TIP3    H247034   5.717   5.676  16.331  1.5355 -1.3080 -0.6809
 8515TIP3   OH247035   6.511   6.117   2.416 -0.2143  0.5915  0.0521
 8515TIP3    H147036   6.488   6.102   2.325  1.1554  0.5660 -0.3099
 8515TIP3    H247037   6.434   6.157   2.455 -0.8926  0.3682 -1.0569
 8516TIP3   OH247038   2.434   3.311   2.932 -0.2483 -0.3943 -0.3300
 8516TIP3    H147039   2.467   3.306   3.022  0.0483  2.3255 -0.2500
 8516TIP3    H247040   2.510   3.339   2.881 -0.9560  0.0900 -1.1100
 8517TIP3   OH247041   2.490   2.410  12.292  0.1273 -0.2963  0.4154
 8517TIP3    H147042   2.441   2.390  12.212 -1.4846  1.5334  0.9193
 8517TIP3    H247043   2.572   2.446  12.261 -0.3804  0.1472 -0.4265
 8518TIP3   OH247044   4.961   3.552  15.423  0.0806  1.2022 -0.1363
 8518TIP3    H147045   4.925   3.474  15.380 -0.1128  1.7934 -1.0502
 8518TIP3    H247046   4.927   3.547  15.512  0.2600  0.1134 -0.1136
 8519TIP3   OH247047   1.659   2.061   5.737  0.1363  0.6564 -0.8311
 8519TIP3    H147048   1.681   2.056   5.830  0.8399  0.1887 -1.0186
 8519TIP3    H247049   1.565   2.079   5.735  0.2424  1.2848 -0.0272
 8520TIP3   OH247050   6.565   2.441   2.519  0.3829 -0.1929  0.1510
 8520TIP3    H147051   6.535   2.417   2.607 -1.2349 -0.5071 -0.4612
 8520TIP3    H247052   6.660   2.452   2.528  0.0470  1.2121  2.2505
 8521TIP3   OH247053   5.028   3.228   4.018  0.1734  0.4748  0.3547
 8521TIP3    H147054   5.072   3.226   3.933  0.6603  1.1750  0.5935
 8521TIP3    H247055   4.955   3.166   4.008  0.9372 -0.3591 -0.1857
 8522TIP3   OH247056   1.145   5.380   3.293 -0.1616  0.3067 -0.1665
 8522TIP3    H147057   1.199   5.406   3.218  1.5324  0.3197  1.0362
 8522TIP3    H247058   1.063   5.427   3.281  0.4677  1.0967 -1.4872
 8523TIP3   OH247059   3.405   3.990  13.041  0.4571 -0.7299 -0.1432
 8523TIP3    H147060   3.315   3.959  13.026  0.3271 -1.7600  2.5591
 8523TIP3    H247061   3.398   4.086  13.035 -1.1480 -0.7044  1.5611
 8524TIP3   OH247062   2.429   4.648  13.452 -0.2469 -0.0356 -0.6504
 8524TIP3    H147063   2.509   4.626  13.498  0.1806 -0.6073 -1.6365
 8524TIP3    H247064   2.411   4.739  13.475  0.7672  0.1379 -0.5419
 8525TIP3   OH247065   0.875   5.374  11.925 -0.1755  0.3858  0.4580
 8525TIP3    H147066   0.846   5.304  11.983 -2.3696 -0.1518 -1.2395
 8525TIP3    H247067   0.794   5.412  11.891  1.0185  2.6202  0.0085
 8526TIP3   OH247068   0.442   4.475  16.931 -0.1719 -0.3929 -0.3778
 8526TIP3    H147069   0.524   4.501  16.890 -0.2076  1.3848  0.6575
 8526TIP3    H247070   0.467   4.442  17.017 -0.6957  2.0533  0.7548
 8527TIP3   OH247071   3.553   4.206  11.533 -0.2437  0.1844  0.0552
 8527TIP3    H147072   3.622   4.179  11.593 -1.0666  1.3520  1.5833
 8527TIP3    H247073   3.515   4.125  11.500  1.7554 -0.4560 -0.7029
 8528TIP3   OH247074   5.462   5.183  10.855  0.3347 -0.3720  0.3494
 8528TIP3    H147075   5.459   5.118  10.784 -0.2040  0.6942 -0.6102
 8528TIP3    H247076   5.510   5.257  10.818 -3.8845  2.0926 -0.5225
 8529TIP3   OH247077   4.355   0.182  10.625 -0.0825  0.1818 -0.2560
 8529TIP3    H147078   4.270   0.139  10.634 -1.1008  1.5179 -3.0733
 8529TIP3    H247079   4.419   0.111  10.633 -1.2961 -0.6257  3.5987
 8530TIP3   OH247080   2.773   1.525   2.990  0.3142 -0.0483 -0.5002
 8530TIP3    H147081   2.836   1.520   3.062 -0.2438  0.5483  0.0383
 8530TIP3    H247082   2.699   1.574   3.026 -0.1698 -0.1471 -1.3382
 8531TIP3   OH247083   4.842   4.155   1.048  0.3310  0.7961  0.2018
 8531TIP3    H147084   4.806   4.202   0.973  0.6928 -0.3648 -0.7125
 8531TIP3    H247085   4.765   4.115   1.091  0.2451  0.4539 -0.2614
 8532TIP3   OH247086   3.881   4.326   1.650 -0.0884 -0.0240 -0.0677
 8532TIP3    H147087   3.962   4.292   1.688  0.2891  0.6762 -0.2332
 8532TIP3    H247088   3.866   4.409   1.694 -2.0525 -1.2850  1.6979
 8533TIP3   OH247089   5.858   3.026  10.603  0.4417 -0.4093  0.1661
 8533TIP3    H147090   5.944   3.053  10.634  0.0862  1.3553 -0.2604
 8533TIP3    H247091   5.807   3.108  10.602 -0.8024 -1.1740 -0.9255
 8534TIP3   OH247092   1.880   3.704  14.221 -0.5146 -0.6278  0.4812
 8534TIP3    H147093   1.963   3.742  14.250 -0.4407 -0.6975  0.3588
 8534TIP3    H247094   1.820   3.779  14.217 -0.3229 -0.4972  0.0670
 8535TIP3   OH247095   1.393   1.737  11.984 -0.3602 -0.0539 -0.5046
 8535TIP3    H147096   1.309   1.721  12.026  0.0624 -0.6691  0.1112
 8535TIP3    H247097   1.370   1.760  11.893 -1.1824 -0.2807 -0.3575
 8536TIP3   OH247098   6.231   0.691  13.636 -0.4623  0.0696  0.1402
 8536TIP3    H147099   6.238   0.597  13.648  0.0683  0.1604  0.5711
 8536TIP3    H247100   6.137   0.709  13.638 -0.5637 -0.4500  0.0382
 8537TIP3   OH247101   4.965   3.397  14.341  0.5434 -0.9759  0.0187
 8537TIP3    H147102   5.045   3.350  14.317  0.2643 -1.2446 -0.3835
 8537TIP3    H247103   4.996   3.472  14.393  0.9888 -1.6027  0.6712
 8538TIP3   OH247104   4.518   3.889   1.931  0.3417 -0.2650  0.4291
 8538TIP3    H147105   4.588   3.829   1.954  0.4223 -0.3028  0.0843
 8538TIP3    H247106   4.563   3.968   1.901  0.2420 -0.3548  0.0317
 8539TIP3   OH247107   1.589   6.280  13.187  0.1306  0.1368 -0.2897
 8539TIP3    H147108   1.649   6.209  13.163  1.8671  1.4766 -0.0420
 8539TIP3    H247109   1.504   6.237  13.199  1.3593 -2.0561  0.8709
 8540TIP3   OH247110   3.474   0.777   5.757  0.2310 -0.0343  0.5596
 8540TIP3    H147111   3.552   0.785   5.812  0.2901 -2.7169  0.9390
 8540TIP3    H247112   3.422   0.709   5.800  0.2968 -2.2449 -2.6692
 8541TIP3   OH247113   5.679   2.856  13.076 -0.1590 -0.4027 -0.1437
 8541TIP3    H147114   5.684   2.940  13.121  0.8650 -0.3335 -0.3934
 8541TIP3    H247115   5.654   2.793  13.145 -1.0245  0.1114  0.0207
 8542TIP3   OH247116   3.858   6.343   0.045  0.0553  0.3365  0.3684
 8542TIP3    H147117   3.898   6.256   0.053 -1.6822 -0.5360 -0.3079
 8542TIP3    H247118   3.778   6.337   0.097  0.2546  1.7528  0.8613
 8543TIP3   OH247119   5.406   2.768  11.918  0.1687 -0.1788 -0.1043
 8543TIP3    H147120   5.434   2.688  11.962 -0.6368 -0.5901 -0.3249
 8543TIP3    H247121   5.323   2.791  11.960  1.3855  1.6760  1.3369
 8544TIP3   OH247122   3.916   0.740  13.635 -0.5186 -0.3879 -0.1756
 8544TIP3    H147123   3.889   0.736  13.727 -1.6145 -1.0929 -0.5187
 8544TIP3    H247124   3.853   0.684  13.590 -0.6155  0.7939 -1.5134
 8545TIP3   OH247125   6.811   6.677  14.098 -0.0837  0.2996  0.0427
 8545TIP3    H147126   6.774   6.765  14.108  2.7681  1.4135  1.2486
 8545TIP3    H247127   6.789   6.652  14.008  0.1827  2.7838 -0.7622
 8546TIP3   OH247128   2.175   1.600  12.453  0.5402 -0.4996  0.0774
 8546TIP3    H147129   2.256   1.578  12.408 -0.2878  0.2557 -1.8366
 8546TIP3    H247130   2.188   1.691  12.482  0.1820 -0.1879 -0.7191
 8547TIP3   OH247131   0.477   5.933  11.342 -0.0178 -0.7313  0.4459
 8547TIP3    H147132   0.461   5.992  11.269  0.5327  0.5407  1.3144
 8547TIP3    H247133   0.511   5.853  11.302  1.0445  0.2360 -0.6388
 8548TIP3   OH247134   6.553   0.942   2.563  0.0464 -0.1546 -0.2083
 8548TIP3    H147135   6.566   0.887   2.640  3.2860  0.3236 -0.3255
 8548TIP3    H247136   6.490   1.008   2.591 -1.8497 -2.3053  0.7503
 8549TIP3   OH247137   3.506   4.459   5.590 -0.0696  0.3259 -0.2918
 8549TIP3    H147138   3.559   4.468   5.670  1.7990  1.6954 -1.6443
 8549TIP3    H247139   3.439   4.395   5.613  0.8524  0.1861  2.1666
 8550TIP3   OH247140   2.078   1.184  12.329 -0.0801  0.4883 -0.2563
 8550TIP3    H147141   2.129   1.187  12.248  1.1222 -2.1340  0.3573
 8550TIP3    H247142   1.996   1.142  12.304  0.1529 -0.0060 -0.2030
 8551TIP3   OH247143   0.314   2.333  13.452  0.6362 -0.1575  0.0994
 8551TIP3    H147144   0.291   2.286  13.372  0.6931 -1.2806  0.7415
 8551TIP3    H247145   0.355   2.414  13.421  0.3730 -0.4398 -1.0068
 8552TIP3   OH247146   6.272   1.290  12.760  0.2209 -0.0680 -0.3053
 8552TIP3    H147147   6.199   1.336  12.719  0.1248 -0.8281 -0.9901
 8552TIP3    H247148   6.350   1.337  12.730  0.0805  0.0602 -0.4677
 8553TIP3   OH247149   5.791   2.142  16.829 -0.9384  0.0258 -0.0166
 8553TIP3    H147150   5.710   2.106  16.794 -1.5094  0.7493  0.5474
 8553TIP3    H247151   5.859   2.113  16.767 -1.6746 -0.2534 -0.7027
 8554TIP3   OH247152   3.650   1.318  16.624  0.3646 -0.1465 -0.3490
 8554TIP3    H147153   3.622   1.300  16.713 -0.1218  2.0227 -0.0240
 8554TIP3    H247154   3.745   1.326  16.630  0.3395 -0.0786 -0.0301
 8555TIP3   OH247155   6.721   0.148   0.631  0.2924  0.6575  0.5173
 8555TIP3    H147156   6.785   0.084   0.599 -2.1195 -2.5740  1.8568
 8555TIP3    H247157   6.692   0.193   0.552 -0.3198 -2.1951 -0.9610
 8556TIP3   OH247158   3.529   2.102  15.479 -0.0531  0.0065 -0.1419
 8556TIP3    H147159   3.534   2.029  15.417  1.7705 -0.1108  0.1275
 8556TIP3    H247160   3.596   2.163  15.449  0.0770  0.4542  1.0610
 8557TIP3   OH247161   5.641   6.639   1.509  0.5198  0.0375  0.2028
 8557TIP3    H147162   5.607   6.555   1.477  2.2859 -0.3567 -0.7073
 8557TIP3    H247163   5.618   6.702   1.441  2.0867 -0.3370 -0.6912
 8558TIP3   OH247164   2.076   5.314   6.059 -0.7102  0.0614  0.2938
 8558TIP3    H147165   2.148   5.269   6.103 -1.9928 -2.7648 -0.3751
 8558TIP3    H247166   1.999   5.294   6.113 -1.1956  2.0976  0.3788
 8559TIP3   OH247167   0.065   1.304  16.922  0.2888  0.1301  0.0973
 8559TIP3    H147168   0.117   1.234  16.883 -0.1422 -0.2557  0.2142
 8559TIP3    H247169   0.044   1.273  17.009 -1.9650 -0.6627 -0.7015
 8560TIP3   OH247170   0.403   5.654   4.360  0.2970 -1.0763 -0.7593
 8560TIP3    H147171   0.356   5.574   4.336 -0.8029 -0.9175  0.8354
 8560TIP3    H247172   0.490   5.623   4.387  0.1287 -1.6465 -0.8570
 8561TIP3   OH247173   4.014   3.769  16.439 -0.1120  0.2027  0.2683
 8561TIP3    H147174   4.042   3.682  16.410 -0.2509  0.3441 -0.3001
 8561TIP3    H247175   3.966   3.804  16.364 -0.7095  0.4703  0.7736
 8562TIP3   OH247176   1.925   4.287   1.603  0.1111  0.1325 -0.6796
 8562TIP3    H147177   2.010   4.252   1.631 -0.2857  0.6968  1.2952
 8562TIP3    H247178   1.917   4.258   1.513  1.9866 -0.7382 -0.6080
 8563TIP3   OH247179   5.573   4.501   3.433 -0.0724 -0.0359  0.2469
 8563TIP3    H147180   5.584   4.595   3.442 -2.0015  0.4851 -2.3332
 8563TIP3    H247181   5.651   4.471   3.386 -0.4717  0.6247 -0.8518
 8564TIP3   OH247182   0.257   4.855   2.913 -0.0761  0.2751  0.2570
 8564TIP3    H147183   0.318   4.845   2.986  0.1219  0.2106  0.0804
 8564TIP3    H247184   0.302   4.818   2.838 -0.9270 -1.1992  0.4451
 8565TIP3   OH247185   4.454   6.092  10.878 -0.5013  0.4089  0.4163
 8565TIP3    H147186   4.392   6.165  10.877  0.3872  1.1670 -0.1670
 8565TIP3    H247187   4.438   6.047  10.795  0.6959  1.4475 -0.3995
 8566TIP3   OH247188   5.972   4.625   2.843 -0.0001 -0.1948 -0.1887
 8566TIP3    H147189   5.899   4.675   2.807  0.7632  0.9017 -0.2725
 8566TIP3    H247190   6.042   4.690   2.852  0.8099 -1.1306  0.3131
 8567TIP3   OH247191   4.910   4.023   2.836  0.1570  0.5983  0.1491
 8567TIP3    H147192   4.815   4.028   2.828  0.2295 -0.4769 -1.6265
 8567TIP3    H247193   4.943   4.055   2.752  1.3371 -0.2385  0.2806
 8568TIP3   OH247194   3.324   4.009   4.711 -0.3012  1.1380 -0.1710
 8568TIP3    H147195   3.291   3.941   4.652  2.0030 -0.2199  0.0558
 8568TIP3    H247196   3.402   4.044   4.667  0.7697  0.9212  1.4950
 8569TIP3   OH247197   6.109   0.869   2.578 -0.2360  0.3693 -0.7403
 8569TIP3    H147198   6.120   0.774   2.579  1.2658  0.5375 -0.3139
 8569TIP3    H247199   6.068   0.890   2.662 -0.6571  0.1001 -0.8748
 8570TIP3   OH247200   2.513   3.106   2.557  0.1555  0.3667 -0.1360
 8570TIP3    H147201   2.421   3.103   2.583 -0.4407  1.2901 -2.0626
 8570TIP3    H247202   2.539   3.197   2.572  1.3034 -0.2934  2.1267
 8571TIP3   OH247203   4.019   6.561   5.639  0.0605 -0.2128 -0.2903
 8571TIP3    H147204   4.080   6.631   5.663 -0.2308 -0.2463  0.5567
 8571TIP3    H247205   4.009   6.570   5.544 -0.9213  1.6753 -0.0387
 8572TIP3   OH247206   5.601   0.806   4.998  0.5737  0.4284 -0.2767
 8572TIP3    H147207   5.556   0.877   4.952  3.4842  0.9317 -2.4328
 8572TIP3    H247208   5.677   0.847   5.037  1.8257 -1.3388 -0.8068
 8573TIP3   OH247209   3.147   3.606  10.904 -0.5192  0.3126 -0.2165
 8573TIP3    H147210   3.194   3.689  10.907 -3.2758  1.9156  2.9859
 8573TIP3    H247211   3.078   3.620  10.839 -1.8534  1.1217  1.3208
 8574TIP3   OH247212   4.325   0.382  12.486 -0.1857 -0.3433  0.8582
 8574TIP3    H147213   4.376   0.321  12.432 -1.2262 -0.7439  0.3085
 8574TIP3    H247214   4.303   0.332  12.565 -2.3387 -1.2390 -0.2509
 8575TIP3   OH247215   3.599   1.673  15.007 -0.1371  0.2343  0.0150
 8575TIP3    H147216   3.544   1.664  14.929 -0.8004  1.4715  0.3216
 8575TIP3    H247217   3.634   1.585  15.022  1.0569  0.2719 -2.4452
 8576TIP3   OH247218   1.636   5.824   0.313 -0.2553 -0.1543 -0.3706
 8576TIP3    H147219   1.711   5.823   0.372  0.1440  1.5433 -0.8049
 8576TIP3    H247220   1.659   5.761   0.244 -0.6548 -2.0111  1.1649
 8577TIP3   OH247221   0.586   5.469   0.862 -0.0814 -0.3858  0.3428
 8577TIP3    H147222   0.554   5.488   0.774 -1.5385 -1.2172  0.6744
 8577TIP3    H247223   0.641   5.544   0.884 -1.1996  0.7271 -0.5463
 8578TIP3   OH247224   4.494   2.616  14.719  0.0454 -0.2760 -0.1841
 8578TIP3    H147225   4.546   2.604  14.799  0.3692 -0.5682 -0.4377
 8578TIP3    H247226   4.506   2.534  14.671  0.2067  0.0774 -0.7425
 8579TIP3   OH247227   0.179   6.213  15.777 -0.3556  0.4500  0.4302
 8579TIP3    H147228   0.179   6.178  15.866 -1.6226  1.7080  0.9318
 8579TIP3    H247229   0.090   6.201  15.746  0.3140 -0.9440 -1.0863
 8580TIP3   OH247230   0.824   2.480  11.734 -0.3525  0.1469 -0.1261
 8580TIP3    H147231   0.888   2.545  11.705 -1.5115  1.9338  1.1677
 8580TIP3    H247232   0.739   2.516  11.706 -1.1179 -0.1596  1.7072
 8581TIP3   OH247233   5.576   2.485   0.161  0.0124  0.3862  0.4278
 8581TIP3    H147234   5.574   2.431   0.240  0.2370  2.2648  1.7520
 8581TIP3    H247235   5.669   2.502   0.145 -0.0601  0.4741  0.0868
 8582TIP3   OH247236   6.215   0.583   2.030  0.8608 -0.1396 -0.7693
 8582TIP3    H147237   6.270   0.611   2.103 -0.8301  1.5566 -0.0902
 8582TIP3    H247238   6.274   0.535   1.972  2.2319 -1.5345  1.6991
 8583TIP3   OH247239   1.900   4.990   0.958 -0.2758 -0.1971 -0.3897
 8583TIP3    H147240   1.835   4.921   0.941 -0.5758  0.6949 -3.0827
 8583TIP3    H247241   1.913   5.032   0.873  1.5433  1.6589  0.7671
 8584TIP3   OH247242   0.734   0.724  14.883  0.6685  0.1162  0.6020
 8584TIP3    H147243   0.790   0.685  14.950  2.1911  0.7522 -0.2632
 8584TIP3    H247244   0.795   0.757  14.817 -0.7318  0.8905 -0.3416
 8585TIP3   OH247245   5.141   2.220   4.777 -0.5919  0.0945  0.3148
 8585TIP3    H147246   5.188   2.300   4.756 -1.1771  0.3206 -0.1490
 8585TIP3    H247247   5.185   2.152   4.726 -0.7531  0.3022 -0.1038
 8586TIP3   OH247248   0.760   0.856  12.027 -0.2336  0.3211 -0.6847
 8586TIP3    H147249   0.780   0.784  11.967  0.8433  0.3552 -0.3726
 8586TIP3    H247250   0.664   0.863  12.024 -0.2530 -0.2489 -1.7287
 8587TIP3   OH247251   3.958   0.774  11.475 -0.2683 -0.3322 -0.1506
 8587TIP3    H147252   4.044   0.770  11.517  0.2295  0.8406 -1.0489
 8587TIP3    H247253   3.914   0.695  11.505  1.0959 -0.9111  0.3814
 8588TIP3   OH247254   3.693   5.966  13.361 -0.4904 -0.6084 -0.2844
 8588TIP3    H147255   3.639   6.031  13.404  0.3320 -0.3093  0.3136
 8588TIP3    H247256   3.664   5.967  13.270  0.2403  1.3750 -0.5199
 8589TIP3   OH247257   2.976   5.113   2.849 -0.0835  0.3485 -0.0018
 8589TIP3    H147258   3.066   5.142   2.837 -0.0667 -0.0577 -0.8445
 8589TIP3    H247259   2.923   5.192   2.836  0.1544  0.6042  0.5766
 8590TIP3   OH247260   2.812   5.107   4.926  0.1331  0.0934  0.4563
 8590TIP3    H147261   2.736   5.055   4.953 -0.2388  0.5161  0.2429
 8590TIP3    H247262   2.876   5.093   4.995  0.8442 -2.3463 -0.6604
 8591TIP3   OH247263   4.165   0.349  16.241  0.3818  0.2229 -0.7240
 8591TIP3    H147264   4.161   0.430  16.293  2.2008 -1.2254  1.8320
 8591TIP3    H247265   4.236   0.364  16.178 -1.1216  1.6112 -2.0971
 8592TIP3   OH247266   4.463   6.813  16.330  0.6529  0.0693 -0.1363
 8592TIP3    H147267   4.467   6.781  16.419 -0.2332 -0.0742 -0.1406
 8592TIP3    H247268   4.528   6.761  16.282 -0.3386 -1.3091 -0.0176
 8593TIP3   OH247269   5.940   6.723   2.145  0.2035  0.1513 -0.0345
 8593TIP3    H147270   6.007   6.780   2.181  0.5851  0.3267 -1.0239
 8593TIP3    H247271   5.908   6.673   2.220 -0.3714  1.8988  0.9009
 8594TIP3   OH247272   0.422   2.650  14.500  0.0079  0.4477  0.1515
 8594TIP3    H147273   0.437   2.596  14.422 -0.0678  0.6796 -0.0218
 8594TIP3    H247274   0.460   2.734  14.478  0.3855  0.3761  0.5373
 8595TIP3   OH247275   3.425   0.263   1.380 -0.2393  0.1385 -0.2458
 8595TIP3    H147276   3.437   0.297   1.291  1.7152  0.1147 -0.0296
 8595TIP3    H247277   3.432   0.168   1.371  1.2437  0.1979  0.0785
 8596TIP3   OH247278   0.778   2.384   2.435 -0.2497  0.1086  0.2536
 8596TIP3    H147279   0.764   2.475   2.462 -0.0656  0.3059 -0.3159
 8596TIP3    H247280   0.689   2.350   2.421 -0.4156 -0.3958  2.3906
 8597TIP3   OH247281   5.367   4.767   0.925  0.1474  0.6002  0.3968
 8597TIP3    H147282   5.306   4.716   0.980  0.9142 -0.1662  0.5513
 8597TIP3    H247283   5.310   4.827   0.876 -0.8318 -0.6978 -0.1057
 8598TIP3   OH247284   1.032   5.266   4.153  0.2198  0.0328  0.0997
 8598TIP3    H147285   1.070   5.184   4.183  0.1784 -0.0829 -0.1629
 8598TIP3    H247286   1.105   5.311   4.110 -0.2450 -0.7506 -1.5417
 8599TIP3   OH247287   3.662   5.187   2.126  0.3209  0.4832  0.3076
 8599TIP3    H147288   3.665   5.182   2.222 -0.6831  1.4395  0.3975
 8599TIP3    H247289   3.683   5.098   2.097  0.6045  0.1791  1.4160
 8600TIP3   OH247290   6.532   4.202   2.803 -0.4739 -0.1329  0.2659
 8600TIP3    H147291   6.546   4.156   2.721 -1.3379  1.4704 -0.8040
 8600TIP3    H247292   6.437   4.196   2.818 -0.3073 -0.5382  1.2394
 8601TIP3   OH247293   2.955   1.944   6.610 -0.0438  0.7365  0.6438
 8601TIP3    H147294   2.914   1.950   6.696  1.0364  1.6738  1.1079
 8601TIP3    H247295   3.049   1.935   6.628  0.0709 -0.2858 -0.4114
 8602TIP3   OH247296   5.805   0.133  17.276  0.3964  0.3691 -0.3465
 8602TIP3    H147297   5.785   0.195  17.346 -0.4518 -1.8032  1.4107
 8602TIP3    H247298   5.864   0.070  17.317  0.3728 -0.5876 -1.7625
 8603TIP3   OH247299   3.527   5.277  15.919 -0.0939 -0.3920  0.0340
 8603TIP3    H147300   3.539   5.201  15.975 -2.0602  1.4088  2.9989
 8603TIP3    H247301   3.441   5.263  15.878 -0.8621  0.5950  1.2627
 8604TIP3   OH247302   2.982   1.303   3.594 -0.1283 -0.2647  1.0158
 8604TIP3    H147303   2.975   1.391   3.630  0.6290  0.4123 -0.4370
 8604TIP3    H247304   3.071   1.298   3.558 -0.4674 -1.2859  0.2634
 8605TIP3   OH247305   0.376   5.070   2.317  0.1788  0.1251 -0.1815
 8605TIP3    H147306   0.303   5.132   2.314  0.7876  0.8285 -0.9882
 8605TIP3    H247307   0.453   5.126   2.328  0.5010 -0.6901  1.9948
 8606TIP3   OH247308   2.132   5.155   0.661  0.2361 -0.2225 -0.2672
 8606TIP3    H147309   2.181   5.219   0.713  0.8025 -0.3574 -0.6381
 8606TIP3    H247310   2.139   5.187   0.571  0.3327 -0.6844 -0.4248
 8607TIP3   OH247311   1.509   4.505  13.437  0.0897  0.5875 -0.5435
 8607TIP3    H147312   1.581   4.442  13.445  0.0313  0.2182 -2.7088
 8607TIP3    H247313   1.528   4.571  13.504  1.3379 -0.5662  0.2803
 8608TIP3   OH247314   0.370   1.446  13.663 -0.1614 -0.0260  0.6270
 8608TIP3    H147315   0.372   1.420  13.571 -0.3646  2.1080  0.0176
 8608TIP3    H247316   0.324   1.374  13.707 -0.3370 -0.9044 -0.9711
 8609TIP3   OH247317   6.265   6.655  17.003 -1.0047 -0.4067  0.2878
 8609TIP3    H147318   6.217   6.613  16.932  0.3237 -1.3801 -0.0570
 8609TIP3    H247319   6.326   6.715  16.959 -1.6629  0.6022  0.7086
 8610TIP3   OH247320   6.595   0.235  15.488  0.3944 -0.3822  0.1400
 8610TIP3    H147321   6.626   0.241  15.579 -0.0614 -0.8214  0.3287
 8610TIP3    H247322   6.540   0.156  15.487  0.1671 -0.2155 -0.4485
 8611TIP3   OH247323   3.168   3.785   4.938  0.1503  0.2773 -0.3433
 8611TIP3    H147324   3.187   3.714   4.999 -1.1039  0.4229  0.2383
 8611TIP3    H247325   3.105   3.747   4.877 -0.4622  0.8597 -0.0758
 8612TIP3   OH247326   1.692   1.510  13.987 -0.0083 -0.0641 -0.1030
 8612TIP3    H147327   1.683   1.605  13.999 -0.4696 -0.3275  1.8745
 8612TIP3    H247328   1.752   1.500  13.914  0.7839  1.7668  0.2744
 8613TIP3   OH247329   2.924   6.051  11.783  0.0255  0.2249 -0.6337
 8613TIP3    H147330   2.829   6.050  11.795 -0.0899 -0.5401 -1.5162
 8613TIP3    H247331   2.959   6.086  11.865 -0.9121 -1.6372  0.5955
 8614TIP3   OH247332   6.004   1.010  13.052 -0.4035  0.2426  0.1388
 8614TIP3    H147333   6.068   1.049  12.992 -1.4734  0.7211 -0.7062
 8614TIP3    H247334   5.953   0.950  12.998 -0.1355 -0.7758  0.9955
 8615TIP3   OH247335   3.434   0.962  13.335  0.4740 -0.2472 -0.2011
 8615TIP3    H147336   3.419   0.977  13.242  0.8866 -0.4078 -0.2910
 8615TIP3    H247337   3.389   1.035  13.378  0.5123 -0.0263 -0.5347
 8616TIP3   OH247338   0.529   1.131  15.976  0.5596 -0.4042  0.1277
 8616TIP3    H147339   0.591   1.139  16.049 -0.3594 -0.7423  0.9638
 8616TIP3    H247340   0.526   1.219  15.939  1.5886 -0.3966  0.0293
 8617TIP3   OH247341   3.739   4.061   3.749 -0.6042  0.3992  0.6848
 8617TIP3    H147342   3.647   4.081   3.761 -1.2261 -0.9754 -1.4194
 8617TIP3    H247343   3.741   4.002   3.673  1.9466  0.0104  0.9984
 8618TIP3   OH247344   4.240   1.628  11.109 -0.3295 -0.7721 -0.0383
 8618TIP3    H147345   4.227   1.533  11.120 -1.6227 -0.4220  1.5473
 8618TIP3    H247346   4.152   1.664  11.110  0.2650  0.6665  1.2845
 8619TIP3   OH247347   1.577   5.133  16.607 -0.4579  0.2336 -0.6087
 8619TIP3    H147348   1.640   5.071  16.570  0.9200  0.5845  1.0436
 8619TIP3    H247349   1.541   5.179  16.531  0.5762 -0.6479 -1.6552
 8620TIP3   OH247350   6.750   2.001  13.955  0.0322 -0.3741 -0.6627
 8620TIP3    H147351   6.734   2.095  13.961 -1.5565 -0.6023 -1.1908
 8620TIP3    H247352   6.826   1.993  13.897 -0.3562  0.5354 -1.2990
 8621TIP3   OH247353   1.029   0.558  11.083  0.4695 -0.7568  0.1998
 8621TIP3    H147354   1.061   0.583  11.170  1.5855 -1.7238  0.0891
 8621TIP3    H247355   0.935   0.548  11.094  0.0881  2.6108  0.4415
 8622TIP3   OH247356   2.755   1.739   1.396 -0.4802  1.0797 -0.1219
 8622TIP3    H147357   2.755   1.660   1.450  0.5090  1.4358  0.4157
 8622TIP3    H247358   2.732   1.708   1.308 -2.1692  0.5044  0.5015
 8623TIP3   OH247359   6.096   5.339  14.934 -0.3452  0.0219  0.4930
 8623TIP3    H147360   6.064   5.255  14.900  0.9450  0.3257 -1.5634
 8623TIP3    H247361   6.019   5.396  14.934 -0.6955 -0.4323 -0.5676
 8624TIP3   OH247362   1.439   2.860   4.556 -0.6041  0.1315  0.3379
 8624TIP3    H147363   1.380   2.912   4.501 -0.1176  1.0138  0.6287
 8624TIP3    H247364   1.449   2.912   4.636  0.6104  0.0399  0.2606
 8625TIP3   OH247365   1.976   4.311   4.374  0.2414 -0.7007 -0.2018
 8625TIP3    H147366   2.024   4.382   4.332  0.7289 -0.3932  0.8702
 8625TIP3    H247367   2.015   4.303   4.461 -1.1347 -0.9625  0.4043
 8626TIP3   OH247368   0.801   0.264  10.302  0.4405  0.5969 -0.2540
 8626TIP3    H147369   0.797   0.356  10.275 -1.2590  0.8494  0.7485
 8626TIP3    H247370   0.710   0.235  10.299  0.7273 -0.5060  1.2856
 8627TIP3   OH247371   1.654   1.499  16.568  0.0314  0.1809  0.6454
 8627TIP3    H147372   1.742   1.462  16.564 -0.8747 -2.0416  0.7048
 8627TIP3    H247373   1.661   1.582  16.520  0.8284 -2.6928 -4.5971
 8628TIP3   OH247374   1.272   6.232  14.942 -0.1288 -0.1639 -0.0573
 8628TIP3    H147375   1.192   6.275  14.972  0.0270 -0.3431  0.6266
 8628TIP3    H247376   1.333   6.239  15.016 -0.8182 -3.4405  0.9250
 8629TIP3   OH247377   2.884   1.742  15.753 -0.2253  0.4669  0.0156
 8629TIP3    H147378   2.891   1.805  15.825 -3.1597 -1.2436  1.8851
 8629TIP3    H247379   2.803   1.766  15.708  1.3169  1.1838 -2.4521
 8630TIP3   OH247380   2.494   1.771  11.400  0.3014  0.0877 -0.1429
 8630TIP3    H147381   2.493   1.817  11.317 -0.0866 -0.2519 -0.3299
 8630TIP3    H247382   2.579   1.726  11.402 -0.5892 -1.7274 -1.3753
 8631TIP3   OH247383   1.916   4.113   4.184  0.0507  0.3772  0.1870
 8631TIP3    H147384   2.000   4.085   4.147 -0.7369  0.6584 -1.8399
 8631TIP3    H247385   1.940   4.163   4.262  1.7023 -0.7863  0.4494
 8632TIP3   OH247386   1.065   5.421   1.085  0.4675 -0.6002  0.0985
 8632TIP3    H147387   1.055   5.398   0.992 -0.4716 -0.9635  0.2808
 8632TIP3    H247388   0.984   5.390   1.125  0.8995 -0.4866  1.0528
 8633TIP3   OH247389   4.752   2.704   4.227  0.1308  0.0439 -1.0816
 8633TIP3    H147390   4.769   2.749   4.309 -1.8095 -1.2921  0.1222
 8633TIP3    H247391   4.816   2.739   4.165  0.8482  1.9236  0.6890
 8634TIP3   OH247392   1.328   3.293   6.002  0.2615 -0.2943  0.5204
 8634TIP3    H147393   1.396   3.263   5.942  0.3864 -1.2550  1.1290
 8634TIP3    H247394   1.342   3.242   6.082  0.7815  1.7439  1.7731
 8635TIP3   OH247395   3.307   1.076   0.141 -0.4224  0.8389  0.2245
 8635TIP3    H147396   3.246   1.034   0.202 -0.0719 -0.7370 -0.4785
 8635TIP3    H247397   3.252   1.121   0.078 -0.9071 -1.2562 -0.8863
 8636TIP3   OH247398   2.823   0.971  12.335  0.1567  0.1016  0.4783
 8636TIP3    H147399   2.758   0.951  12.267  0.7372  0.9256 -0.3270
 8636TIP3    H247400   2.903   0.926  12.306  0.4827  0.6768  0.4681
 8637TIP3   OH247401   5.324   5.027   3.239 -0.4474 -0.3723  0.1372
 8637TIP3    H147402   5.263   4.969   3.194  0.3896 -0.8781 -0.3711
 8637TIP3    H247403   5.309   5.009   3.332 -2.8403  1.3727  0.1079
 8638TIP3   OH247404   3.604   2.411  13.507 -0.2418  0.6547 -0.0557
 8638TIP3    H147405   3.603   2.446  13.419 -0.5753  1.4750  0.2746
 8638TIP3    H247406   3.539   2.340  13.505  0.2776  0.1821 -0.6538
 8639TIP3   OH247407   2.124   4.434   0.163  0.2975  0.4399 -0.2402
 8639TIP3    H147408   2.164   4.389   0.237  0.3958 -0.2154 -0.6858
 8639TIP3    H247409   2.030   4.433   0.182  0.1695 -1.1181 -0.8635
 8640TIP3   OH247410   6.698   6.434   2.917  0.0592 -0.5549  0.1338
 8640TIP3    H147411   6.751   6.512   2.901  0.4700 -0.9549 -0.4537
 8640TIP3    H247412   6.652   6.419   2.835 -0.5433 -0.5370  0.4665
 8641TIP3   OH247413   3.034   5.981   5.783  0.7489  0.2124 -0.3323
 8641TIP3    H147414   3.084   5.916   5.833 -2.1333  0.1256  2.5886
 8641TIP3    H247415   3.068   6.065   5.812  0.8326  0.1088 -0.1286
 8642TIP3   OH247416   5.392   1.414  11.804  0.2959 -0.2375 -0.5083
 8642TIP3    H147417   5.461   1.387  11.743  1.0854 -0.2952  0.3876
 8642TIP3    H247418   5.439   1.432  11.886 -0.8595 -1.1860  0.3793
 8643TIP3   OH247419   5.236   0.293   3.230 -0.1427  0.7672 -0.0191
 8643TIP3    H147420   5.251   0.384   3.258 -2.1682  1.1428 -0.0606
 8643TIP3    H247421   5.236   0.242   3.311 -0.0446  0.9559  0.1004
 8644TIP3   OH247422   4.066   5.565  13.531  0.3209  0.2068 -0.9963
 8644TIP3    H147423   4.040   5.584  13.440  1.4045 -0.4962 -1.4566
 8644TIP3    H247424   4.022   5.483  13.551  0.2903  0.2294 -0.9698
 8645TIP3   OH247425   5.810   1.240   3.530 -1.1023  0.5358 -0.5680
 8645TIP3    H147426   5.763   1.160   3.553  0.0644  0.3911  1.4690
 8645TIP3    H247427   5.789   1.302   3.600  2.0251  0.3150  0.6728
 8646TIP3   OH247428   3.665   1.436   0.027 -0.1376  0.2447 -0.1760
 8646TIP3    H147429   3.599   1.377   0.065 -0.6292  0.1501 -1.1646
 8646TIP3    H247430   3.747   1.387   0.035 -0.0830  0.6163  1.6205
 8647TIP3   OH247431   1.878   3.290  12.271  0.1896 -0.3358 -0.2440
 8647TIP3    H147432   1.907   3.341  12.347  0.5204 -0.6931 -0.1355
 8647TIP3    H247433   1.934   3.213  12.271  0.0278 -0.4497 -0.7140
 8648TIP3   OH247434   4.310   1.039   2.743  0.2013  0.6488  0.2252
 8648TIP3    H147435   4.222   1.019   2.776  0.9119 -1.3548  1.0031
 8648TIP3    H247436   4.326   1.129   2.770 -1.3795  0.8334  0.6004
 8649TIP3   OH247437   4.728   0.009   0.653 -0.2536 -0.0774  0.5461
 8649TIP3    H147438   4.697   0.047   0.735 -1.4521  0.6533 -0.2176
 8649TIP3    H247439   4.819  -0.015   0.669  0.2460  2.2869  1.3240
 8650TIP3   OH247440   1.939   4.467  15.010  1.0080 -0.2241 -0.2095
 8650TIP3    H147441   2.021   4.512  15.029  0.5217  0.2422  0.7991
 8650TIP3    H247442   1.940   4.390  15.066 -0.0656  0.7352  1.1474
 8651TIP3   OH247443   5.446   1.658   1.397  0.4095  0.4152 -0.0316
 8651TIP3    H147444   5.516   1.641   1.460  0.5939  0.0297 -0.3372
 8651TIP3    H247445   5.385   1.585   1.409  1.7408 -1.1225 -2.1039
 8652TIP3   OH247446   2.635   0.299  16.435 -0.3480  0.2132 -0.2789
 8652TIP3    H147447   2.642   0.368  16.501  2.6140  0.1698 -0.4706
 8652TIP3    H247448   2.663   0.220  16.480 -0.7413 -0.2798 -0.9006
 8653TIP3   OH247449   1.908   4.937   5.023  0.6547 -0.0959  0.2057
 8653TIP3    H147450   1.839   4.910   5.083  2.0945 -1.5774  1.2332
 8653TIP3    H247451   1.883   4.900   4.938 -0.7271  0.9350  0.1388
 8654TIP3   OH247452   4.035   3.943  13.141 -0.0754 -0.2658  0.1286
 8654TIP3    H147453   4.054   4.011  13.077  2.7194  0.4903  1.6952
 8654TIP3    H247454   3.979   3.987  13.206 -0.3306 -0.1577 -0.1645
 8655TIP3   OH247455   1.178   1.991  16.392  0.1974 -0.4168 -0.3982
 8655TIP3    H147456   1.222   2.023  16.471  0.2002  0.0218 -0.5780
 8655TIP3    H247457   1.086   2.013  16.405  0.0239 -1.2922 -0.0452
 8656TIP3   OH247458   4.754   4.374  12.711  0.1926  0.1350  0.1597
 8656TIP3    H147459   4.829   4.410  12.759 -0.8545  1.2741  0.9672
 8656TIP3    H247460   4.783   4.371  12.620  0.5265  2.5132  0.1499
 8657TIP3   OH247461   4.856   1.963  11.553 -0.0267 -0.3497 -0.7210
 8657TIP3    H147462   4.935   1.980  11.605  0.3151 -0.0509 -1.3405
 8657TIP3    H247463   4.799   1.913  11.612  1.1601 -1.7444 -0.7268
 8658TIP3   OH247464   1.300   2.496  13.412 -0.4100  0.5467 -0.5936
 8658TIP3    H147465   1.275   2.584  13.440 -0.7187  0.3772 -0.3306
 8658TIP3    H247466   1.309   2.446  13.494  1.2330  0.7231 -0.6613
 8659TIP3   OH247467   5.564   2.599  12.086  0.2682 -0.4216  0.5583
 8659TIP3    H147468   5.640   2.553  12.050  0.0807  1.1594 -1.9588
 8659TIP3    H247469   5.595   2.635  12.169  1.5579 -1.7416  0.6869
 8660TIP3   OH247470   0.819   5.472  12.669  0.3569 -0.0666 -0.2659
 8660TIP3    H147471   0.806   5.397  12.610  0.5367 -2.1986  2.2953
 8660TIP3    H247472   0.770   5.449  12.748  1.4351  1.9794  1.0435
 8661TIP3   OH247473   5.032   1.928   6.267 -0.4296  0.1574  0.1981
 8661TIP3    H147474   5.039   1.856   6.203  1.2401 -1.1158  1.7337
 8661TIP3    H247475   4.942   1.925   6.297 -0.5137 -0.9776 -0.1443
 8662TIP3   OH247476   6.434   6.119  15.221  0.1807  0.2977  0.0213
 8662TIP3    H147477   6.488   6.138  15.298 -0.3366  0.3198  0.3847
 8662TIP3    H247478   6.478   6.047  15.177  0.8038  0.6826  0.0126
 8663TIP3   OH247479   5.839   4.996  17.241  0.2225  0.2550 -0.1508
 8663TIP3    H147480   5.794   5.050  17.306  0.5743  0.5278 -0.1286
 8663TIP3    H247481   5.931   5.023  17.248  0.3481 -0.1139 -0.3705
 8664TIP3   OH247482   0.344   5.904   0.204  0.5392  0.7453  0.4824
 8664TIP3    H147483   0.251   5.919   0.185  0.4575 -2.3720 -2.0362
 8664TIP3    H247484   0.346   5.883   0.297 -1.9865 -3.5526 -0.3100
 8665TIP3   OH247485   2.653   4.459   0.448  0.0054  0.2648  0.0098
 8665TIP3    H147486   2.741   4.496   0.440  0.5683 -1.2976 -1.2905
 8665TIP3    H247487   2.598   4.516   0.393  0.5721  0.0842 -0.7490
 8666TIP3   OH247488   0.588   6.306   0.066  0.4356  0.0760 -0.1997
 8666TIP3    H147489   0.663   6.318   0.125  0.4858 -0.9991 -0.0213
 8666TIP3    H247490   0.562   6.394   0.042 -0.0420  0.5832  2.0186
 8667TIP3   OH247491   2.827   5.844  16.707 -0.1586  0.2375 -0.7909
 8667TIP3    H147492   2.776   5.798  16.774  0.6638 -0.4960 -0.6671
 8667TIP3    H247493   2.789   5.816  16.624 -0.4593  0.3004 -0.6770
 8668TIP3   OH247494   2.661   6.361  17.116 -0.2198  0.2505 -0.3281
 8668TIP3    H147495   2.739   6.317  17.150  1.8199  2.5699 -1.8913
 8668TIP3    H247496   2.588   6.311  17.153  1.9804 -3.0783 -0.2960
 8669TIP3   OH247497   4.753   1.282   1.517 -0.3730  0.8793 -0.0177
 8669TIP3    H147498   4.689   1.333   1.468  0.1669 -0.2017 -1.8930
 8669TIP3    H247499   4.806   1.239   1.450  0.1375 -0.9460  1.5060
 8670TIP3   OH247500   6.449   2.311   0.060 -0.1091 -0.6874 -0.5187
 8670TIP3    H147501   6.531   2.358   0.071 -1.3619  1.2416  1.0317
 8670TIP3    H247502   6.460   2.230   0.108  0.5672 -0.0097  0.4737
 8671TIP3   OH247503   0.288   2.184   1.934  0.7307 -0.0898  0.1195
 8671TIP3    H147504   0.374   2.218   1.911  0.4385 -0.6444 -1.8901
 8671TIP3    H247505   0.240   2.260   1.967  1.7602  0.3600  0.6033
 8672TIP3   OH247506   0.364   2.018  16.697 -0.1134 -0.6300 -0.4025
 8672TIP3    H147507   0.354   2.089  16.634  1.0669 -0.5334 -0.4928
 8672TIP3    H247508   0.414   2.056  16.770 -0.9844 -0.8887  0.3385
 8673TIP3   OH247509   0.990   1.105   4.231  0.2105 -0.2669  0.4710
 8673TIP3    H147510   0.972   1.198   4.215  2.2160  0.2118  0.7593
 8673TIP3    H247511   0.930   1.058   4.174 -0.0716  1.2288 -0.4868
 8674TIP3   OH247512   4.937   0.215  14.191  0.0407 -0.3031  0.1091
 8674TIP3    H147513   5.023   0.179  14.210  0.9515  1.1832 -1.0991
 8674TIP3    H247514   4.947   0.257  14.106 -1.8517 -0.0003  0.0100
 8675TIP3   OH247515   1.374   2.085  15.715  0.2095 -0.1081 -0.2486
 8675TIP3    H147516   1.436   2.087  15.787  1.3794  1.5671 -1.2673
 8675TIP3    H247517   1.300   2.034  15.748  1.0467 -0.0015  1.8423
 8676TIP3   OH247518   2.849   4.935  15.408 -0.4717  0.2810  0.5943
 8676TIP3    H147519   2.932   4.962  15.370 -0.3584  1.1114  1.4244
 8676TIP3    H247520   2.812   5.015  15.445 -3.1388  0.6089 -2.4974
 8677TIP3   OH247521   0.356   2.341  15.080 -0.0473 -0.8157 -0.2256
 8677TIP3    H147522   0.365   2.327  15.174  0.4693  0.7565 -0.0345
 8677TIP3    H247523   0.265   2.370  15.069 -0.4995 -2.2470 -0.3811
 8678TIP3   OH247524   3.693   6.653  10.950 -0.0561  0.0661 -0.2527
 8678TIP3    H147525   3.627   6.585  10.937  0.2922 -0.5396  1.0746
 8678TIP3    H247526   3.698   6.698  10.866 -1.6608 -0.3258 -0.5701
 8679TIP3   OH247527   3.811   5.439   2.091 -0.1625 -0.0191 -0.4381
 8679TIP3    H147528   3.907   5.446   2.088 -0.1866  0.6660  0.1897
 8679TIP3    H247529   3.794   5.346   2.099  0.3986 -0.3236 -2.4043
 8680TIP3   OH247530   2.296   2.372   3.033  0.4870 -0.4497  0.3498
 8680TIP3    H147531   2.386   2.362   3.064  0.8161 -0.5157 -0.6070
 8680TIP3    H247532   2.294   2.323   2.950 -0.2024  0.2647 -0.0588
 8681TIP3   OH247533   5.665   5.901  16.592  0.3661  0.2833 -0.7522
 8681TIP3    H147534   5.591   5.844  16.613 -0.3468  1.1192 -0.9849
 8681TIP3    H247535   5.717   5.850  16.530 -1.7913  0.9676 -3.2198
 8682TIP3   OH247536   1.025   1.989  14.944  0.4036  0.1914  0.0545
 8682TIP3    H147537   1.013   1.908  14.895  0.3934 -0.7289  1.5312
 8682TIP3    H247538   0.944   2.038  14.930  0.1266 -0.3601 -0.2843
 8683TIP3   OH247539   5.928   1.225  12.502 -0.5459  0.6231 -0.1770
 8683TIP3    H147540   5.836   1.250  12.511 -1.4878 -2.4021 -0.4999
 8683TIP3    H247541   5.928   1.163  12.428  1.3989 -0.9441  1.0910
 8684TIP3   OH247542   6.187   4.317  17.063 -0.4158  0.1132  0.3054
 8684TIP3    H147543   6.249   4.266  17.115 -0.0295 -0.7730 -0.9963
 8684TIP3    H247544   6.106   4.315  17.113  0.0733 -0.3305  1.0948
 8685TIP3   OH247545   4.548   4.841   3.743  0.4265 -0.3533  0.2813
 8685TIP3    H147546   4.546   4.935   3.760 -1.8605 -0.9907  4.1088
 8685TIP3    H247547   4.502   4.831   3.659  1.2527  1.9414 -0.4908
 8686TIP3   OH247548   3.298   2.011   0.861 -0.0050  0.0577  0.4555
 8686TIP3    H147549   3.246   2.060   0.925  1.1315  3.1061 -0.8712
 8686TIP3    H247550   3.252   2.024   0.778  1.0657  0.0140 -0.1531
 8687TIP3   OH247551   5.076   1.963  13.399 -0.2703 -0.3282 -0.9070
 8687TIP3    H147552   5.168   1.958  13.425  0.0721 -1.3715 -2.2270
 8687TIP3    H247553   5.038   1.879  13.426 -0.8599  0.1356 -0.2808
 8688TIP3   OH247554   1.568   4.811  11.324  0.4520  0.1658  0.0282
 8688TIP3    H147555   1.480   4.812  11.360  0.0045 -1.2231 -0.9964
 8688TIP3    H247556   1.611   4.737  11.366  1.3971  1.2992  1.0968
 8689TIP3   OH247557   5.211   3.135  16.809  0.1959  0.1314  0.7301
 8689TIP3    H147558   5.281   3.085  16.851 -0.7552  0.4523  2.7714
 8689TIP3    H247559   5.236   3.227  16.823 -0.9130  0.2562  2.0388
 8690TIP3   OH247560   3.591   0.864  12.854 -0.1242 -0.2494  0.2516
 8690TIP3    H147561   3.526   0.821  12.798 -1.1373  0.3700  0.9266
 8690TIP3    H247562   3.664   0.883  12.796 -0.6379 -0.7537 -0.5748
 8691TIP3   OH247563   0.126   3.109  13.863 -0.0483 -0.2767 -0.3614
 8691TIP3    H147564   0.110   3.199  13.892  2.5432  0.9984 -2.5670
 8691TIP3    H247565   0.044   3.082  13.821 -0.9185  0.9792  0.5016
 8692TIP3   OH247566   5.744   6.023   0.675  0.3550 -0.2969  0.2052
 8692TIP3    H147567   5.727   6.085   0.746 -1.7546  0.4455 -0.9356
 8692TIP3    H247568   5.786   6.075   0.607  0.2737 -0.5278 -0.0229
 8693TIP3   OH247569   0.015   4.788  15.048  0.2899 -0.8234 -0.0417
 8693TIP3    H147570   0.029   4.787  15.143  0.1651 -2.0900 -0.0309
 8693TIP3    H247571  -0.076   4.817  15.038  0.4168 -0.3323  0.2094
 8694TIP3   OH247572   1.343   4.693  12.303  0.5661 -0.1159 -0.0214
 8694TIP3    H147573   1.358   4.786  12.319  0.2917 -0.2706  1.2110
 8694TIP3    H247574   1.341   4.685  12.208  0.5910  1.1366 -0.1392
 8695TIP3   OH247575   4.092   3.824   5.602  0.1315 -0.3867  0.3899
 8695TIP3    H147576   4.100   3.910   5.561  0.5616 -0.6410 -0.0682
 8695TIP3    H247577   4.162   3.821   5.667  1.6406 -1.3079 -1.2610
 8696TIP3   OH247578   5.080   4.750   3.749 -0.7344  0.4319 -0.2705
 8696TIP3    H147579   5.161   4.753   3.800 -0.9852 -1.7790  0.3141
 8696TIP3    H247580   5.041   4.837   3.761  0.5861  0.8675  1.0332
 8697TIP3   OH247581   0.765   5.314   6.004  0.7964 -0.1220  0.2245
 8697TIP3    H147582   0.812   5.296   6.085 -0.1435 -0.2593  0.7477
 8697TIP3    H247583   0.729   5.402   6.015  0.4251 -0.2543  0.0718
 8698TIP3   OH247584   3.071   5.287   5.063 -0.1062  0.7488 -0.2167
 8698TIP3    H147585   3.080   5.211   5.006 -1.9665  1.7367 -1.9030
 8698TIP3    H247586   3.158   5.328   5.062  0.8322 -1.1724  0.5076
 8699TIP3   OH247587   0.688   1.154  11.163 -0.1198 -0.4953 -0.2622
 8699TIP3    H147588   0.702   1.189  11.251 -1.3342 -0.1193 -0.2070
 8699TIP3    H247589   0.775   1.152  11.123  0.4270 -0.6592  0.9429
 8700TIP3   OH247590   2.923   3.463   5.453 -0.0184 -0.0119  0.2281
 8700TIP3    H147591   2.843   3.416   5.431  1.0333 -1.3889 -0.7043
 8700TIP3    H247592   2.929   3.533   5.388 -0.1603 -0.2502 -0.0377
 8701TIP3   OH247593   6.316   5.631   2.483 -0.0731  0.0337 -0.1065
 8701TIP3    H147594   6.394   5.639   2.537  0.4490  0.3485 -0.8925
 8701TIP3    H247595   6.244   5.655   2.541  0.2481 -1.6936  1.0551
 8702TIP3   OH247596   5.199   3.003  13.806  0.1950  0.1232  0.1142
 8702TIP3    H147597   5.284   2.964  13.788  0.2940  0.5828 -0.4276
 8702TIP3    H247598   5.136   2.935  13.782  0.3487  0.5143 -1.4127
 8703TIP3   OH247599   4.358   2.305  16.859  0.3498  0.1801 -0.3823
 8703TIP3    H147600   4.276   2.262  16.837  0.6499  0.5053 -2.2567
 8703TIP3    H247601   4.346   2.338  16.948 -1.3507 -0.2375 -0.4596
 8704TIP3   OH247602   3.553   2.437  14.333 -0.2719  0.5475  0.2757
 8704TIP3    H147603   3.568   2.380  14.408 -1.4674  2.5850  2.1317
 8704TIP3    H247604   3.478   2.399  14.288  1.5909 -1.7269 -0.9953
 8705TIP3   OH247605   4.915   3.193  16.465  0.1603  0.1446 -0.0875
 8705TIP3    H147606   4.988   3.140  16.434  0.2317 -0.0072  0.3358
 8705TIP3    H247607   4.866   3.215  16.386 -0.5923 -1.6163 -0.1298
 8706TIP3   OH247608   4.001   4.261   3.561  0.0873 -0.0551 -0.0854
 8706TIP3    H147609   4.096   4.256   3.574 -0.0149 -1.1034  0.2580
 8706TIP3    H247610   3.986   4.352   3.534  1.2019  0.0846 -0.2737
 8707TIP3   OH247611   3.016   0.166  14.346 -0.4149  0.1396  0.6692
 8707TIP3    H147612   2.969   0.174  14.429  2.2461  1.4889  2.0957
 8707TIP3    H247613   3.072   0.090  14.357  0.5546  0.8099  0.4317
 8708TIP3   OH247614   0.043   4.577  11.838 -0.0028 -0.0904 -0.0462
 8708TIP3    H147615  -0.001   4.495  11.814 -0.5772  0.2182 -0.0487
 8708TIP3    H247616   0.075   4.561  11.927 -0.2027 -0.2789 -0.0071
 8709TIP3   OH247617   3.214   5.022  11.807 -0.4692  0.4585 -0.0113
 8709TIP3    H147618   3.197   5.112  11.835 -0.0627  0.2964  0.7758
 8709TIP3    H247619   3.225   4.974  11.889  1.8333  0.1782 -0.4553
 8710TIP3   OH247620   1.401   1.017   0.327 -0.2487  0.0067 -0.3008
 8710TIP3    H147621   1.357   0.995   0.245 -0.1348  1.6539 -0.8171
 8710TIP3    H247622   1.335   0.999   0.394 -0.8545  0.0664 -0.8710
 8711TIP3   OH247623   5.879   4.377  15.620 -0.2158 -0.3580 -0.8760
 8711TIP3    H147624   5.954   4.330  15.583  1.6328  1.9681 -0.1920
 8711TIP3    H247625   5.911   4.411  15.704 -2.1483  0.3883 -0.4259
 8712TIP3   OH247626   5.668   6.770   4.277  0.3117 -0.0378  0.2522
 8712TIP3    H147627   5.674   6.685   4.321 -2.1980  0.3477  1.4766
 8712TIP3    H247628   5.638   6.830   4.346  3.4646  2.1962 -0.2088
 8713TIP3   OH247629   6.154   6.365  13.485 -0.2969 -0.4055  0.4778
 8713TIP3    H147630   6.124   6.364  13.394 -0.1993  0.8981  0.4187
 8713TIP3    H247631   6.189   6.277  13.499 -0.0471 -0.5364 -0.8389
 8714TIP3   OH247632   6.378   5.239   5.406  0.7162 -0.1037  0.1425
 8714TIP3    H147633   6.329   5.217   5.327 -1.7100  1.5371  1.1589
 8714TIP3    H247634   6.313   5.239   5.476  2.5163  0.2625  1.8620
 8715TIP3   OH247635   0.129   3.118   0.601 -0.5545 -0.3602  0.0264
 8715TIP3    H147636   0.097   3.099   0.689 -0.4169 -0.3362  0.0815
 8715TIP3    H247637   0.186   3.194   0.611  1.3956 -1.8024  0.3155
 8716TIP3   OH247638   4.687   3.526  17.210  0.4767  0.0912  0.1465
 8716TIP3    H147639   4.742   3.557  17.282  0.3633 -2.6639  1.4894
 8716TIP3    H247640   4.607   3.579  17.217 -0.0336 -0.9211  2.8428
 8717TIP3   OH247641   0.554   5.381  11.375 -0.8215 -0.3055 -0.1384
 8717TIP3    H147642   0.585   5.464  11.410  0.5776 -0.0135 -2.0214
 8717TIP3    H247643   0.578   5.382  11.283 -1.2391 -2.5844 -0.3188
 8718TIP3   OH247644   5.163   4.777   3.295 -0.5187  0.2197 -1.1563
 8718TIP3    H147645   5.095   4.795   3.230 -0.3282  0.7447 -1.2134
 8718TIP3    H247646   5.125   4.803   3.378 -0.6809 -0.2405 -1.0886
 8719TIP3   OH247647   6.617   3.408  10.968 -0.4435  0.1849 -0.3500
 8719TIP3    H147648   6.575   3.425  10.884 -0.2588  1.0325 -0.2749
 8719TIP3    H247649   6.640   3.495  11.001  2.0352 -0.2915 -0.7342
 8720TIP3   OH247650   0.430   2.167   1.390  0.6672 -0.0409  0.5487
 8720TIP3    H147651   0.375   2.140   1.463  0.1142  1.1201  0.5746
 8720TIP3    H247652   0.495   2.226   1.429  0.4843  0.4362  0.1335
 8721TIP3   OH247653   5.167   1.922   3.975 -0.6122 -0.3681 -0.1543
 8721TIP3    H147654   5.154   1.991   3.910 -1.0052  0.7170  1.0683
 8721TIP3    H247655   5.147   1.841   3.927 -0.5185  0.3740 -1.4893
 8722TIP3   OH247656   0.948   6.327   5.660 -0.8516  0.1119 -0.3148
 8722TIP3    H147657   0.910   6.404   5.619 -0.9776  0.1742 -0.0785
 8722TIP3    H247658   0.920   6.331   5.751 -0.0476  0.3129 -0.0690
 8723TIP3   OH247659   4.508   1.422  16.862  0.2875  0.2512  0.1762
 8723TIP3    H147660   4.455   1.449  16.786  0.1823 -0.1193  0.1120
 8723TIP3    H247661   4.456   1.353  16.903  0.5690  0.1169  0.3097
 8724TIP3   OH247662   0.660   4.377   0.574 -0.0886  0.0309 -0.9339
 8724TIP3    H147663   0.624   4.450   0.626  2.8738  0.8961 -0.0212
 8724TIP3    H247664   0.743   4.410   0.540 -0.1041 -1.9388 -2.9795
 8725TIP3   OH247665   0.385   4.153   3.950 -0.2181 -0.1358  0.0486
 8725TIP3    H147666   0.432   4.159   3.867 -0.5893  0.6076 -0.1159
 8725TIP3    H247667   0.299   4.192   3.932  0.0141  0.8552  0.9966
 8726TIP3   OH247668   3.491   2.179   1.496  0.0078 -0.0051 -0.2290
 8726TIP3    H147669   3.506   2.085   1.489  0.9422  0.1608 -0.5316
 8726TIP3    H247670   3.470   2.193   1.588  0.9694 -0.3666  0.0539
 8727TIP3   OH247671   5.085   1.950   3.324 -0.6696  0.0092 -0.0045
 8727TIP3    H147672   5.083   2.027   3.381 -0.7245  1.4780 -1.9515
 8727TIP3    H247673   4.995   1.940   3.294 -0.9723 -1.7244  1.3812
 8728TIP3   OH247674   3.333   3.741   4.218  0.4268 -0.0600  0.2895
 8728TIP3    H147675   3.293   3.723   4.303 -1.4495 -0.1194 -0.5927
 8728TIP3    H247676   3.336   3.657   4.174  0.5145  0.1364 -0.0820
 8729TIP3   OH247677   5.713   1.046   3.084 -0.0334 -0.0078 -0.4707
 8729TIP3    H147678   5.786   1.060   3.145 -0.0361  0.0320 -0.4767
 8729TIP3    H247679   5.638   1.085   3.128  0.2548  1.3266 -1.1387
 8730TIP3   OH247680   3.551   2.777  15.937  0.0124 -0.4973 -0.2316
 8730TIP3    H147681   3.515   2.844  15.996 -0.0902 -1.5645  0.9484
 8730TIP3    H247682   3.643   2.802  15.928 -0.0404 -0.1465  0.1341
 8731TIP3   OH247683   0.606   1.574   2.476 -0.1688  0.2861  0.0541
 8731TIP3    H147684   0.618   1.507   2.409 -0.7034  0.2822 -0.0362
 8731TIP3    H247685   0.656   1.541   2.552 -0.3363 -0.1545 -0.0269
 8732TIP3   OH247686   6.400   5.052   3.726  0.3553  0.3068  0.1106
 8732TIP3    H147687   6.387   5.030   3.819  1.0701  0.8983  0.3569
 8732TIP3    H247688   6.409   4.968   3.682 -0.2753  0.0093  0.5351
 8733TIP3   OH247689   1.169   0.999   6.324  0.0414 -0.4228 -0.0827
 8733TIP3    H147690   1.203   0.944   6.254  1.0709 -0.3988  0.3879
 8733TIP3    H247691   1.086   0.958   6.349  1.1555 -2.1848  0.7671
 8734TIP3   OH247692   1.601   0.009   5.871 -0.0247  0.0788  0.1018
 8734TIP3    H147693   1.615   0.061   5.950  0.2269 -0.0053  0.1127
 8734TIP3    H247694   1.659   0.049   5.806 -0.7352  0.5708 -0.2309
 8735TIP3   OH247695   3.641   0.868  17.038  0.4323 -0.1926  0.0410
 8735TIP3    H147696   3.636   0.773  17.025  2.8029 -0.3283 -0.0450
 8735TIP3    H247697   3.572   0.887  17.102  0.8181 -2.1691  1.0975
 8736TIP3   OH247698   3.054   5.029   0.419 -0.3631  0.6205  0.4236
 8736TIP3    H147699   3.036   4.954   0.363  1.3543  0.1854  0.4074
 8736TIP3    H247700   3.150   5.031   0.426 -0.5503 -0.8747  5.3989
 8737TIP3   OH247701   5.545   3.989  12.248 -0.6031 -0.2052  0.2648
 8737TIP3    H147702   5.462   4.026  12.279 -0.6957 -0.3147  0.1459
 8737TIP3    H247703   5.543   3.897  12.276 -0.6559 -0.2854 -0.0061
 8738TIP3   OH247704   1.659   5.031  14.370  0.2116 -0.0261 -0.4925
 8738TIP3    H147705   1.588   5.029  14.306  0.0962 -0.1647 -0.3597
 8738TIP3    H247706   1.738   5.013  14.319  0.1894  0.4216 -0.6867
 8739TIP3   OH247707   4.025   2.913   0.238 -0.2235 -0.2286 -0.4465
 8739TIP3    H147708   4.095   2.849   0.251  0.0967 -0.2833 -2.3805
 8739TIP3    H247709   3.952   2.878   0.290  0.0715 -1.9685 -1.1465
 8740TIP3   OH247710   3.177   4.609   5.709  0.0184  0.4338 -0.4601
 8740TIP3    H147711   3.211   4.614   5.620  0.1878 -0.5948 -0.4608
 8740TIP3    H247712   3.119   4.532   5.708  1.8292 -1.0002  0.9017
 8741TIP3   OH247713   0.015   4.789   2.858  0.4105  0.1943 -0.3453
 8741TIP3    H147714  -0.013   4.727   2.924 -0.1143  0.0638 -0.6883
 8741TIP3    H247715   0.104   4.813   2.884 -0.1794  0.9741  1.0003
 8742TIP3   OH247716   4.498   2.398   2.156 -0.0597 -0.0578 -0.6621
 8742TIP3    H147717   4.589   2.406   2.130 -0.3536  1.1840 -1.3576
 8742TIP3    H247718   4.467   2.318   2.112  1.1483 -1.4775  1.0150
 8743TIP3   OH247719   4.850   5.937   5.263  0.0537  0.1279  0.2280
 8743TIP3    H147720   4.846   5.947   5.359 -0.2239  0.1427  0.2158
 8743TIP3    H247721   4.944   5.932   5.244  0.1744  1.6792  0.3482
 8744TIP3   OH247722   5.491   0.244   2.218  0.2111  0.4808  0.7588
 8744TIP3    H147723   5.516   0.174   2.156  0.7831  1.0504  0.3433
 8744TIP3    H247724   5.421   0.205   2.270 -1.5384  0.5913 -1.4505
 8745TIP3   OH247725   6.240   1.826  13.402 -0.5104 -0.4343  0.4390
 8745TIP3    H147726   6.221   1.734  13.387 -0.1671 -0.1905 -1.6726
 8745TIP3    H247727   6.332   1.828  13.428  0.2230 -0.4868 -2.0501
 8746TIP3   OH247728   4.787   6.799   1.293 -0.2080 -0.4119  0.3876
 8746TIP3    H147729   4.839   6.868   1.252  0.2210 -1.0518 -0.1506
 8746TIP3    H247730   4.697   6.816   1.264  0.0431 -0.6628 -0.5434
 8747TIP3   OH247731   4.812   0.779  15.323 -0.3489 -0.1941 -0.9950
 8747TIP3    H147732   4.876   0.847  15.304  0.0304 -0.3666 -0.3779
 8747TIP3    H247733   4.793   0.789  15.416 -1.3618 -0.0326 -1.2137
 8748TIP3   OH247734   2.557   1.313  12.079 -0.1032 -0.2775  0.1418
 8748TIP3    H147735   2.544   1.313  12.174  3.2344  0.9223  0.6735
 8748TIP3    H247736   2.643   1.273  12.067 -0.0447  0.4917 -2.3135
 8749TIP3   OH247737   5.371   1.926   3.397 -0.1157  0.0501 -0.1351
 8749TIP3    H147738   5.288   1.927   3.350 -1.7952 -0.4585  2.6941
 8749TIP3    H247739   5.438   1.938   3.329 -2.3994 -0.9574 -2.6354
 8750TIP3   OH247740   6.533   2.535   4.097  0.3014  0.2078  0.3087
 8750TIP3    H147741   6.537   2.544   4.002  0.0414 -1.7769  0.1055
 8750TIP3    H247742   6.441   2.549   4.119  0.1522 -0.4869  0.1400
 8751TIP3   OH247743   0.793   5.917   2.627  0.5175 -0.3866 -0.8630
 8751TIP3    H147744   0.711   5.891   2.669  1.4518 -1.5656  0.2541
 8751TIP3    H247745   0.765   5.969   2.551 -1.1991  1.3985  0.9121
 8752TIP3   OH247746   4.898   1.801   3.547  0.6463 -0.0118  0.0110
 8752TIP3    H147747   4.929   1.718   3.511  0.4128  0.5325 -1.4777
 8752TIP3    H247748   4.907   1.864   3.475 -3.0941  0.3645 -0.2468
 8753TIP3   OH247749   5.043   3.852   2.156  0.2685  0.6443 -0.4353
 8753TIP3    H147750   5.084   3.772   2.123  2.9829  1.1911  1.4646
 8753TIP3    H247751   5.083   3.922   2.106 -1.6064  0.9278 -1.6102
 8754TIP3   OH247752   3.552   2.975  15.337 -0.7125 -0.0304  0.2538
 8754TIP3    H147753   3.473   3.015  15.299  0.7418  0.9238 -1.9090
 8754TIP3    H247754   3.616   2.978  15.266  0.6923 -2.5662  1.3620
 8755TIP3   OH247755   6.371   4.294  15.712 -0.4156  0.1823  0.0742
 8755TIP3    H147756   6.399   4.380  15.742  0.6514 -0.4938  1.0902
 8755TIP3    H247757   6.387   4.236  15.787  0.3375 -1.1769 -1.1130
 8756TIP3   OH247758   1.195   0.945   0.518  0.5441  0.5825 -0.9694
 8756TIP3    H147759   1.234   0.971   0.602 -1.0522 -0.3587  0.0800
 8756TIP3    H247760   1.122   1.006   0.505  1.3085  1.2798 -2.1233
 8757TIP3   OH247761   4.303   1.683  15.093  0.6888 -0.1676 -0.2433
 8757TIP3    H147762   4.337   1.763  15.053  2.2081 -1.6891 -2.1220
 8757TIP3    H247763   4.209   1.685  15.073  1.1191 -0.0228 -2.4660
 8758TIP3   OH247764   3.504   2.231   2.960  0.4979  0.5142  0.4030
 8758TIP3    H147765   3.578   2.240   2.901  0.5681  0.1779  0.4371
 8758TIP3    H247766   3.516   2.300   3.026  1.0626  0.1179  0.7149
 8759TIP3   OH247767   0.370   5.359   6.074  0.8270  0.3370  0.2850
 8759TIP3    H147768   0.426   5.393   6.143  0.9244 -1.4111  1.0977
 8759TIP3    H247769   0.379   5.422   6.002  2.8690  0.7153  0.8498
 8760TIP3   OH247770   0.336   0.834   6.256 -0.2025  0.7018 -0.1860
 8760TIP3    H147771   0.359   0.907   6.313  1.9453  1.8743 -2.4795
 8760TIP3    H247772   0.304   0.766   6.316 -0.4614  2.8081  2.1432
 8761TIP3   OH247773   0.001   3.399   2.922  0.1702 -0.0561  0.0379
 8761TIP3    H147774   0.077   3.347   2.896  1.4247  1.9288 -0.3501
 8761TIP3    H247775  -0.066   3.377   2.857  2.1552  2.1845 -2.8539
 8762TIP3   OH247776   5.124   6.569  13.121  0.2506 -0.2158  0.2309
 8762TIP3    H147777   5.065   6.556  13.047 -0.2726 -0.1558  0.6357
 8762TIP3    H247778   5.125   6.664  13.136 -0.7206 -0.3405  1.1654
 8763TIP3   OH247779   3.068   5.852  13.035  0.1478 -0.2361 -0.7530
 8763TIP3    H147780   3.131   5.792  13.074  1.5324  0.3345 -2.0889
 8763TIP3    H247781   3.012   5.797  12.981  1.0796 -0.4070 -1.5482
 8764TIP3   OH247782   3.464   0.323  11.251  0.9241  0.2738 -0.1844
 8764TIP3    H147783   3.370   0.314  11.232  0.7098  0.3163  0.8209
 8764TIP3    H247784   3.507   0.289  11.173  0.0668  0.3930 -0.7176
 8765TIP3   OH247785   4.664   6.300  13.713  0.3655  0.1727  0.3094
 8765TIP3    H147786   4.596   6.362  13.739  2.2277  1.3483  2.5108
 8765TIP3    H247787   4.654   6.226  13.774  0.3238 -0.1807 -0.1199
 8766TIP3   OH247788   2.253   1.040   2.308  0.0760  0.6251  0.3584
 8766TIP3    H147789   2.214   1.127   2.298 -0.3949  0.4168  0.4037
 8766TIP3    H247790   2.347   1.056   2.306 -0.0094  1.0950 -0.0165
 8767TIP3   OH247791   5.324   3.511   5.972  0.1245 -0.0959  0.0448
 8767TIP3    H147792   5.410   3.507   5.930 -0.0356  0.1004 -0.3173
 8767TIP3    H247793   5.342   3.515   6.065  0.5216  0.3374 -0.0497
 8768TIP3   OH247794   6.793   5.896  14.265  0.2043  0.0739 -0.0057
 8768TIP3    H147795   6.800   5.819  14.321 -1.3671 -0.2025 -0.1585
 8768TIP3    H247796   6.703   5.927  14.277 -0.0358  0.2612 -2.0148
 8769TIP3   OH247797   0.299   6.202   3.156  0.1987 -0.1188  0.7628
 8769TIP3    H147798   0.372   6.182   3.215  1.7081 -1.1529 -1.4027
 8769TIP3    H247799   0.260   6.117   3.137  0.9093 -0.0440 -1.1889
 8770TIP3   OH247800   4.993   2.936   1.423 -0.0385  0.1079  0.1702
 8770TIP3    H147801   4.968   2.855   1.468  0.9680 -0.7910 -0.8447
 8770TIP3    H247802   4.914   2.962   1.375 -1.2409  1.2934  2.7135
 8771TIP3   OH247803   2.873   1.904  13.762  0.2754 -0.2488  0.3919
 8771TIP3    H147804   2.872   1.980  13.704 -0.1754 -1.0504 -0.6676
 8771TIP3    H247805   2.965   1.884  13.775  0.3754 -0.2518 -0.3071
 8772TIP3   OH247806   1.246   0.694  14.849 -0.2562  0.3011 -0.1615
 8772TIP3    H147807   1.276   0.782  14.872  0.6381  0.0492 -0.3510
 8772TIP3    H247808   1.212   0.703  14.760  0.4126  0.3163 -0.4124
 8773TIP3   OH247809   5.305   2.862   2.849  0.0566 -0.4457  0.2541
 8773TIP3    H147810   5.240   2.799   2.880 -0.2506  0.1627  0.8487
 8773TIP3    H247811   5.253   2.937   2.818  0.5111  0.7912  2.3600
 8774TIP3   OH247812   5.185   4.091   4.860 -0.2983  0.3486  0.7834
 8774TIP3    H147813   5.116   4.053   4.806  0.0008 -1.9649  1.9900
 8774TIP3    H247814   5.252   4.023   4.865  1.1157  1.7578  1.4020
 8775TIP3   OH247815   4.729   1.020   4.113  0.3149 -0.4097  0.1020
 8775TIP3    H147816   4.685   1.096   4.076  0.8439 -0.9025 -1.5693
 8775TIP3    H247817   4.819   1.048   4.127  0.3343 -0.4997  0.1570
 8776TIP3   OH247818   1.603   6.108   2.567  0.3972 -0.1648 -0.1551
 8776TIP3    H147819   1.661   6.183   2.550  1.8914 -1.3460 -0.3931
 8776TIP3    H247820   1.596   6.104   2.662  2.3971 -1.2561 -0.0383
 8777TIP3   OH247821   3.178   1.544   1.105  0.7085  0.4143  0.4604
 8777TIP3    H147822   3.131   1.517   1.026 -1.4687  2.4879  0.9815
 8777TIP3    H247823   3.237   1.613   1.075  1.1897 -0.0508  0.3360
 8778TIP3   OH247824   1.542   6.660   2.648 -0.4263  0.1943 -0.4180
 8778TIP3    H147825   1.627   6.668   2.605 -1.8211 -1.0980 -3.5127
 8778TIP3    H247826   1.493   6.738   2.620 -1.5553 -0.9535 -1.6942
 8779TIP3   OH247827   5.624   2.948  11.896  0.0224  0.3244  0.3267
 8779TIP3    H147828   5.541   2.902  11.881  0.0921  0.6578 -1.2177
 8779TIP3    H247829   5.691   2.883  11.872  0.1183  1.2653 -2.0485
 8780TIP3   OH247830   3.535   3.169   1.963 -0.5152  0.5713 -0.5197
 8780TIP3    H147831   3.525   3.186   2.056 -1.0378  0.6064 -0.5789
 8780TIP3    H247832   3.552   3.255   1.924  0.3547  0.4717 -0.3807
 8781TIP3   OH247833   5.864   4.470  15.008 -0.4056 -0.0435  0.3018
 8781TIP3    H147834   5.872   4.562  15.036  0.2783 -0.1965  0.6072
 8781TIP3    H247835   5.939   4.426  15.048  0.2464 -0.3926 -1.2799
 8782TIP3   OH247836   0.637   4.425  15.218  0.3336  0.1865  0.0107
 8782TIP3    H147837   0.648   4.396  15.308  0.3770  3.8767  1.2920
 8782TIP3    H247838   0.543   4.422  15.203  0.1977  0.9407  0.6938
 8783TIP3   OH247839   4.077   2.030  12.619  0.2683  0.5127 -0.1771
 8783TIP3    H147840   4.097   1.941  12.649 -0.0119  0.4663 -0.1271
 8783TIP3    H247841   4.095   2.028  12.525  0.6668  0.5209 -0.1029
 8784TIP3   OH247842   4.284   3.484   2.084  0.2080  0.6185  0.6827
 8784TIP3    H147843   4.203   3.438   2.106 -0.3884  1.9255  1.2506
 8784TIP3    H247844   4.330   3.493   2.167  0.7517  0.2394  0.4243
 8785TIP3   OH247845   0.643   6.689  16.921  0.2081 -0.4906 -0.0875
 8785TIP3    H147846   0.738   6.698  16.916  0.3142 -0.5028  1.8022
 8785TIP3    H247847   0.628   6.595  16.926  0.0660 -0.5058 -0.7185
 8786TIP3   OH247848   6.152   4.895   4.479 -0.2036  0.6932 -0.0566
 8786TIP3    H147849   6.161   4.946   4.559  0.6441 -1.8325  1.5234
 8786TIP3    H247850   6.068   4.850   4.488 -1.3643  2.3817 -1.8353
 8787TIP3   OH247851   1.475   2.752   0.638 -0.4456 -0.0272  0.3408
 8787TIP3    H147852   1.540   2.715   0.578 -2.0668 -3.1143  0.4337
 8787TIP3    H247853   1.424   2.813   0.583  1.3335  1.0469 -0.1505
 8788TIP3   OH247854   0.731   6.312   1.906 -0.5247 -0.3463 -0.2005
 8788TIP3    H147855   0.637   6.304   1.920 -0.6490  0.5760 -0.4455
 8788TIP3    H247856   0.771   6.279   1.987 -1.1060  0.7461  0.5511
 8789TIP3   OH247857   5.437   4.167  16.502  0.0278 -0.0416 -0.0967
 8789TIP3    H147858   5.356   4.120  16.486  0.8944 -1.6510  0.1211
 8789TIP3    H247859   5.462   4.143  16.592 -0.5506  2.4432  0.7832
 8790TIP3   OH247860   0.538   5.608  11.764 -0.2710  0.9412  0.2984
 8790TIP3    H147861   0.542   5.563  11.849 -0.4905  0.9483  0.3114
 8790TIP3    H247862   0.623   5.589  11.724 -0.9502 -0.8063 -0.3720
 8791TIP3   OH247863   1.470   5.260  10.591 -0.1714 -0.1220 -0.0017
 8791TIP3    H147864   1.480   5.177  10.637  0.6011  0.4773  0.9348
 8791TIP3    H247865   1.385   5.253  10.547 -0.6062 -0.9787  0.9617
 8792TIP3   OH247866   0.944   3.445   0.427 -0.3150 -0.0496 -0.2222
 8792TIP3    H147867   1.005   3.518   0.413 -0.8329  0.4195 -0.0594
 8792TIP3    H247868   0.992   3.384   0.484 -1.2480  1.9330  2.7912
 8793TIP3   OH247869   5.695   6.019  15.196  0.0570  0.3139 -1.2049
 8793TIP3    H147870   5.633   6.092  15.197 -1.8097 -1.2559  0.5563
 8793TIP3    H247871   5.656   5.955  15.137 -1.5584 -1.9154  2.1262
 8794TIP3   OH247872   0.105   0.570   0.523  0.1939  0.1335  0.1169
 8794TIP3    H147873   0.130   0.627   0.450  1.3438 -1.3268 -0.6544
 8794TIP3    H247874   0.174   0.504   0.527 -1.2792 -1.4010  0.7900
 8795TIP3   OH247875   0.143   2.063   2.811  0.3415  0.1369  0.1459
 8795TIP3    H147876   0.055   2.065   2.848 -0.6695  2.0674 -2.2272
 8795TIP3    H247877   0.141   1.993   2.746  0.2508  0.8413 -0.6151
 8796TIP3   OH247878   1.191   0.425  14.025 -0.1140  0.0302  0.1595
 8796TIP3    H147879   1.174   0.348  14.080 -0.5987  0.3640  0.4761
 8796TIP3    H247880   1.155   0.498  14.075  0.7429  0.5244  0.0583
 8797TIP3   OH247881   1.066   3.122  15.057  0.6845  0.1282  0.1036
 8797TIP3    H147882   1.009   3.080  15.121  1.5646  0.6731  1.2738
 8797TIP3    H247883   1.011   3.136  14.980 -1.0590  1.7015  1.6065
 8798TIP3   OH247884   2.489   2.277  15.472  0.0085  0.0066 -0.0711
 8798TIP3    H147885   2.416   2.338  15.464 -1.0646 -1.4141 -1.1766
 8798TIP3    H247886   2.458   2.209  15.531  1.3664  0.7201  1.5223
 8799TIP3   OH247887   3.748   2.472  13.845 -0.4109  0.6864  0.4599
 8799TIP3    H147888   3.709   2.451  13.930  0.4385  1.0932  0.9536
 8799TIP3    H247889   3.770   2.565  13.851  0.0281  0.6198 -0.0519
 8800TIP3   OH247890   4.659   6.158  12.867  0.1444  0.8812  0.0814
 8800TIP3    H147891   4.655   6.166  12.963 -0.0101  0.8155  0.0798
 8800TIP3    H247892   4.719   6.085  12.852 -1.2010 -0.2813  0.1789
 8801TIP3   OH247893   0.149   1.981   4.574 -0.1039 -0.4450  0.6704
 8801TIP3    H147894   0.179   2.026   4.495 -2.1891 -0.5727 -0.2305
 8801TIP3    H247895   0.056   2.002   4.580  0.0519 -0.2384  3.2539
 8802TIP3   OH247896   3.169   2.683  15.711  0.0432 -0.3470  0.1715
 8802TIP3    H147897   3.244   2.724  15.669  1.3485 -0.2951  2.5043
 8802TIP3    H247898   3.199   2.659  15.798 -1.7930 -2.9557  0.1569
 8803TIP3   OH247899   1.131   2.780  12.323 -0.1808  0.5185  0.3331
 8803TIP3    H147900   1.195   2.745  12.261 -2.3651 -0.2650 -1.5287
 8803TIP3    H247901   1.153   2.873  12.330  2.1509 -0.0499  0.9787
 8804TIP3   OH247902   2.653   0.756   5.551 -0.2896  0.5656  0.5238
 8804TIP3    H147903   2.736   0.710   5.545 -0.6222 -0.4683  3.2615
 8804TIP3    H247904   2.677   0.848   5.566  0.3331  0.4291  0.3781
 8805TIP3   OH247905   4.862   1.292  14.788 -0.6315  0.3390  0.0717
 8805TIP3    H147906   4.880   1.343  14.709 -0.0632 -3.2287 -2.2162
 8805TIP3    H247907   4.935   1.312  14.847  0.1358  1.3522 -1.2092
 8806TIP3   OH247908   5.485   6.610   0.237  0.0347  0.4906  0.4475
 8806TIP3    H147909   5.541   6.688   0.238 -0.8730  1.2028 -1.0757
 8806TIP3    H247910   5.425   6.626   0.164 -3.0504  0.4070  2.8807
 8807TIP3   OH247911   0.146   4.868  11.720 -0.0967  0.2415 -0.1078
 8807TIP3    H147912   0.148   4.847  11.814  1.6110  0.4023 -0.0835
 8807TIP3    H247913   0.170   4.960  11.716 -1.3720  0.5588 -0.6390
 8808TIP3   OH247914   4.474   3.255  12.849  0.3841  0.1593 -0.1450
 8808TIP3    H147915   4.526   3.183  12.814 -1.3808 -0.3660 -1.8245
 8808TIP3    H247916   4.407   3.212  12.902 -0.8849  0.4979 -1.4281
 8809TIP3   OH247917   5.811   4.243  12.397  0.3902 -0.1141 -0.9534
 8809TIP3    H147918   5.870   4.277  12.330  2.4684 -0.0949  0.8254
 8809TIP3    H247919   5.862   4.175  12.442 -1.6301 -1.4791 -0.6411
 8810TIP3   OH247920   6.004   6.086  15.602  0.3133  0.0279  0.5683
 8810TIP3    H147921   6.017   6.060  15.511 -1.4845 -1.0558  0.5914
 8810TIP3    H247922   6.009   6.182  15.601  0.8746 -0.0065 -0.5605
 8811TIP3   OH247923   4.959   2.034   2.475  0.3242 -0.1322  0.0657
 8811TIP3    H147924   5.025   2.035   2.543 -0.6750  0.0764  1.0447
 8811TIP3    H247925   4.879   2.063   2.518 -0.7924 -1.9805 -0.6945
 8812TIP3   OH247926   4.905   2.006  11.204  0.0474 -0.8138  0.2885
 8812TIP3    H147927   4.953   1.982  11.125  1.3530  0.6462  0.6046
 8812TIP3    H247928   4.965   2.063  11.252 -0.9831 -1.1392  2.0162
 8813TIP3   OH247929   3.499   2.356   2.513 -0.0021 -0.4922  0.1332
 8813TIP3    H147930   3.482   2.388   2.602  1.3637 -0.4533  0.4022
 8813TIP3    H247931   3.541   2.430   2.470 -0.4536 -0.5921 -0.4778
 8814TIP3   OH247932   4.297   3.524  15.960 -0.2607 -0.2171 -0.0836
 8814TIP3    H147933   4.258   3.610  15.942  0.2581  0.3777  1.5114
 8814TIP3    H247934   4.324   3.492  15.874  0.6646  1.7715 -0.5669
 8815TIP3   OH247935   3.497   1.506  11.541 -0.1442 -0.1872  0.4848
 8815TIP3    H147936   3.506   1.460  11.625  0.4518 -1.6753 -0.3772
 8815TIP3    H247937   3.411   1.477  11.508 -0.2752  0.2182  0.4728
 8816TIP3   OH247938   1.976   3.948   3.689  0.8907  0.1261  0.6142
 8816TIP3    H147939   2.002   3.926   3.600 -2.2395  1.3764 -0.6729
 8816TIP3    H247940   2.005   4.038   3.701 -0.8080  0.7659 -0.0184
 8817TIP3   OH247941   6.126   5.282   3.212  0.2559  0.0040  0.8754
 8817TIP3    H147942   6.215   5.256   3.191  0.6123  2.2079 -0.5245
 8817TIP3    H247943   6.132   5.376   3.230 -1.3317 -0.3618  3.5621
 8818TIP3   OH247944   5.175   3.361   2.981 -0.6025  0.1035 -0.6354
 8818TIP3    H147945   5.195   3.290   3.041 -0.5659 -0.2187 -1.0280
 8818TIP3    H247946   5.079   3.360   2.975 -0.7226  1.2906  0.8123
 8819TIP3   OH247947   1.129   3.151  14.625  0.1518  0.5667 -0.4689
 8819TIP3    H147948   1.150   3.076  14.681  0.3894  1.0016  0.0310
 8819TIP3    H247949   1.045   3.183  14.659  2.2555  3.3632  2.3636
 8820TIP3   OH247950   3.830   2.875  12.090  0.1641 -0.1754 -0.5916
 8820TIP3    H147951   3.813   2.798  12.035  0.6170  0.2184 -1.2898
 8820TIP3    H247952   3.822   2.949  12.030 -1.9793  0.4454  0.4550
 8821TIP3   OH247953   4.316   0.849  13.386 -0.2415 -0.4944  0.0084
 8821TIP3    H147954   4.249   0.916  13.374 -0.0338 -0.2029  0.4447
 8821TIP3    H247955   4.291   0.778  13.326 -1.4407 -0.7793  0.8310
 8822TIP3   OH247956   2.098   3.462   3.119  0.0461 -0.2972  0.9001
 8822TIP3    H147957   2.151   3.539   3.141 -0.2462  0.0487  0.4090
 8822TIP3    H247958   2.138   3.390   3.169  2.0414 -0.3879 -0.7633
 8823TIP3   OH247959   3.328   0.362  10.727 -0.0037 -0.0067 -0.4553
 8823TIP3    H147960   3.421   0.341  10.727 -0.2490 -1.1894  0.5362
 8823TIP3    H247961   3.321   0.437  10.787  0.1587 -0.6864  0.4223
 8824TIP3   OH247962   0.542   5.444   2.945 -0.2127 -0.2861  0.1115
 8824TIP3    H147963   0.453   5.408   2.945 -0.8652  1.2459 -0.7796
 8824TIP3    H247964   0.598   5.371   2.920 -1.2861 -1.1247  0.1275
 8825TIP3   OH247965   0.829   3.738  15.373  0.1302  0.0953 -0.3419
 8825TIP3    H147966   0.843   3.681  15.298 -2.0657  0.6176 -1.1839
 8825TIP3    H247967   0.738   3.721  15.399  0.1498  1.5904  0.7742
 8826TIP3   OH247968   1.898   5.323  13.755  0.1050  0.4974  0.0827
 8826TIP3    H147969   1.840   5.399  13.750 -0.6962 -0.1282 -0.2674
 8826TIP3    H247970   1.980   5.357  13.791 -0.0543  1.6386 -0.6197
 8827TIP3   OH247971   2.510   0.702  15.583 -0.5767  0.1374 -0.2140
 8827TIP3    H147972   2.426   0.701  15.627 -1.6161 -0.7378 -2.1340
 8827TIP3    H247973   2.496   0.757  15.506  0.8371  0.6327 -0.1419
 8828TIP3   OH247974   6.307   2.712   2.619 -0.3767 -0.1228 -0.7571
 8828TIP3    H147975   6.280   2.804   2.612  0.9840  0.5786  2.2978
 8828TIP3    H247976   6.366   2.698   2.545  0.9719  2.0677 -0.1364
 8829TIP3   OH247977   4.540   3.051   2.005 -0.6907 -0.1725  0.2130
 8829TIP3    H147978   4.459   3.057   1.954 -0.7527 -1.0528  0.2056
 8829TIP3    H247979   4.533   3.121   2.070 -0.4312  1.2108 -1.2304
 8830TIP3   OH247980   4.695   5.182   1.011  0.3771  0.0527 -0.1546
 8830TIP3    H147981   4.778   5.175   0.963 -0.3339 -0.9046 -1.2447
 8830TIP3    H247982   4.631   5.137   0.957 -0.5347 -0.6678  1.4688
 8831TIP3   OH247983   2.628   0.333   2.865 -0.4717  0.3981  0.4019
 8831TIP3    H147984   2.669   0.251   2.837 -1.8016  0.0777 -0.6602
 8831TIP3    H247985   2.561   0.306   2.928 -1.2640  0.6175 -0.3423
 8832TIP3   OH247986   4.396   2.620   1.003  0.0620 -0.0196  0.1657
 8832TIP3    H147987   4.304   2.642   1.018 -0.2325  0.3926 -2.1495
 8832TIP3    H247988   4.403   2.608   0.909  2.0484 -1.6555  0.4767
 8833TIP3   OH247989   2.609   6.228  11.184 -0.4350  0.1157 -0.0241
 8833TIP3    H147990   2.594   6.264  11.096  1.7401  0.0377 -0.4586
 8833TIP3    H247991   2.690   6.178  11.175 -1.0275 -1.1919  1.6708
 8834TIP3   OH247992   3.719   2.597   2.843 -0.0181 -0.1189  0.2699
 8834TIP3    H147993   3.697   2.673   2.896  0.6060  0.9526 -0.9819
 8834TIP3    H247994   3.666   2.606   2.764 -0.7403 -1.5524  0.5766
 8835TIP3   OH247995   1.105   5.235  11.757 -0.0634 -0.2695  0.4345
 8835TIP3    H147996   1.141   5.167  11.814 -0.4125 -0.9087 -0.0912
 8835TIP3    H247997   1.040   5.280  11.811 -0.4551 -0.9270  0.5123
 8836TIP3   OH247998   4.154   5.566  16.578 -0.1544 -0.1518 -0.8107
 8836TIP3    H147999   4.123   5.479  16.601  1.3353 -0.6314 -0.5794
 8836TIP3    H248000   4.234   5.577  16.629 -2.7746  3.2446  2.8663
 8837TIP3   OH248001   5.468   4.337   3.984  0.3195  0.0179  0.0234
 8837TIP3    H148002   5.466   4.275   3.911  1.2349  2.6162 -2.2892
 8837TIP3    H248003   5.377   4.362   3.997 -0.0140 -1.5580  0.7556
 8838TIP3   OH248004   5.150   1.298  12.107  0.3652 -0.4845  0.7081
 8838TIP3    H148005   5.211   1.235  12.145 -1.4433 -1.9982  1.1851
 8838TIP3    H248006   5.117   1.348  12.182  1.4785  0.7886  0.3766
 8839TIP3   OH248007   5.272   6.062   2.450 -0.6120 -0.0269  0.2135
 8839TIP3    H148008   5.186   6.102   2.436 -0.9133 -0.1977  1.5449
 8839TIP3    H248009   5.291   6.077   2.542  0.5683 -0.4470  0.0521
 8840TIP3   OH248010   3.064   4.553   6.217  0.7536 -0.0816 -0.5831
 8840TIP3    H148011   3.141   4.574   6.269  1.4462 -0.2491 -1.5236
 8840TIP3    H248012   3.034   4.469   6.252  0.6720  0.2577  0.1542
 8841TIP3   OH248013   6.448   2.611  15.947  0.2304  0.2502  0.1128
 8841TIP3    H148014   6.485   2.694  15.919 -1.4510  1.1588  0.5356
 8841TIP3    H248015   6.356   2.615  15.921  0.0455 -1.3340  0.4422
 8842TIP3   OH248016   5.654   4.528   2.156 -0.3175  0.4024  0.5770
 8842TIP3    H148017   5.571   4.574   2.156 -0.5240  0.0309 -0.1416
 8842TIP3    H248018   5.646   4.463   2.086 -0.2890 -1.1763  1.9937
 8843TIP3   OH248019   4.288   2.910   1.771 -0.0213  0.0426  0.2236
 8843TIP3    H148020   4.281   2.980   1.837  1.0787  0.0059  0.3940
 8843TIP3    H248021   4.241   2.944   1.695 -1.5315 -0.0131  1.0995
 8844TIP3   OH248022   2.259   3.764  11.638  0.1007 -0.6391  0.6933
 8844TIP3    H148023   2.337   3.738  11.686  0.5709 -0.2258  0.1499
 8844TIP3    H248024   2.204   3.685  11.637  0.2763 -0.7768  1.5219
 8845TIP3   OH248025   0.478   5.440   2.047 -0.7501 -0.0823 -0.0248
 8845TIP3    H148026   0.478   5.517   1.990  0.4821 -0.7439 -0.9521
 8845TIP3    H248027   0.552   5.455   2.107 -0.0567 -0.8723 -0.6762
 8846TIP3   OH248028   3.510   3.263   0.824  0.0688  0.0534 -0.6715
 8846TIP3    H148029   3.520   3.347   0.870 -2.4930 -0.8978  1.7765
 8846TIP3    H248030   3.446   3.281   0.756 -0.3336  0.1519 -0.2731
 8847TIP3   OH248031   6.262   1.201  15.867  0.1508 -0.4214  0.1195
 8847TIP3    H148032   6.347   1.244  15.868 -0.2327  0.5654 -2.9638
 8847TIP3    H248033   6.201   1.268  15.900  0.0364  0.3434 -1.5505
 8848TIP3   OH248034   1.032   5.828   5.178 -0.4682 -0.1313 -0.2781
 8848TIP3    H148035   0.992   5.790   5.256  1.0812 -0.0609  0.5672
 8848TIP3    H248036   1.032   5.757   5.114  0.3408 -0.8707  0.5438
 8849TIP3   OH248037   3.597   2.184   5.766  0.0402 -0.1544  0.4262
 8849TIP3    H148038   3.679   2.208   5.808  0.6529 -0.4623 -0.5757
 8849TIP3    H248039   3.530   2.198   5.833  0.8012  0.9718  0.9629
 8850TIP3   OH248040   3.146   0.864   2.395  0.6243  0.8902  0.1005
 8850TIP3    H148041   3.114   0.844   2.308 -0.9899 -0.2412  0.9427
 8850TIP3    H248042   3.217   0.802   2.410  0.7615  0.9474 -0.3164
 8851TIP3   OH248043   6.187   2.120   5.621 -0.3531 -0.0430  0.1877
 8851TIP3    H148044   6.153   2.089   5.705  1.5182 -1.6773  0.3636
 8851TIP3    H248045   6.237   2.199   5.643 -0.7647  0.1496  0.4482
 8852TIP3   OH248046   0.924   6.612  11.866  0.0875  0.2522 -0.1944
 8852TIP3    H148047   0.971   6.695  11.873  0.0141  0.2866 -0.1141
 8852TIP3    H248048   0.990   6.549  11.836 -0.1834  0.6561 -1.6815
 8853TIP3   OH248049   0.977   6.417   0.500  0.2660 -0.5128  0.8388
 8853TIP3    H148050   0.892   6.371   0.500  0.7605 -1.4490  0.2192
 8853TIP3    H248051   0.980   6.462   0.584 -0.2908 -1.5104  1.4066
 8854TIP3   OH248052   6.076   4.330   3.677 -0.0533 -0.1998 -0.0326
 8854TIP3    H148053   6.021   4.269   3.726  0.8276  0.7231  2.1903
 8854TIP3    H248054   6.165   4.309   3.706  0.5272  0.0567 -1.6107
 8855TIP3   OH248055   5.360   5.760  13.166  0.0448  0.0112  0.1305
 8855TIP3    H148056   5.273   5.735  13.136 -0.8953  2.2124  0.8990
 8855TIP3    H248057   5.364   5.730  13.256  0.9941 -2.1564 -0.5948
 8856TIP3   OH248058   6.197   1.968  14.712  0.0862 -0.1724  0.0824
 8856TIP3    H148059   6.181   1.877  14.686 -1.2443  0.2321 -0.5770
 8856TIP3    H248060   6.118   1.992  14.762  0.4337  0.6123  0.2541
 8857TIP3   OH248061   3.082   0.510  15.003 -0.2638  0.0734  0.8502
 8857TIP3    H148062   3.015   0.546  14.945 -0.3310  0.2431  1.0312
 8857TIP3    H248063   3.090   0.418  14.977 -0.8012 -0.0333  1.0451
 8858TIP3   OH248064   4.066   4.297   0.371  0.0282  0.4474 -0.4314
 8858TIP3    H148065   4.141   4.305   0.430  0.0305 -1.1669 -0.1943
 8858TIP3    H248066   3.991   4.324   0.424 -0.0167 -1.3174  0.4383
 8859TIP3   OH248067   6.753   1.902   5.451 -0.2678 -0.3753  0.2269
 8859TIP3    H148068   6.759   1.825   5.507 -0.2876 -2.3742 -2.3842
 8859TIP3    H248069   6.670   1.889   5.403  0.6133  0.3138 -1.5321
 8860TIP3   OH248070   5.703   1.500   3.633  0.1265  0.0327  0.0922
 8860TIP3    H148071   5.656   1.564   3.686 -0.4990 -2.4975  2.6731
 8860TIP3    H248072   5.789   1.541   3.618 -1.3133  2.8094 -1.0397
 8861TIP3   OH248073   5.798   5.742  16.101  0.1888 -0.0584  0.5859
 8861TIP3    H148074   5.751   5.738  16.018  1.8408 -1.5962 -0.3101
 8861TIP3    H248075   5.828   5.652  16.116  1.2463  0.5139  2.0500
 8862TIP3   OH248076   2.600   2.119  13.161  0.0998  0.6613  0.0021
 8862TIP3    H148077   2.678   2.129  13.108 -0.2484  0.0879 -0.6236
 8862TIP3    H248078   2.527   2.137  13.101 -0.3788 -1.8408 -0.2233
 8863TIP3   OH248079   4.607   2.857   3.124 -0.0642 -0.1768 -0.3318
 8863TIP3    H148080   4.603   2.920   3.196  1.0039 -1.1170  0.5771
 8863TIP3    H248081   4.540   2.792   3.145 -1.5788  0.9566 -1.5819
 8864TIP3   OH248082   2.356   3.573   0.847 -0.1392  0.2535  0.3896
 8864TIP3    H148083   2.439   3.531   0.827  0.1129  0.2557  1.3947
 8864TIP3    H248084   2.329   3.535   0.930 -0.6438  0.9832  0.5679
 8865TIP3   OH248085   2.713   4.261   5.329 -0.2670  0.0505 -0.2661
 8865TIP3    H148086   2.749   4.205   5.261 -1.4681 -1.6557  0.4723
 8865TIP3    H248087   2.743   4.222   5.411 -0.6502  0.8167  0.2451
 8866TIP3   OH248088   3.064   4.324   5.116 -0.3579 -0.5339 -0.0970
 8866TIP3    H148089   3.023   4.401   5.156 -0.7336  0.6075 -2.5369
 8866TIP3    H248090   3.068   4.346   5.023  3.8647 -1.5183 -0.2249
 8867TIP3   OH248091   4.877   4.094   6.120 -0.4201 -0.1575 -0.0230
 8867TIP3    H148092   4.833   4.010   6.134  0.6561 -0.6880  0.2530
 8867TIP3    H248093   4.956   4.089   6.173 -1.2305  1.7798  1.4354
 8868TIP3   OH248094   5.269   5.228  16.696 -0.3512 -0.2459  0.3053
 8868TIP3    H148095   5.321   5.200  16.770 -1.5704  0.3049  1.3861
 8868TIP3    H248096   5.178   5.220  16.725 -0.8980 -0.9914 -1.4681
 8869TIP3   OH248097   3.416   2.163  16.010  0.3240 -0.2060  0.5888
 8869TIP3    H148098   3.436   2.117  16.092  2.6614 -1.9527 -0.8735
 8869TIP3    H248099   3.502   2.176  15.968 -0.8457  0.3195 -1.7505
 8870TIP3   OH248100   0.717   4.182   3.420  0.1440  0.2738 -0.3477
 8870TIP3    H148101   0.746   4.246   3.486 -2.6043 -0.5878  1.7995
 8870TIP3    H248102   0.644   4.226   3.375 -2.1379 -1.4536  1.5155
 8871TIP3   OH248103   1.050   1.103  16.908 -0.1796  0.2343 -0.1859
 8871TIP3    H148104   1.003   1.153  16.842 -0.8849  0.3478  0.3969
 8871TIP3    H248105   1.135   1.148  16.916  0.0729 -0.0468 -1.3191
 8872TIP3   OH248106   6.236   6.591  11.440 -0.3750  0.6098 -0.3258
 8872TIP3    H148107   6.143   6.607  11.452 -0.6262  0.1371 -1.5746
 8872TIP3    H248108   6.243   6.499  11.416  0.5493  0.2808  1.1236
 8873TIP3   OH248109   1.920   1.397   2.281 -0.2364 -0.3666 -0.5781
 8873TIP3    H148110   1.848   1.458   2.296 -0.4557 -0.5019 -1.0401
 8873TIP3    H248111   1.877   1.316   2.253  0.0453 -0.7699  0.1580
 8874TIP3   OH248112   4.233   3.471   5.603 -0.9320 -0.8386 -0.6456
 8874TIP3    H148113   4.214   3.492   5.512  1.3023 -0.6299 -1.0914
 8874TIP3    H248114   4.293   3.397   5.598  0.6004  0.2825  0.5815
 8875TIP3   OH248115   2.439   2.903   0.140 -0.0761 -0.2280 -0.5364
 8875TIP3    H148116   2.503   2.842   0.104  0.8023  0.0036  0.6167
 8875TIP3    H248117   2.439   2.884   0.234  0.3649  1.6923 -0.1453
 8876TIP3   OH248118   4.965   3.253  13.202 -0.1727 -0.3575 -0.2334
 8876TIP3    H148119   5.048   3.217  13.170 -0.4802 -0.4327 -0.9527
 8876TIP3    H248120   4.901   3.183  13.188 -0.2626 -0.4815  0.7794
 8877TIP3   OH248121   3.368   1.202  12.083  0.2790  0.7367 -0.3376
 8877TIP3    H148122   3.343   1.154  12.004 -0.2129  0.6075 -0.1080
 8877TIP3    H248123   3.449   1.246  12.060 -0.5372  1.7387 -1.3373
 8878TIP3   OH248124   6.132   3.127  11.331 -0.0839  0.6173 -0.2526
 8878TIP3    H148125   6.224   3.153  11.332  0.7296 -2.0531 -0.5589
 8878TIP3    H248126   6.097   3.169  11.253  1.5198 -0.2456 -1.4863
 8879TIP3   OH248127   4.703   0.119  14.156  0.5347  0.0786 -0.2025
 8879TIP3    H148128   4.711   0.024  14.171 -1.0199  0.0130  0.2756
 8879TIP3    H248129   4.794   0.149  14.151  1.0684 -1.7765 -2.6946
 8880TIP3   OH248130   5.771   6.301  15.895 -0.1097  0.0946  0.1579
 8880TIP3    H148131   5.769   6.297  15.800  2.0411 -0.4359  0.1268
 8880TIP3    H248132   5.708   6.233  15.923  0.5169 -0.9237 -0.8689
 8881TIP3   OH248133   1.873   1.871  10.778  0.0244 -0.3177 -0.1497
 8881TIP3    H148134   1.935   1.829  10.837  1.7882  0.9258 -1.0603
 8881TIP3    H248135   1.837   1.944  10.828  0.9847  0.3025 -0.3493
 8882TIP3   OH248136   4.060   0.466  12.606  0.1433 -0.1222 -0.6325
 8882TIP3    H148137   4.106   0.427  12.532  3.5172 -0.7550  1.6963
 8882TIP3    H248138   4.026   0.391  12.655  0.7858  0.1156  0.1970
 8883TIP3   OH248139   1.786   1.778   1.961  0.3024  1.0076 -0.1830
 8883TIP3    H148140   1.868   1.731   1.978 -0.5276  0.5198  2.6989
 8883TIP3    H248141   1.783   1.846   2.028  0.2908  3.6631 -2.8130
 8884TIP3   OH248142   3.727   4.739   3.642 -0.1602  0.3751 -0.0733
 8884TIP3    H148143   3.665   4.809   3.663 -0.0782  0.9209 -1.5643
 8884TIP3    H248144   3.749   4.701   3.727  1.2597  3.3925  0.9903
 8885TIP3   OH248145   1.202   4.553  15.882 -0.0414 -0.0060 -0.5338
 8885TIP3    H148146   1.138   4.621  15.901 -0.8902 -1.2075  1.0360
 8885TIP3    H248147   1.160   4.472  15.911  1.6301 -0.9884 -0.7895
 8886TIP3   OH248148   5.989   4.949  15.727  0.0578 -0.0321  0.5458
 8886TIP3    H148149   6.066   5.007  15.733 -0.9352  1.3676 -0.0685
 8886TIP3    H248150   5.964   4.934  15.818  1.4787 -1.0762  0.7821
 8887TIP3   OH248151   4.282   5.169  13.142  0.1780  0.1142  0.5550
 8887TIP3    H148152   4.365   5.215  13.155  1.3170 -1.6483 -0.2723
 8887TIP3    H248153   4.295   5.117  13.063 -2.2595  0.9748 -0.4595
 8888TIP3   OH248154   4.793   2.130  12.173  0.1396  0.6400  0.3840
 8888TIP3    H148155   4.734   2.190  12.218  1.2060  0.7152  1.7088
 8888TIP3    H248156   4.834   2.079  12.243  1.0808  0.0697 -0.5592
 8889TIP3   OH248157   2.880   0.735   1.050 -0.0865 -0.5923  0.0813
 8889TIP3    H148158   2.974   0.717   1.051  0.1445  0.6780  2.0625
 8889TIP3    H248159   2.867   0.804   1.115 -2.3177 -0.3542 -0.5636
 8890TIP3   OH248160   0.971   3.548  13.991 -0.2046 -0.1215  0.0703
 8890TIP3    H148161   0.895   3.494  14.015 -0.5839  1.8731  3.6232
 8890TIP3    H248162   0.941   3.638  14.004  2.4518  0.7368  0.4037
 8891TIP3   OH248163   1.892   4.887   4.726  1.0301 -0.5957 -0.1525
 8891TIP3    H148164   1.862   4.840   4.649  1.6884 -0.5034 -0.4661
 8891TIP3    H248165   1.846   4.971   4.723  2.1518 -0.0050 -1.2404
 8892TIP3   OH248166   2.949   6.163   4.512  0.1512 -0.0760  0.3368
 8892TIP3    H148167   2.944   6.151   4.417 -0.1910  0.1441  0.3269
 8892TIP3    H248168   3.026   6.112   4.538 -0.4793 -1.1575  0.1051
 8893TIP3   OH248169   6.628   1.879   6.337  0.0369  0.1286 -0.9886
 8893TIP3    H148170   6.675   1.796   6.329 -1.0467 -0.6424  0.4167
 8893TIP3    H248171   6.575   1.885   6.258 -0.6146 -0.9901 -0.6440
 8894TIP3   OH248172   0.979   1.353  12.365  0.0344 -0.3478 -0.0471
 8894TIP3    H148173   0.937   1.376  12.447 -0.4304 -1.5732  0.0656
 8894TIP3    H248174   1.032   1.430  12.342 -1.0824  0.6096  0.5766
 8895TIP3   OH248175   0.633   0.159   2.044 -0.2342  0.4949  0.3222
 8895TIP3    H148176   0.638   0.083   2.103 -2.4344  1.8269  2.3048
 8895TIP3    H248177   0.723   0.190   2.038  0.6698 -2.0856 -0.3009
 8896TIP3   OH248178   5.577   0.866  11.176 -0.2839  0.2292  0.0069
 8896TIP3    H148179   5.630   0.901  11.104  0.8502 -2.7065 -0.6758
 8896TIP3    H248180   5.636   0.862  11.250 -0.5540  0.2590  0.2259
 8897TIP3   OH248181   5.475   2.158  13.247  0.3182  0.1494 -0.0761
 8897TIP3    H148182   5.465   2.134  13.340 -1.7845  1.7242  0.1498
 8897TIP3    H248183   5.397   2.122  13.205  0.6768  0.4710 -1.0191
 8898TIP3   OH248184   1.756   4.055   5.087  0.3725  0.4847  0.3385
 8898TIP3    H148185   1.725   3.974   5.126  1.5463 -0.5930 -0.9194
 8898TIP3    H248186   1.849   4.059   5.111  0.9465  0.1320 -1.7470
 8899TIP3   OH248187   3.875   4.376   5.409 -0.3286  0.0526  0.5552
 8899TIP3    H148188   3.843   4.329   5.332 -0.5863 -0.4728  0.9824
 8899TIP3    H248189   3.872   4.468   5.383  0.5184 -0.1882 -0.4014
 8900TIP3   OH248190   4.306   3.134  13.324  0.1207  0.0911  0.2261
 8900TIP3    H148191   4.316   3.067  13.392 -0.4411  0.2070  0.4198
 8900TIP3    H248192   4.395   3.145  13.289  0.1396 -1.0726 -0.1150
 8901TIP3   OH248193   3.728   1.026   1.697  0.2217  0.0375 -0.0504
 8901TIP3    H148194   3.754   1.076   1.774  0.3921  0.1930 -0.2083
 8901TIP3    H248195   3.657   0.969   1.728 -0.0608  0.4661  0.0982
 8902TIP3   OH248196   1.641   3.822  17.173  0.0186 -0.2246  0.1198
 8902TIP3    H148197   1.648   3.867  17.257 -0.6163 -0.0461  0.0822
 8902TIP3    H248198   1.550   3.839  17.145  0.1335 -0.5448 -0.4480
 8903TIP3   OH248199   1.894   2.021   4.295  0.0160 -0.3072  0.0312
 8903TIP3    H148200   1.876   2.056   4.208  1.2496 -1.7702 -0.8422
 8903TIP3    H248201   1.817   1.969   4.316  0.0893 -0.6696 -0.5714
 8904TIP3   OH248202   1.071   4.868   0.573 -0.1424 -0.4950 -0.3263
 8904TIP3    H148203   1.072   4.787   0.624  1.3991 -0.4647 -0.3064
 8904TIP3    H248204   1.022   4.845   0.494 -0.1871 -1.2938 -0.0761
 8905TIP3   OH248205   5.302   0.796   4.772 -0.6169  0.2891 -0.0571
 8905TIP3    H148206   5.363   0.859   4.812 -2.9180  1.1671  2.2102
 8905TIP3    H248207   5.225   0.848   4.750 -2.5889 -1.6936  1.8986
 8906TIP3   OH248208   0.282   4.400   3.465 -0.1325  0.1889  0.0094
 8906TIP3    H148209   0.188   4.384   3.457  0.0990 -1.1607 -0.0706
 8906TIP3    H248210   0.322   4.335   3.407  0.8847  0.2721  0.6152
 8907TIP3   OH248211   5.939   2.806   1.580  0.5705 -0.1738  0.1361
 8907TIP3    H148212   5.963   2.774   1.493 -0.2908  1.0044 -0.5436
 8907TIP3    H248213   6.020   2.841   1.616  1.0826 -1.2855  0.0847
 8908TIP3   OH248214   5.929   0.987   1.808  0.1284  0.4279 -0.9021
 8908TIP3    H148215   6.001   1.041   1.775  1.0149 -0.5268 -0.5498
 8908TIP3    H248216   5.969   0.933   1.876 -1.0169  0.1772 -0.4193
 8909TIP3   OH248217   0.692   3.877  13.256  0.1321  0.6904 -0.3161
 8909TIP3    H148218   0.739   3.958  13.237  2.1423 -0.6934 -1.5337
 8909TIP3    H248219   0.655   3.890  13.343 -1.0413  3.5310 -1.1873
 8910TIP3   OH248220   2.936   3.479   4.498  0.2383  0.1255 -0.0555
 8910TIP3    H148221   2.864   3.530   4.535 -0.3522 -0.9007  0.2109
 8910TIP3    H248222   2.979   3.441   4.574  0.6356  0.1541 -0.2645
 8911TIP3   OH248223   0.685   0.166   3.267  0.1295 -0.0565  0.0035
 8911TIP3    H148224   0.593   0.138   3.270  0.4100 -1.0196 -0.3508
 8911TIP3    H248225   0.685   0.251   3.312 -1.3589  1.1282 -2.1474
 8912TIP3   OH248226   5.107   5.329  13.231 -0.2742 -0.1664  0.2990
 8912TIP3    H148227   5.170   5.377  13.284 -1.3857  1.1067  0.4977
 8912TIP3    H248228   5.022   5.367  13.254 -0.5515  2.7717 -4.7724
 8913TIP3   OH248229   3.216   0.433   0.389 -0.3289 -0.1396 -0.4257
 8913TIP3    H148230   3.258   0.516   0.367 -1.0485  0.3376 -0.0327
 8913TIP3    H248231   3.124   0.457   0.405 -0.3849 -0.8999  0.4040
 8914TIP3   OH248232   5.812   4.728   0.214 -0.7724  0.5584 -0.2319
 8914TIP3    H148233   5.784   4.657   0.157 -0.1871 -0.4910  0.7637
 8914TIP3    H248234   5.906   4.736   0.198 -0.2639 -0.9220  1.8353
 8915TIP3   OH248235   1.911   0.896  16.611 -0.6185 -0.3630  0.3238
 8915TIP3    H148236   1.891   0.802  16.618 -3.6956  0.2788  1.0558
 8915TIP3    H248237   1.878   0.933  16.693  0.4938  1.3799 -0.0032
 8916TIP3   OH248238   0.212   0.700   1.905 -0.1297 -0.1776  0.9296
 8916TIP3    H148239   0.140   0.699   1.968  0.4003 -1.3121  1.5500
 8916TIP3    H248240   0.291   0.699   1.959  0.3535  0.4406  0.2527
 8917TIP3   OH248241   4.116   5.168   2.040  0.4013  0.4049  0.4626
 8917TIP3    H148242   4.208   5.161   2.015 -0.1045 -0.7062 -1.2061
 8917TIP3    H248243   4.105   5.259   2.065  1.8463  0.6653  0.2220
 8918TIP3   OH248244   0.130   1.648   1.717 -0.0389 -0.2376 -0.8310
 8918TIP3    H148245   0.154   1.559   1.745 -0.8158  0.2320  1.4580
 8918TIP3    H248246   0.049   1.637   1.667 -0.8395 -0.7150  0.5311
 8919TIP3   OH248247   3.413   6.440   3.586  0.1685 -0.2559 -0.4513
 8919TIP3    H148248   3.463   6.428   3.666  1.3300  2.3448 -0.7232
 8919TIP3    H248249   3.322   6.439   3.615  0.5699  0.5323  0.8963
 8920TIP3   OH248250   3.755   1.645  13.703 -0.3003  0.1908 -0.6477
 8920TIP3    H148251   3.793   1.649  13.616 -0.2521 -1.7901 -0.7521
 8920TIP3    H248252   3.817   1.593  13.755 -1.5058 -0.7603 -0.1131
 8921TIP3   OH248253   1.766   4.512   1.618 -0.0260 -0.3092  0.0944
 8921TIP3    H148254   1.837   4.447   1.616 -0.5250 -0.8554 -2.0767
 8921TIP3    H248255   1.784   4.566   1.694  3.2643  0.1454 -0.9594
 8922TIP3   OH248256   1.527   0.087  16.105 -0.7838  0.0959  0.1132
 8922TIP3    H148257   1.544  -0.007  16.102  0.5351  0.3303 -0.1622
 8922TIP3    H248258   1.433   0.094  16.120 -0.9372 -1.2653 -0.1387
 8923TIP3   OH248259   5.229   5.839  16.279 -0.4232 -0.3726 -0.6047
 8923TIP3    H148260   5.238   5.853  16.185  0.8991  2.2323 -0.1360
 8923TIP3    H248261   5.134   5.830  16.293 -0.5769 -1.3730 -2.2373
 8924TIP3   OH248262   3.399   2.719  11.803  0.0937 -0.0035  0.3280
 8924TIP3    H148263   3.452   2.795  11.829  0.3650 -0.1911  0.3240
 8924TIP3    H248264   3.314   2.756  11.781  0.1283  0.2621  0.6381
 8925TIP3   OH248265   6.251   3.938  16.284 -0.1023 -0.7130  0.1916
 8925TIP3    H148266   6.262   4.031  16.304  1.9975 -0.2282 -2.7174
 8925TIP3    H248267   6.228   3.937  16.191 -1.1505 -3.0795  0.4580
 8926TIP3   OH248268   3.132   5.983   1.042 -0.4682 -0.7568 -0.1541
 8926TIP3    H148269   3.220   5.987   1.080 -0.4498  0.7739 -0.3329
 8926TIP3    H248270   3.090   5.909   1.087  0.2096 -0.1972  1.4331
 8927TIP3   OH248271   1.219   1.068  14.208 -0.2932 -0.3291 -0.0531
 8927TIP3    H148272   1.145   1.126  14.225 -0.7832 -0.4843 -1.5651
 8927TIP3    H248273   1.188   1.009  14.139  1.0478 -0.7504 -0.3107
 8928TIP3   OH248274   0.282   2.095  10.664 -0.2498  0.4759 -0.0776
 8928TIP3    H148275   0.334   2.124  10.739  1.6658 -0.1093 -1.1658
 8928TIP3    H248276   0.332   2.023  10.626 -0.4233  1.7848 -2.8706
 8929TIP3   OH248277   0.853   2.597   4.885 -0.1983  0.3174  0.3875
 8929TIP3    H148278   0.947   2.612   4.894  0.0964 -1.3658  0.2883
 8929TIP3    H248279   0.832   2.536   4.956 -1.5848  2.1819  1.6054
 8930TIP3   OH248280   1.533   6.252  14.594 -0.0179 -0.0902  0.7339
 8930TIP3    H148281   1.602   6.207  14.545 -1.0267 -0.4681 -0.3544
 8930TIP3    H248282   1.569   6.262  14.682  1.1293 -0.9571  0.3747
 8931TIP3   OH248283   1.439   3.511  15.257 -0.2810 -0.0074 -0.3639
 8931TIP3    H148284   1.503   3.569  15.297 -1.5561  0.9062  0.3892
 8931TIP3    H248285   1.478   3.485  15.174  0.5661  1.4210 -0.4202
 8932TIP3   OH248286   5.551   3.239  17.103  0.3929  0.6932  0.6631
 8932TIP3    H148287   5.509   3.207  17.023  1.5052  0.4333  0.1618
 8932TIP3    H248288   5.549   3.164  17.163  1.1422  0.3243  0.2338
 8933TIP3   OH248289   2.578   3.200  14.572  0.0126  0.6971  0.2990
 8933TIP3    H148290   2.667   3.181  14.599  0.7890  1.4737 -1.6216
 8933TIP3    H248291   2.580   3.293  14.547 -1.6209  1.0443  1.3742
 8934TIP3   OH248292   2.817   6.485  13.143 -0.0415  0.4150  0.2347
 8934TIP3    H148293   2.773   6.559  13.185 -1.9096 -0.9830  0.8029
 8934TIP3    H248294   2.901   6.478  13.189  0.3342  2.3975 -0.0947
 8935TIP3   OH248295   2.217   4.477   0.591  0.2082  0.1574  0.2798
 8935TIP3    H148296   2.152   4.538   0.556 -0.1273  0.4972  1.4614
 8935TIP3    H248297   2.270   4.529   0.651 -0.1784 -0.7329  1.4172
 8936TIP3   OH248298   3.970   0.627  14.869 -0.3370 -0.0441 -0.3582
 8936TIP3    H148299   4.003   0.601  14.782  0.5053 -0.0385 -0.0512
 8936TIP3    H248300   4.005   0.560  14.928  0.3562  0.7921  0.1853
 8937TIP3   OH248301   2.001   4.085   5.678  0.1517 -0.1411  0.0341
 8937TIP3    H148302   1.979   4.117   5.591 -0.3298 -1.1298 -0.2100
 8937TIP3    H248303   2.096   4.095   5.684  0.4643 -1.9924 -1.3915
 8938TIP3   OH248304   2.578   2.689  12.893 -0.7477  0.3546  0.2647
 8938TIP3    H148305   2.545   2.620  12.952 -0.0947 -0.5272 -0.3899
 8938TIP3    H248306   2.504   2.749  12.884 -0.7239  0.7448  2.3240
 8939TIP3   OH248307   6.779   0.699  11.845 -0.3875 -0.6352 -0.3577
 8939TIP3    H148308   6.769   0.750  11.925 -0.3877 -0.8597 -0.2133
 8939TIP3    H248309   6.873   0.681  11.839 -0.2117  0.4674 -1.0864
 8940TIP3   OH248310   5.485   4.708  11.455 -0.5400  0.2819 -0.0151
 8940TIP3    H148311   5.535   4.630  11.431  0.0777  0.6057  0.2209
 8940TIP3    H248312   5.406   4.673  11.498 -2.0019 -0.3273 -3.0742
 8941TIP3   OH248313   3.476   0.816   1.111 -0.7135  0.4492  0.2608
 8941TIP3    H148314   3.413   0.798   1.041 -1.4714  1.5704  0.6425
 8941TIP3    H248315   3.445   0.762   1.184  0.4840 -1.2705 -0.4578
 8942TIP3   OH248316   1.107   3.394   4.989 -0.2032 -0.4775  0.3449
 8942TIP3    H148317   1.162   3.396   4.911  0.8317  2.1044  1.1095
 8942TIP3    H248318   1.145   3.325   5.043  0.5248 -0.6516 -0.3779
 8943TIP3   OH248319   5.429   0.083   3.647 -0.0838 -0.2059  0.1196
 8943TIP3    H148320   5.392   0.040   3.724  0.7161 -0.5596  0.3205
 8943TIP3    H248321   5.517   0.045   3.639  0.0303  0.2085 -0.6611
 8944TIP3   OH248322   5.871   5.459   5.403  0.2887  0.3362 -0.6141
 8944TIP3    H148323   5.809   5.485   5.335 -0.6388  1.3213  0.5756
 8944TIP3    H248324   5.849   5.515   5.477  1.3360 -0.6713  0.4733
 8945TIP3   OH248325   2.342   5.307  15.919  0.0054 -0.2546 -0.4886
 8945TIP3    H148326   2.269   5.252  15.887 -1.5159  0.5576  1.4932
 8945TIP3    H248327   2.420   5.268  15.880 -1.2536 -2.5911 -0.7645
 8946TIP3   OH248328   3.023   6.387  12.915  0.2376  0.2738 -0.1732
 8946TIP3    H148329   3.004   6.371  13.007  0.0210 -0.2799 -0.3087
 8946TIP3    H248330   2.941   6.366  12.870  1.0683 -1.9428 -0.7431
 8947TIP3   OH248331   0.281   1.081  14.812 -0.3374  0.3093 -0.6192
 8947TIP3    H148332   0.270   1.159  14.866 -0.8604 -0.9808  1.2016
 8947TIP3    H248333   0.357   1.037  14.849 -0.8616 -0.7247 -0.7504
 8948TIP3   OH248334   2.587   6.687   0.254 -0.1805 -0.1947 -0.0513
 8948TIP3    H148335   2.554   6.657   0.169 -0.9618 -0.9961  0.5165
 8948TIP3    H248336   2.530   6.761   0.276 -2.0842 -1.9704  1.2196
 8949TIP3   OH248337   3.311   1.375  10.702  0.1278 -0.1433  0.0407
 8949TIP3    H148338   3.351   1.446  10.652 -0.5917 -0.2620 -0.7138
 8949TIP3    H248339   3.290   1.415  10.787  0.0029  0.4661 -0.2698
 8950TIP3   OH248340   2.814   6.371   0.412 -0.1030  0.0410  0.0609
 8950TIP3    H148341   2.745   6.341   0.353 -0.6400  1.0318  0.1671
 8950TIP3    H248342   2.891   6.383   0.357 -0.1427 -0.6145 -0.1406
 8951TIP3   OH248343   2.138   6.582  15.440 -0.2111 -0.2127 -0.4718
 8951TIP3    H148344   2.048   6.599  15.412 -0.3413  0.9716  0.5896
 8951TIP3    H248345   2.191   6.644  15.389 -0.1111 -0.2298 -0.3902
 8952TIP3   OH248346   5.317   1.444  14.406 -0.3451  0.2729 -0.0757
 8952TIP3    H148347   5.392   1.489  14.444 -0.0615  0.8590 -1.3075
 8952TIP3    H248348   5.278   1.397  14.479  1.4315 -0.3338  0.5094
 8953TIP3   OH248349   0.499   4.947  12.268 -0.0982 -0.3826 -0.1723
 8953TIP3    H148350   0.592   4.929  12.261  0.9671  3.7611  1.7350
 8953TIP3    H248351   0.472   4.908  12.351  0.5214  0.5416  0.4686
 8954TIP3   OH248352   4.892   1.624  12.651 -0.1547 -0.4211 -0.0974
 8954TIP3    H148353   4.879   1.650  12.560  1.6869  1.2000  0.0864
 8954TIP3    H248354   4.831   1.679  12.701  0.1401 -0.0175 -0.1816
 8955TIP3   OH248355   3.037   4.634  17.212  0.6450 -0.6616 -0.2391
 8955TIP3    H148356   3.057   4.607  17.301  0.3608  0.4977  0.1846
 8955TIP3    H248357   3.097   4.706  17.194 -1.3202  1.1265  0.1171
 8956TIP3   OH248358   3.902   2.930  11.412  0.0147  0.1809  0.3283
 8956TIP3    H148359   3.874   2.999  11.352  1.6982  0.8307  0.2440
 8956TIP3    H248360   3.997   2.925  11.400  0.1268 -1.0112  1.5390
 8957TIP3   OH248361   6.210   3.570   3.580 -0.2748  0.1189 -0.4943
 8957TIP3    H148362   6.174   3.495   3.627 -1.4863  1.0714  0.1236
 8957TIP3    H248363   6.291   3.537   3.541 -1.2341 -1.7469 -0.9703
 8958TIP3   OH248364   4.114   5.563   4.959 -0.1722  0.2833 -0.2200
 8958TIP3    H148365   4.048   5.525   4.901 -0.3936  1.2973 -0.6538
 8958TIP3    H248366   4.103   5.658   4.949  1.3497  0.4724 -0.3098
 8959TIP3   OH248367   1.701   6.131   0.364 -0.1805  0.5007 -0.3510
 8959TIP3    H148368   1.737   6.083   0.290  0.6481  1.5584 -0.6459
 8959TIP3    H248369   1.777   6.155   0.417 -0.4808  2.1370 -0.6108
 8960TIP3   OH248370   0.402   2.845  14.113  0.4160  0.1680  0.0395
 8960TIP3    H148371   0.446   2.854  14.029  1.9472  0.6031  0.8667
 8960TIP3    H248372   0.468   2.868  14.178 -1.1488  1.2537  1.3112
 8961TIP3   OH248373   3.451   3.006   0.882 -0.1268  0.3350 -0.2486
 8961TIP3    H148374   3.426   3.007   0.975 -1.7017  1.4143 -0.6800
 8961TIP3    H248375   3.469   3.097   0.861  1.9238 -0.1077 -0.5936
 8962TIP3   OH248376   0.280   6.424   0.637  0.0587 -0.1192 -0.1659
 8962TIP3    H148377   0.361   6.412   0.687 -1.2150  1.4987  2.3804
 8962TIP3    H248378   0.278   6.518   0.617 -3.1515  0.6305  3.3472
 8963TIP3   OH248379   2.325   6.304   6.106  0.1853  0.0863  0.2289
 8963TIP3    H148380   2.371   6.277   6.026 -0.3886 -0.5838  0.1135
 8963TIP3    H248381   2.383   6.276   6.177  0.1153 -0.4724  0.0756
 8964TIP3   OH248382   5.983   1.551   2.750  0.2037 -0.1294 -0.2294
 8964TIP3    H148383   5.997   1.527   2.658 -1.4323  1.0495 -0.8084
 8964TIP3    H248384   5.968   1.646   2.748  0.3221 -0.0679  1.2858
 8965TIP3   OH248385   2.595   0.326   1.138 -0.0648 -0.7528  0.7578
 8965TIP3    H148386   2.660   0.281   1.193  0.2058 -1.2346  0.0499
 8965TIP3    H248387   2.646   0.389   1.088  0.0122 -1.8426 -0.5518
 8966TIP3   OH248388   3.267   2.120  11.012  0.3652  0.4805  0.2783
 8966TIP3    H148389   3.231   2.194  10.962 -1.0936 -0.8744 -0.7445
 8966TIP3    H248390   3.311   2.161  11.087 -0.2237  2.3963 -0.3782
 8967TIP3   OH248391   2.295   6.041  14.699  0.3321  0.2040  0.8545
 8967TIP3    H148392   2.216   6.091  14.716 -0.0378  0.0890 -0.5081
 8967TIP3    H248393   2.362   6.081  14.755 -0.5131  0.7328  1.4902
 8968TIP3   OH248394   4.949   1.879   4.612 -0.2040 -0.6565  0.2054
 8968TIP3    H148395   4.856   1.901   4.604 -0.0012  0.6183  1.2339
 8968TIP3    H248396   4.994   1.949   4.565  0.2312 -1.3921 -0.4848
 8969TIP3   OH248397   1.952   6.145   1.386  0.3889  0.3480 -0.0638
 8969TIP3    H148398   1.920   6.140   1.476 -0.2063 -0.2617 -0.3061
 8969TIP3    H248399   2.044   6.171   1.395  0.9479 -1.8210  0.8164
 8970TIP3   OH248400   6.766   5.602  12.008  0.2356  0.1453 -0.0022
 8970TIP3    H148401   6.840   5.547  11.982 -0.4864 -0.2671 -1.2383
 8970TIP3    H248402   6.802   5.660  12.075  1.3222 -0.9850  0.4304
 8971TIP3   OH248403   2.782   3.069   0.211 -0.5741 -0.1856 -0.3082
 8971TIP3    H148404   2.797   3.043   0.120  0.7649 -1.3149  0.2305
 8971TIP3    H248405   2.727   3.148   0.204 -1.0764 -0.6650 -2.0617
 8972TIP3   OH248406   3.906   4.807   1.226 -0.4757  0.1303  0.2870
 8972TIP3    H148407   3.870   4.824   1.313 -0.1256  0.4986  0.3583
 8972TIP3    H248408   3.833   4.769   1.177 -0.3624 -1.1696  1.0880
 8973TIP3   OH248409   4.835   2.763  17.275  0.2794 -0.5506  0.4931
 8973TIP3    H148410   4.918   2.767  17.227  0.0875 -1.0869  0.1117
 8973TIP3    H248411   4.781   2.831  17.236  0.7782  0.2634  1.2057
 8974TIP3   OH248412   4.269   2.619  11.311  1.2899 -0.1760  0.5004
 8974TIP3    H148413   4.313   2.604  11.227  2.1363 -0.3286  0.9744
 8974TIP3    H248414   4.230   2.706  11.302  1.0407 -0.3518 -0.1943
 8975TIP3   OH248415   5.277   0.076   2.260 -0.7694  0.2407 -0.0107
 8975TIP3    H148416   5.208   0.139   2.238 -0.5464  1.5344  2.8724
 8975TIP3    H248417   5.286   0.023   2.181 -2.2988  2.5839 -1.8266
 8976TIP3   OH248418   6.105   6.366  10.896  0.2127 -0.1734 -0.9341
 8976TIP3    H148419   6.014   6.392  10.886 -0.5082 -2.1899  0.1263
 8976TIP3    H248420   6.138   6.361  10.806 -0.5569  1.0364 -1.3062
 8977TIP3   OH248421   1.933   2.411   1.382 -0.3162 -0.7388 -0.4259
 8977TIP3    H148422   1.998   2.398   1.313  0.9438  0.4472  0.5159
 8977TIP3    H248423   1.866   2.466   1.342  0.8528  0.6937 -0.4513
 8978TIP3   OH248424   1.760   0.387  14.497  0.7098 -0.5431  0.6290
 8978TIP3    H148425   1.784   0.335  14.420 -0.7168 -1.1532  0.5818
 8978TIP3    H248426   1.701   0.330  14.547  0.6052  0.3298  1.5269
 8979TIP3   OH248427   0.356   3.977   5.837  0.2977  0.6909 -0.0014
 8979TIP3    H148428   0.294   4.038   5.796 -1.8910 -1.7114 -0.4057
 8979TIP3    H248429   0.308   3.940   5.911  2.0662  0.4132  1.0377
 8980TIP3   OH248430   1.468   2.825  16.823  0.1845  0.2613  1.1521
 8980TIP3    H148431   1.486   2.905  16.774  2.2660 -1.5570 -1.1117
 8980TIP3    H248432   1.502   2.843  16.911  2.8057  1.0659  0.0267
 8981TIP3   OH248433   6.800   6.345  12.887  0.4192 -0.2211 -0.2472
 8981TIP3    H148434   6.769   6.420  12.937  0.7354  1.0581 -1.8993
 8981TIP3    H248435   6.720   6.301  12.858  0.1698  0.9650 -1.4181
 8982TIP3   OH248436   5.984   6.269   0.919 -0.4125  0.3813 -0.0819
 8982TIP3    H148437   6.054   6.210   0.949 -0.4122  0.0213 -0.7845
 8982TIP3    H248438   6.029   6.337   0.870 -0.7191 -1.1317 -2.5965
 8983TIP3   OH248439   1.675   3.521  13.120  0.1228 -0.2848 -0.1911
 8983TIP3    H148440   1.751   3.503  13.065  1.0309  1.4592  0.4669
 8983TIP3    H248441   1.670   3.616  13.125 -0.9659 -0.4000  1.3381
 8984TIP3   OH248442   6.178   2.922  16.480 -0.3475  0.2960 -0.3481
 8984TIP3    H148443   6.216   2.942  16.565  0.2615  0.9791 -0.7629
 8984TIP3    H248444   6.252   2.930  16.419 -0.9970  0.8890 -1.0730
 8985TIP3   OH248445   2.593   1.885  15.890 -0.0583  0.0041 -0.4197
 8985TIP3    H148446   2.564   1.804  15.849 -0.3708  0.0558 -0.3059
 8985TIP3    H248447   2.601   1.947  15.818 -2.6965  0.7054 -0.1786
 8986TIP3   OH248448   0.469   0.818   5.627 -0.2799  0.3691  0.2163
 8986TIP3    H148449   0.468   0.754   5.699 -0.4536  0.7268  0.5290
 8986TIP3    H248450   0.557   0.810   5.590 -0.4112 -0.3068  0.0261
 8987TIP3   OH248451   3.026   1.415   0.096 -0.2490  0.2250 -0.3955
 8987TIP3    H148452   3.089   1.391   0.164 -2.1161  0.5245  1.4663
 8987TIP3    H248453   2.966   1.341   0.091  0.6855 -0.4139 -2.7491
 8988TIP3   OH248454   2.810   3.723   5.648 -0.2588  0.4264 -0.0745
 8988TIP3    H148455   2.749   3.747   5.578 -1.4432  0.4933  0.9524
 8988TIP3    H248456   2.856   3.647   5.615 -3.0336 -1.4782  0.2692
 8989TIP3   OH248457   1.259   4.932   4.838 -0.2310  0.3172  0.0332
 8989TIP3    H148458   1.249   4.896   4.926  0.6399 -0.7639 -0.2969
 8989TIP3    H248459   1.343   4.899   4.808 -0.1454  1.3528 -0.9036
 8990TIP3   OH248460   4.524   2.763  13.669 -0.0948  0.3365  0.2244
 8990TIP3    H148461   4.602   2.709  13.659  0.6041  1.2876  0.5362
 8990TIP3    H248462   4.525   2.790  13.761 -1.5252 -0.7532  0.5919
 8991TIP3   OH248463   5.643   3.134  14.923  0.2883  0.3576 -0.4870
 8991TIP3    H148464   5.577   3.098  14.982  0.5140 -0.4571 -0.7301
 8991TIP3    H248465   5.719   3.077  14.934  0.3451  0.2285 -1.5340
 8992TIP3   OH248466   1.440   2.203   0.833  0.2178  0.6641  0.5928
 8992TIP3    H148467   1.458   2.195   0.739  0.1419  0.8369  0.5649
 8992TIP3    H248468   1.350   2.234   0.838  0.9309  2.7486  0.6959
 8993TIP3   OH248469   1.916   1.786   2.257 -0.2242 -0.0206 -0.0334
 8993TIP3    H148470   1.866   1.866   2.240 -0.7751 -0.0893  1.1725
 8993TIP3    H248471   1.978   1.780   2.185  0.3736  1.9413  0.2936
 8994TIP3   OH248472   4.333   3.742   1.762  0.3129 -0.0328 -0.3857
 8994TIP3    H148473   4.373   3.656   1.770 -0.3070 -0.1638  1.4289
 8994TIP3    H248474   4.393   3.801   1.807 -0.0522  0.2290 -0.2342
 8995TIP3   OH248475   4.926   0.249   2.064  0.1430 -0.2728 -0.0653
 8995TIP3    H148476   4.902   0.212   1.980  1.4581  0.3348 -0.7191
 8995TIP3    H248477   5.001   0.305   2.046 -1.3632  2.1911  1.0203
 8996TIP3   OH248478   3.729   3.765   4.343 -0.1871  0.2965 -0.3527
 8996TIP3    H148479   3.808   3.791   4.296 -0.0430 -0.2642 -0.4353
 8996TIP3    H248480   3.673   3.727   4.276  0.2267 -0.9770 -0.0134
 8997TIP3   OH248481   0.301   5.198  10.669  0.2495  0.4281  0.0980
 8997TIP3    H148482   0.321   5.105  10.681  1.8446  0.8183  0.5926
 8997TIP3    H248483   0.375   5.244  10.709 -0.3475  1.9110 -0.4596
 8998TIP3   OH248484   3.704   0.252   3.493  0.1515 -0.2608  0.0960
 8998TIP3    H148485   3.694   0.235   3.400  0.0798  0.8298 -0.1022
 8998TIP3    H248486   3.757   0.331   3.498 -2.8967  1.8430  0.8813
 8999TIP3   OH248487   4.512   5.097  13.360  0.2283  0.1085  0.1072
 8999TIP3    H148488   4.530   5.189  13.380 -0.1314  0.0606  0.6816
 8999TIP3    H248489   4.536   5.087  13.268  0.2001  0.7980  0.0210
 9000TIP3   OH248490   0.730   4.529   2.803 -0.1768  0.0487  0.2136
 9000TIP3    H148491   0.636   4.528   2.822 -0.3280 -0.2305 -0.5471
 9000TIP3    H248492   0.735   4.524   2.708  0.5712  1.4522  0.1653
 9001TIP3   OH248493   2.300   3.079   5.547 -0.0440  0.5714 -0.4964
 9001TIP3    H148494   2.330   3.067   5.457  2.9523 -0.1274  0.5601
 9001TIP3    H248495   2.267   2.993   5.573 -0.5270  0.6717 -0.7563
 9002TIP3   OH248496   3.117   3.353  16.745  0.5435 -0.2414  0.0703
 9002TIP3    H148497   3.173   3.296  16.692  2.5830  0.2668  1.6304
 9002TIP3    H248498   3.068   3.293  16.801  0.0759 -0.6444 -0.7614
 9003TIP3   OH248499   4.071   6.682  12.780  0.0912 -0.1537  0.0347
 9003TIP3    H148500   4.155   6.649  12.813  0.5026 -0.5812 -1.4178
 9003TIP3    H248501   4.008   6.653  12.845  0.9165 -0.8554  0.5423
 9004TIP3   OH248502   2.817   2.930  17.241 -0.0305 -0.4309  0.1624
 9004TIP3    H148503   2.848   2.892  17.160 -0.9074  0.6270 -0.6875
 9004TIP3    H248504   2.772   3.010  17.214  0.2193  0.2605  1.7359
 9005TIP3   OH248505   1.858   1.118   2.220  0.2805  0.3952  0.2494
 9005TIP3    H148506   1.904   1.087   2.299 -0.4711 -0.7645  0.2453
 9005TIP3    H248507   1.807   1.043   2.192 -1.6401  1.6768  0.2521
 9006TIP3   OH248508   1.033   5.263  14.196  1.0567 -0.2721 -0.0492
 9006TIP3    H148509   0.952   5.285  14.242  2.1639 -0.4633  2.0605
 9006TIP3    H248510   1.074   5.347  14.176  0.7229 -0.1988 -0.4416
 9007TIP3   OH248511   0.915   1.715  16.322  0.4002 -0.0079  0.3308
 9007TIP3    H148512   0.842   1.664  16.358  0.1168  0.5041  0.4890
 9007TIP3    H248513   0.992   1.681  16.367  0.2048 -0.2630  0.4715
 9008TIP3   OH248514   3.141   1.615  11.777  0.2550  0.6111 -0.3406
 9008TIP3    H148515   3.172   1.684  11.835  0.4302 -0.7279  1.1956
 9008TIP3    H248516   3.146   1.535  11.829 -2.2389 -0.2104 -1.2628
 9009TIP3   OH248517   1.540   1.183  11.799  0.2845 -0.0606 -0.1636
 9009TIP3    H148518   1.607   1.234  11.845 -0.0286 -1.3178  1.7210
 9009TIP3    H248519   1.468   1.245  11.785  0.3764  0.3327  1.0645
 9010TIP3   OH248520   5.771   3.547   5.535  0.4103 -0.6968  0.1032
 9010TIP3    H148521   5.845   3.550   5.595  0.5836 -0.3956 -0.1205
 9010TIP3    H248522   5.751   3.639   5.517 -2.0158 -0.6652  2.6144
 9011TIP3   OH248523   2.560   2.895   3.301 -0.5045  0.5850  0.2430
 9011TIP3    H148524   2.540   2.948   3.378 -1.1654  0.8835 -0.1285
 9011TIP3    H248525   2.646   2.926   3.273  0.3695 -0.5049  1.6741
 9012TIP3   OH248526   1.232   3.314   3.006  0.8911 -0.0743  0.0249
 9012TIP3    H148527   1.152   3.328   3.056 -0.2928 -1.4769 -1.4016
 9012TIP3    H248528   1.239   3.219   2.997  0.4326  0.1397 -3.3798
 9013TIP3   OH248529   0.038   4.147   0.989  1.1227  0.2044 -0.3433
 9013TIP3    H148530   0.115   4.089   0.989  0.1603 -1.0903  0.4281
 9013TIP3    H248531  -0.025   4.102   0.933  1.0003  1.3898 -1.1704
 9014TIP3   OH248532   2.904   0.857  15.095 -0.0495  0.2046 -0.1709
 9014TIP3    H148533   2.808   0.851  15.099 -0.0019 -0.3245  0.3278
 9014TIP3    H248534   2.922   0.951  15.091 -0.6177  0.2778 -1.0610
 9015TIP3   OH248535   3.109   6.388  15.316  0.0583  0.1540  0.3094
 9015TIP3    H148536   3.073   6.464  15.270  0.8604  0.0181 -0.5623
 9015TIP3    H248537   3.195   6.374  15.275  0.0979 -0.9484  0.7609
 9016TIP3   OH248538   1.339   2.421  16.767 -0.6939 -0.2539 -0.2805
 9016TIP3    H148539   1.244   2.428  16.781 -0.7332  2.0146 -1.4731
 9016TIP3    H248540   1.347   2.357  16.696 -1.3135 -0.8610  0.1906
 9017TIP3   OH248541   4.624   5.473   2.424 -0.3492 -0.2146  0.1502
 9017TIP3    H148542   4.556   5.535   2.450 -0.4449  0.1297 -0.9039
 9017TIP3    H248543   4.603   5.450   2.334  2.8106  2.5573 -1.4330
 9018TIP3   OH248544   0.773   1.858   2.639  0.1532 -0.9761  0.0596
 9018TIP3    H148545   0.719   1.779   2.642 -0.7185 -0.3377  1.8066
 9018TIP3    H248546   0.712   1.930   2.651  1.3843 -0.2632  2.3719
 9019TIP3   OH248547   1.227   4.699  13.492 -0.1489 -0.4653 -0.2626
 9019TIP3    H148548   1.256   4.774  13.439 -0.4467 -0.4605 -0.4217
 9019TIP3    H248549   1.219   4.734  13.581  0.3199 -0.4649 -0.2205
 9020TIP3   OH248550   2.638   4.327   4.144 -0.3271  0.0899 -0.3529
 9020TIP3    H148551   2.574   4.394   4.168 -0.6575 -0.3499  0.0121
 9020TIP3    H248552   2.585   4.259   4.101 -0.1793 -0.4929  0.3761
 9021TIP3   OH248553   5.335   2.438   5.991  0.4164 -0.1673 -0.4234
 9021TIP3    H148554   5.416   2.430   5.942 -1.1469 -0.0366 -3.1288
 9021TIP3    H248555   5.285   2.506   5.945 -0.7614  0.5696  1.8602
 9022TIP3   OH248556   5.850   0.039  14.499  0.1397  0.3599  0.2372
 9022TIP3    H148557   5.825  -0.054  14.501  0.4585  0.2651 -0.1930
 9022TIP3    H248558   5.783   0.081  14.446 -0.0502  0.3894  0.5003
 9023TIP3   OH248559   6.469   1.066   3.746  0.2619 -0.0026  0.3944
 9023TIP3    H148560   6.458   1.004   3.819  1.7548 -0.2579  0.4177
 9023TIP3    H248561   6.559   1.096   3.754 -0.3229  1.8609  0.1094
 9024TIP3   OH248562   0.846   6.809   3.448 -0.9412  0.1904  0.5116
 9024TIP3    H148563   0.800   6.880   3.402  0.0811  0.8513  0.4816
 9024TIP3    H248564   0.852   6.739   3.384 -1.6466  0.2063  0.4216
 9025TIP3   OH248565   3.637   5.392  15.234 -0.0074 -0.2317  0.1075
 9025TIP3    H148566   3.620   5.307  15.195 -1.8589  0.2369 -0.1868
 9025TIP3    H248567   3.602   5.385  15.323  0.6783 -0.0681  0.3950
 9026TIP3   OH248568   1.552   1.714   2.592 -0.3881  0.3462 -0.1694
 9026TIP3    H148569   1.512   1.637   2.552  1.0319  0.4884 -1.9347
 9026TIP3    H248570   1.618   1.742   2.529 -1.0415  3.1635  0.3121
 9027TIP3   OH248571   0.596   5.949  13.123  0.1026 -0.0185  0.2984
 9027TIP3    H148572   0.582   5.954  13.217  1.1519 -1.9022  0.5788
 9027TIP3    H248573   0.508   5.949  13.085 -0.3819 -1.1724  1.4039
 9028TIP3   OH248574   2.129   0.635  13.922  0.0826 -0.0409 -0.1004
 9028TIP3    H148575   2.046   0.668  13.888  1.1744  0.1884 -2.6668
 9028TIP3    H248576   2.190   0.708  13.911  0.7685 -0.3930  1.2492
 9029TIP3   OH248577   6.748   5.855   1.070 -0.2554 -0.3586 -0.0679
 9029TIP3    H148578   6.685   5.869   1.140 -1.3543 -0.8992 -0.9395
 9029TIP3    H248579   6.790   5.772   1.093 -0.5005 -0.4545  0.0382
 9030TIP3   OH248580   2.439   3.909  15.741  0.2955  0.2023  0.0669
 9030TIP3    H148581   2.490   3.837  15.777 -0.0885  0.1160  0.4493
 9030TIP3    H248582   2.478   3.987  15.781 -0.1088  0.1086  0.6483
 9031TIP3   OH248583   2.023   2.348  13.817  0.6234  0.6594  0.5732
 9031TIP3    H148584   1.929   2.365  13.829  0.1908 -0.1304 -1.5395
 9031TIP3    H248585   2.047   2.399  13.740  1.4599 -0.7476 -0.1125
 9032TIP3   OH248586   6.291   1.076   2.575  0.4524  0.1205  0.3791
 9032TIP3    H148587   6.199   1.096   2.559  0.7039  0.8873 -0.1072
 9032TIP3    H248588   6.300   0.984   2.549 -0.1578  0.0627  0.3656
 9033TIP3   OH248589   0.724   0.063  11.035 -0.1268  0.2704 -0.0378
 9033TIP3    H148590   0.760   0.146  11.006 -0.9562  0.1882 -1.3481
 9033TIP3    H248591   0.764  -0.002  10.978 -1.0630  0.0002 -0.3903
 9034TIP3   OH248592   0.676   0.606   3.691 -0.4871 -0.6097  0.8882
 9034TIP3    H148593   0.586   0.636   3.681 -0.1160  0.5572  1.0550
 9034TIP3    H248594   0.669   0.510   3.692 -1.7781 -0.5144  1.5320
 9035TIP3   OH248595   4.790   5.330   6.221 -0.3754 -0.4474 -1.3009
 9035TIP3    H148596   4.847   5.383   6.277  0.6935 -1.6607 -1.2219
 9035TIP3    H248597   4.701   5.354   6.248  0.1191 -1.0673  0.9650
 9036TIP3   OH248598   2.819   5.419  11.569 -0.0368  0.0429 -0.5610
 9036TIP3    H148599   2.811   5.466  11.486 -2.1998 -1.8151 -1.4483
 9036TIP3    H248600   2.885   5.353  11.554 -0.9673 -0.7834 -1.0570
 9037TIP3   OH248601   1.346   0.172  12.461 -0.5629 -0.2776  0.1255
 9037TIP3    H148602   1.285   0.137  12.526  0.4881 -1.5664  0.4439
 9037TIP3    H248603   1.413   0.217  12.513 -0.6787  0.2242 -0.1613
 9038TIP3   OH248604   6.559   5.729  13.240 -0.3817  0.2055 -0.2249
 9038TIP3    H148605   6.646   5.689  13.232 -0.0260  1.0375 -0.5180
 9038TIP3    H248606   6.538   5.758  13.151 -0.9409  0.0481 -0.1451
 9039TIP3   OH248607   3.028   5.667  15.304  0.1067 -0.2335  0.2957
 9039TIP3    H148608   3.056   5.698  15.218 -0.8165  0.4030  0.2223
 9039TIP3    H248609   3.048   5.739  15.364  1.2126 -0.8747  0.6957
 9040TIP3   OH248610   2.367   1.887   3.924  0.4875 -0.0559  0.0153
 9040TIP3    H148611   2.447   1.884   3.976  0.7699  2.0836 -0.2540
 9040TIP3    H248612   2.397   1.899   3.834 -0.0852 -0.9976 -0.3045
 9041TIP3   OH248613   6.387   5.320  11.952  0.4121 -0.5255  0.0782
 9041TIP3    H148614   6.441   5.242  11.947 -0.2075 -0.9791  0.3520
 9041TIP3    H248615   6.305   5.290  11.991 -0.0223  0.1574 -0.2880
 9042TIP3   OH248616   1.109   2.541   1.901 -0.3600 -0.5177  0.1337
 9042TIP3    H148617   1.148   2.532   1.988  0.8418 -0.9941 -0.4291
 9042TIP3    H248618   1.050   2.615   1.908  1.7631  1.1786  0.6637
 9043TIP3   OH248619   4.645   4.215  15.099  0.3864  0.6628  0.1061
 9043TIP3    H148620   4.581   4.195  15.167 -0.5144 -1.3519 -1.2634
 9043TIP3    H248621   4.605   4.287  15.050 -1.7498 -1.6703 -1.7760
 9044TIP3   OH248622   5.996   0.351  14.688 -0.2597  0.3876  0.5654
 9044TIP3    H148623   6.060   0.321  14.752  0.6898  1.4091  0.1192
 9044TIP3    H248624   5.937   0.408  14.738 -2.3344 -2.5036  1.5004
 9045TIP3   OH248625   4.000   5.230   2.376  0.3840 -0.7573  0.5514
 9045TIP3    H148626   4.022   5.282   2.453 -1.5656  0.6459  0.1963
 9045TIP3    H248627   4.063   5.157   2.377  1.4009  0.1204  2.5539
 9046TIP3   OH248628   3.514   3.066   3.584 -0.3778 -0.5356 -0.0702
 9046TIP3    H148629   3.538   3.146   3.631 -1.5896  0.0745 -0.4460
 9046TIP3    H248630   3.462   3.016   3.646  0.4122 -1.0436  0.1763
 9047TIP3   OH248631   4.073   3.918   0.665 -0.3713  0.3724  0.4215
 9047TIP3    H148632   4.003   3.963   0.617 -1.8482 -0.3788  1.8139
 9047TIP3    H248633   4.090   3.974   0.741  0.0519  0.2215  0.4372
 9048TIP3   OH248634   4.474   2.387   0.287  0.5842  0.8339  0.0019
 9048TIP3    H148635   4.546   2.437   0.326 -1.7254  2.7192  2.0070
 9048TIP3    H248636   4.491   2.389   0.193  3.1645  1.2020  0.4418
 9049TIP3   OH248637   5.100   1.875  11.717 -0.3205 -0.3449  0.5853
 9049TIP3    H148638   5.154   1.900  11.642  0.3307  0.8951  1.4355
 9049TIP3    H248639   5.163   1.839  11.780 -0.5943  0.3590  1.2613
 9050TIP3   OH248640   1.897   2.293   5.125  0.2796  0.8037 -0.0121
 9050TIP3    H148641   1.950   2.278   5.203 -0.6480  1.9060  0.8647
 9050TIP3    H248642   1.939   2.241   5.056  0.0519 -1.6882  1.6556
 9051TIP3   OH248643   1.676   0.401  16.471 -0.0479  0.4429 -0.7029
 9051TIP3    H148644   1.657   0.307  16.465 -1.7378  0.6892  0.5327
 9051TIP3    H248645   1.687   0.418  16.564 -1.9678  1.8727 -0.6984
 9052TIP3   OH248646   6.454   4.134   0.503  0.0874  0.3278  0.4569
 9052TIP3    H148647   6.385   4.082   0.461  0.8332 -1.2799  1.1593
 9052TIP3    H248648   6.534   4.082   0.490  0.5661  0.4997  2.5922
 9053TIP3   OH248649   5.419   1.130  17.009  0.1216 -0.5273 -0.0396
 9053TIP3    H148650   5.490   1.066  17.016 -0.2656 -0.9579 -0.1097
 9053TIP3    H248651   5.426   1.181  17.089  0.9286 -0.1400 -0.3387
 9054TIP3   OH248652   5.623   5.127   1.168  0.2727  0.6044  0.2840
 9054TIP3    H148653   5.593   5.036   1.157 -0.2791  0.8463 -0.2471
 9054TIP3    H248654   5.697   5.135   1.108  0.4258  0.4530  0.4539
 9055TIP3   OH248655   6.304   6.113  16.202 -0.1559 -0.3356  0.1479
 9055TIP3    H148656   6.365   6.039  16.208  1.4049  1.0537  2.2379
 9055TIP3    H248657   6.239   6.095  16.269 -0.8922 -0.7877 -0.6836
 9056TIP3   OH248658   6.410   3.723   1.630 -0.0158  0.1369 -0.0873
 9056TIP3    H148659   6.334   3.732   1.573  0.4246 -0.4338 -0.7653
 9056TIP3    H248660   6.421   3.810   1.669 -1.6319 -0.0318  0.8065
 9057TIP3   OH248661   1.341   3.556   5.945  0.4630  0.8693 -0.1056
 9057TIP3    H148662   1.262   3.550   5.891  1.1174 -0.2416 -0.9693
 9057TIP3    H248663   1.346   3.473   5.991  0.8319  1.1541  0.3764
 9058TIP3   OH248664   5.861   6.571   3.981  0.4875 -0.2111  0.2603
 9058TIP3    H148665   5.929   6.618   3.934  1.3190 -0.7672  0.8923
 9058TIP3    H248666   5.879   6.479   3.963 -0.3290 -0.3520  0.1236
 9059TIP3   OH248667   5.167   5.343   5.143  0.3791 -0.3930 -0.6636
 9059TIP3    H148668   5.159   5.423   5.091  0.1504  0.3930  0.5835
 9059TIP3    H248669   5.077   5.313   5.154  0.1924  0.9314  1.5929
 9060TIP3   OH248670   4.358   4.364   1.226 -0.1332  0.0488 -0.2857
 9060TIP3    H148671   4.397   4.360   1.314 -1.6228 -1.1938  0.3480
 9060TIP3    H248672   4.380   4.451   1.194  0.5863  0.4554  1.2577
 9061TIP3   OH248673   6.268   3.938   5.554 -0.0954 -0.5764 -0.0188
 9061TIP3    H148674   6.348   3.983   5.527  0.2223 -0.2712  1.3810
 9061TIP3    H248675   6.296   3.849   5.574 -0.1906 -0.5956  0.0300
 9062TIP3   OH248676   6.109   0.440  15.239  0.6344  0.3774  0.0181
 9062TIP3    H148677   6.117   0.367  15.178  1.2737  0.4589 -0.0004
 9062TIP3    H248678   6.138   0.516  15.189  0.4419  0.5636  0.1916
 9063TIP3   OH248679   2.238   6.709   4.755 -0.2496  0.0819 -0.1228
 9063TIP3    H148680   2.258   6.760   4.833  1.6008 -0.4725 -0.2020
 9063TIP3    H248681   2.280   6.757   4.683 -1.2278  0.1499 -0.6489
 9064TIP3   OH248682   0.016   0.391   4.687 -0.4972 -0.1583  0.0358
 9064TIP3    H148683   0.080   0.397   4.758 -1.7149 -0.1072  1.1369
 9064TIP3    H248684  -0.027   0.477   4.687  0.5630  0.3962 -1.7887
 9065TIP3   OH248685   3.510   5.052   2.887 -0.2789  0.1418 -0.3282
 9065TIP3    H148686   3.572   5.039   2.815  0.4318 -1.1028  0.4877
 9065TIP3    H248687   3.476   4.964   2.905 -0.9157  0.5463  0.4446
 9066TIP3   OH248688   6.432   2.261  13.213  0.0479 -0.2240  0.4134
 9066TIP3    H148689   6.375   2.188  13.190 -2.4304  1.1303  2.0620
 9066TIP3    H248690   6.418   2.325  13.143 -1.1115  0.4399  1.2361
 9067TIP3   OH248691   1.549   0.455  12.536  0.0104 -0.1574  0.2082
 9067TIP3    H148692   1.548   0.360  12.535 -0.2587 -0.1532  0.0624
 9067TIP3    H248693   1.638   0.479  12.509  0.1868 -0.3706  0.6060
 9068TIP3   OH248694   2.920   2.949  15.821 -0.4219  0.0939  0.0651
 9068TIP3    H148695   2.940   2.944  15.727  0.6045  0.9728  0.2386
 9068TIP3    H248696   2.899   2.859  15.846  2.7322 -0.7741 -0.2387
 9069TIP3   OH248697   3.004   3.276  14.009  0.1063  0.5001 -0.3871
 9069TIP3    H148698   3.094   3.288  13.980  0.4044  1.1458  0.7622
 9069TIP3    H248699   2.953   3.341  13.961  0.5067  1.1844  0.1012
 9070TIP3   OH248700   3.331   4.031  14.753 -0.0249  0.3719 -0.1015
 9070TIP3    H148701   3.378   3.990  14.681 -2.3471  1.1035 -2.0790
 9070TIP3    H248702   3.337   3.967  14.824 -0.6876 -1.9406 -2.0610
 9071TIP3   OH248703   1.114   3.001   4.800  0.3495 -0.2546 -0.0669
 9071TIP3    H148704   1.035   2.958   4.768  1.6243 -0.7947 -2.6544
 9071TIP3    H248705   1.181   2.978   4.736  2.8671 -0.6557  2.5830
 9072TIP3   OH248706   3.746   4.797   4.446 -0.2986  0.0391  0.2868
 9072TIP3    H148707   3.726   4.818   4.354  2.3965 -1.3097 -0.6671
 9072TIP3    H248708   3.706   4.711   4.460 -1.2145  0.5040  0.5816
 9073TIP3   OH248709   0.403   3.957  15.306  0.1541  0.6677 -0.2181
 9073TIP3    H148710   0.362   3.949  15.392  0.9413  0.0675  0.1085
 9073TIP3    H248711   0.335   3.994  15.250 -0.5284  0.5635  0.5379
 9074TIP3   OH248712   4.086   2.139  11.118 -0.2116  0.7962 -0.2930
 9074TIP3    H148713   4.003   2.119  11.074  0.8804  0.5291 -2.3032
 9074TIP3    H248714   4.087   2.234  11.125 -0.7422  0.7940 -0.1926
 9075TIP3   OH248715   3.676   4.900   5.710  0.3684  0.1958  0.5535
 9075TIP3    H148716   3.581   4.897   5.705  0.4231 -1.7595  0.3829
 9075TIP3    H248717   3.702   4.812   5.740  2.0915  0.7901  0.8962
 9076TIP3   OH248718   2.463   6.614   1.451 -0.5629 -0.1257  0.4013
 9076TIP3    H148719   2.407   6.657   1.516  1.1865  2.1182  0.4793
 9076TIP3    H248720   2.433   6.649   1.367 -1.2540 -1.2392  0.1669
 9077TIP3   OH248721   2.985   2.147   2.232  0.2136  0.1773 -0.1377
 9077TIP3    H148722   3.054   2.092   2.268 -0.4052  0.6838  1.8369
 9077TIP3    H248723   3.031   2.222   2.194  0.8356 -0.1756 -0.0759
 9078TIP3   OH248724   4.767   0.999  16.701  0.2991  0.1953  0.2537
 9078TIP3    H148725   4.815   1.066  16.651  0.8392 -0.1286  0.3284
 9078TIP3    H248726   4.822   0.983  16.778  0.3261 -0.5328  0.0953
 9079TIP3   OH248727   5.215   1.416  15.158 -0.2713 -0.1028  0.3765
 9079TIP3    H148728   5.293   1.393  15.208 -0.8699  1.9821  2.3929
 9079TIP3    H248729   5.240   1.494  15.108 -0.6636 -0.2043  0.0142
 9080TIP3   OH248730   4.353   2.373  17.121 -0.2325 -0.2900 -0.5426
 9080TIP3    H148731   4.445   2.371  17.149  0.0917  0.6869 -1.5021
 9080TIP3    H248732   4.304   2.364  17.202  0.7087  1.0643  0.2130
 9081TIP3   OH248733   1.435   5.197   3.426  0.6890 -0.2191  0.4438
 9081TIP3    H148734   1.349   5.155   3.433  0.0272  1.0304 -0.1575
 9081TIP3    H248735   1.496   5.124   3.419 -0.4287 -1.0948 -0.3032
 9082TIP3   OH248736   2.367   2.593   5.501 -0.2002 -0.8963 -0.3793
 9082TIP3    H148737   2.454   2.578   5.464 -0.6030 -0.7189 -1.4275
 9082TIP3    H248738   2.307   2.559   5.434 -0.9537 -0.3749  0.0262
 9083TIP3   OH248739   2.221   0.801   2.195 -0.3814  0.3277 -0.7164
 9083TIP3    H148740   2.167   0.764   2.265  2.1713  0.9067  1.6290
 9083TIP3    H248741   2.216   0.895   2.208  1.7693  0.3667 -0.0042
 9084TIP3   OH248742   4.596   3.083  15.809  0.2503 -0.0498 -0.1566
 9084TIP3    H148743   4.569   3.175  15.806 -0.0607 -0.1804 -1.7427
 9084TIP3    H248744   4.614   3.066  15.902 -2.9695  0.6566  0.6607
 9085TIP3   OH248745   5.434   2.391   4.907  0.7212 -0.5347  0.7780
 9085TIP3    H148746   5.503   2.457   4.910  1.6142 -1.4120 -0.0665
 9085TIP3    H248747   5.417   2.369   4.999 -0.2345  1.5037  1.1263
 9086TIP3   OH248748   2.528   6.450   5.935 -0.2083 -0.7664  0.1528
 9086TIP3    H148749   2.591   6.398   5.885 -0.8418 -2.5879  1.2092
 9086TIP3    H248750   2.443   6.426   5.899 -0.4923 -0.2279  0.4483
 9087TIP3   OH248751   3.302   6.465  11.870 -0.3452 -0.2065  0.1605
 9087TIP3    H148752   3.341   6.390  11.915 -1.1960 -1.2558 -0.8324
 9087TIP3    H248753   3.334   6.458  11.780 -1.5185 -0.1636 -0.2696
 9088TIP3   OH248754   1.569   2.525   5.409  0.0321  0.1491  0.1504
 9088TIP3    H148755   1.603   2.456   5.352  0.6302  0.8686 -0.3792
 9088TIP3    H248756   1.474   2.511   5.410  0.1839 -0.9000  0.3444
 9089TIP3   OH248757   1.180   4.784   3.201 -0.3217  0.3829 -0.2784
 9089TIP3    H148758   1.240   4.754   3.133  1.9703  1.4481  1.2264
 9089TIP3    H248759   1.149   4.703   3.243 -1.7567 -0.2845 -2.5155
 9090TIP3   OH248760   3.522   2.697  14.054  0.1102  0.3440  0.6514
 9090TIP3    H148761   3.450   2.698  13.991  0.5070 -1.9627  0.0956
 9090TIP3    H248762   3.479   2.687  14.139 -0.2570 -3.0024  0.1799
 9091TIP3   OH248763   5.342   2.602  14.260  0.5421  0.4368  0.1233
 9091TIP3    H148764   5.363   2.675  14.319  1.0419  0.1059  0.3532
 9091TIP3    H248765   5.310   2.644  14.180 -1.7767  0.8706  1.2424
 9092TIP3   OH248766   6.544   1.449   0.925 -0.0460  0.4186 -0.7556
 9092TIP3    H148767   6.529   1.392   1.000  2.0662  0.6896 -0.0964
 9092TIP3    H248768   6.559   1.390   0.851  0.9603  0.1181 -0.3180
 9093TIP3   OH248769   0.913   2.454  15.674 -0.4427  0.0792 -0.0076
 9093TIP3    H148770   0.996   2.493  15.702 -0.1992  0.1711 -0.8584
 9093TIP3    H248771   0.913   2.464  15.579 -1.3875 -0.0075 -0.0153
 9094TIP3   OH248772   3.868   6.591   6.041 -0.2751  1.0130 -0.3735
 9094TIP3    H148773   3.942   6.532   6.030  1.1044  2.1778  2.1442
 9094TIP3    H248774   3.794   6.534   6.061  0.2945 -0.0510 -1.2670
 9095TIP3   OH248775   0.208   3.172   1.101  0.8610 -0.3806 -0.2645
 9095TIP3    H148776   0.260   3.194   1.024  1.1487 -0.4977 -0.1093
 9095TIP3    H248777   0.273   3.162   1.171  0.5876 -0.1146  0.0280
 9096TIP3   OH248778   0.622   0.149  14.598  0.4221 -0.2777 -0.2401
 9096TIP3    H148779   0.534   0.187  14.599  0.7561  0.5925 -1.7380
 9096TIP3    H248780   0.629   0.102  14.681 -0.8548  0.9962  0.6137
 9097TIP3   OH248781   0.502   6.189  13.573 -0.5274  0.1765 -0.1950
 9097TIP3    H148782   0.520   6.280  13.598 -0.5841 -0.0230  0.5754
 9097TIP3    H248783   0.556   6.137  13.632 -0.6117 -0.2986 -0.5345
 9098TIP3   OH248784   1.676   5.584  13.961  0.0438 -0.2003 -0.2466
 9098TIP3    H148785   1.659   5.525  13.888  1.2084 -2.0121  0.9090
 9098TIP3    H248786   1.769   5.573  13.980  0.2140  1.7885  0.2012
 9099TIP3   OH248787   1.133   5.492  13.156 -0.2354  0.3285 -0.1582
 9099TIP3    H148788   1.062   5.522  13.099  0.6717 -0.1727 -1.5745
 9099TIP3    H248789   1.114   5.399  13.170 -0.0832  0.2959 -0.1766
 9100TIP3   OH248790   5.945   6.237  17.223  1.1004 -0.0002  0.0234
 9100TIP3    H148791   6.014   6.173  17.205  0.2344 -1.8526  2.8774
 9100TIP3    H248792   5.893   6.239  17.142  2.1487 -1.6351 -0.7270
 9101TIP3   OH248793   4.050   0.458   2.028  0.3819 -0.2396  0.2512
 9101TIP3    H148794   4.119   0.407   2.071 -0.1536  0.7711  2.3922
 9101TIP3    H248795   4.093   0.540   2.004 -0.2630  0.8024  2.4972
 9102TIP3   OH248796   4.467   5.537  11.878  0.3569 -0.6276  0.9374
 9102TIP3    H148797   4.454   5.505  11.968 -2.7422 -1.5141  0.2343
 9102TIP3    H248798   4.443   5.463  11.823  1.0455  0.3200 -0.6491
 9103TIP3   OH248799   2.443   2.781  15.037 -0.4477 -0.2507  0.0403
 9103TIP3    H148800   2.512   2.715  15.033  0.7885  0.9189  1.5110
 9103TIP3    H248801   2.428   2.806  14.945  3.4751  1.9122 -0.0783
 9104TIP3   OH248802   0.666   4.361  15.941  0.0084  0.2143  0.0119
 9104TIP3    H148803   0.663   4.307  15.862  2.3442  1.1582 -0.7598
 9104TIP3    H248804   0.642   4.449  15.911 -0.6592  0.2592  0.6596
 9105TIP3   OH248805   0.405   0.349   5.507  0.0584  0.3409 -0.7453
 9105TIP3    H148806   0.447   0.352   5.593  0.9268  1.5661 -1.1979
 9105TIP3    H248807   0.469   0.389   5.448 -0.0739 -1.5140 -2.1666
 9106TIP3   OH248808   1.025   5.794  12.343 -0.1674 -0.2838  0.0034
 9106TIP3    H148809   0.978   5.801  12.260 -1.7542 -2.2935  0.6561
 9106TIP3    H248810   0.959   5.761  12.404  0.6900  2.1738  2.3266
 9107TIP3   OH248811   0.688   4.672  11.606  0.6751 -0.3955  0.2069
 9107TIP3    H148812   0.683   4.582  11.638  1.1524 -0.6449 -0.4033
 9107TIP3    H248813   0.771   4.676  11.558  1.6444  0.9497  1.9653
 9108TIP3   OH248814   1.391   5.575   5.974 -0.0703  0.0414  0.5387
 9108TIP3    H148815   1.442   5.532   5.906  1.2949  1.6944  0.5025
 9108TIP3    H248816   1.370   5.505   6.036  0.5944 -1.0168 -0.4139
 9109TIP3   OH248817   2.883   6.315  14.255  0.7380 -0.9493 -0.6221
 9109TIP3    H148818   2.922   6.321  14.342 -0.8867 -1.5291  0.1536
 9109TIP3    H248819   2.958   6.324  14.195  1.7639  0.2565  0.8008
 9110TIP3   OH248820   5.119   5.370   6.480 -0.1700 -0.0196  0.3848
 9110TIP3    H148821   5.151   5.282   6.461 -1.5353  0.1043 -2.7145
 9110TIP3    H248822   5.198   5.424   6.481  0.6936 -1.2603  2.4098
 9111TIP3   OH248823   0.324   6.336  14.681  0.7003  0.8914 -0.0336
 9111TIP3    H148824   0.264   6.262  14.689 -0.0676  1.3840 -1.1143
 9111TIP3    H248825   0.354   6.352  14.771 -0.7417  0.5957  0.5185
 9112TIP3   OH248826   1.264   5.828  14.241  0.0459 -0.1514 -0.2275
 9112TIP3    H148827   1.344   5.836  14.190  0.1882 -1.4455 -0.2317
 9112TIP3    H248828   1.288   5.772  14.315 -1.0550 -1.2776 -0.6911
 9113TIP3   OH248829   0.881   5.071  13.881 -0.2377  0.4911  0.4338
 9113TIP3    H148830   0.892   5.166  13.889 -0.0487  0.6614 -1.5961
 9113TIP3    H248831   0.790   5.060  13.856 -0.3202  0.1214  0.9048
 9114TIP3   OH248832   6.150   4.787   0.972  0.1747  0.0667 -0.2582
 9114TIP3    H148833   6.096   4.841   1.030  0.7903  0.2231  0.1633
 9114TIP3    H248834   6.198   4.851   0.918  0.4784 -0.0665 -0.1443
 9115TIP3   OH248835   3.603   0.210   4.962 -0.6432 -0.2476 -0.4224
 9115TIP3    H148836   3.566   0.124   4.983  0.5383 -0.8997 -0.9771
 9115TIP3    H248837   3.648   0.237   5.042  1.5315 -1.5103 -1.1656
 9116TIP3   OH248838   1.383   3.741   0.810  0.1251  0.0519 -0.2882
 9116TIP3    H148839   1.476   3.722   0.803  0.2225  0.2521  0.4218
 9116TIP3    H248840   1.351   3.683   0.879 -0.1641  0.3816 -0.1395
 9117TIP3   OH248841   5.829   6.220   0.459 -0.6402  0.2178 -0.0807
 9117TIP3    H148842   5.786   6.302   0.434  0.6030  0.8503 -0.1844
 9117TIP3    H248843   5.865   6.187   0.377 -1.5287 -0.6699 -0.1169
 9118TIP3   OH248844   6.023   3.011   3.293 -0.7418  0.3898  0.1799
 9118TIP3    H148845   6.043   2.937   3.351  0.5566 -1.0108 -1.9838
 9118TIP3    H248846   6.069   3.085   3.331  0.6320 -0.6658  0.6035
 9119TIP3   OH248847   3.480   6.065  15.171 -0.6143 -0.5827 -0.2467
 9119TIP3    H148848   3.415   6.098  15.232 -0.9330  3.0960 -2.3922
 9119TIP3    H248849   3.564   6.086  15.212 -0.7816 -2.1589  0.9254
 9120TIP3   OH248850   3.038   4.072  14.752 -0.6813 -0.3089 -0.0075
 9120TIP3    H148851   3.002   3.993  14.793 -2.7068  0.3025 -0.5828
 9120TIP3    H248852   3.112   4.096  14.809 -1.3814 -1.3773  1.4027
 9121TIP3   OH248853   3.146   6.666  14.117 -0.4322  0.1721 -0.2415
 9121TIP3    H148854   3.180   6.752  14.143 -0.1456  0.7695 -2.4949
 9121TIP3    H248855   3.172   6.656  14.025  1.5836 -3.3531  0.6303
 9122TIP3   OH248856   6.348   3.387  14.251 -0.1231  0.1625 -0.1507
 9122TIP3    H148857   6.359   3.306  14.202  2.0002  0.8751 -0.8901
 9122TIP3    H248858   6.400   3.452  14.203  2.0665  0.8777  3.0072
 9123TIP3   OH248859   0.476   6.355  14.911 -0.4825 -0.5278  0.1321
 9123TIP3    H148860   0.544   6.314  14.857 -0.1723  0.2918 -0.1012
 9123TIP3    H248861   0.491   6.449  14.902 -0.8887 -0.3686  1.0664
 9124TIP3   OH248862   0.819   3.871  11.890 -0.3071 -0.0486 -0.2677
 9124TIP3    H148863   0.873   3.802  11.853  0.7425  0.8549 -0.4787
 9124TIP3    H248864   0.852   3.881  11.980  1.1872  1.7902 -0.9890
 9125TIP3   OH248865   3.880   0.400  15.202 -0.3762  0.3969  0.6881
 9125TIP3    H148866   3.918   0.318  15.170 -1.1024 -0.0971  1.0803
 9125TIP3    H248867   3.861   0.383  15.294 -2.8118  0.1747  0.1715
 9126TIP3   OH248868   2.818   3.788  14.218  0.7724 -0.6415  0.5180
 9126TIP3    H148869   2.872   3.765  14.143  0.8012  2.2264 -0.3776
 9126TIP3    H248870   2.730   3.760  14.194  0.8355 -0.0129 -0.4815
 9127TIP3   OH248871   3.727   2.906  16.582 -0.2623 -0.0547 -0.1276
 9127TIP3    H148872   3.820   2.886  16.583 -0.1135  0.2363 -3.4619
 9127TIP3    H248873   3.722   2.999  16.602  0.1732 -0.0175 -0.1974
 9128TIP3   OH248874   3.939   0.956   3.868 -0.1151  0.0315 -0.1526
 9128TIP3    H148875   3.925   0.869   3.905  0.6545  0.4115  1.0979
 9128TIP3    H248876   4.034   0.963   3.859  0.1682  2.0966  3.3388
 9129TIP3   OH248877   0.361   1.213  12.352 -0.0826 -0.2548  0.1498
 9129TIP3    H148878   0.455   1.206  12.337 -0.2537  0.1772 -1.2436
 9129TIP3    H248879   0.322   1.170  12.276 -1.0151 -1.2776  1.1812
 9130TIP3   OH248880   2.762   4.965   1.686  0.3117  0.3851  0.4238
 9130TIP3    H148881   2.747   5.018   1.608 -0.6682  1.4580  1.3078
 9130TIP3    H248882   2.687   4.906   1.689  2.0017 -1.8738 -1.1972
 9131TIP3   OH248883   3.611   3.906   2.889 -0.1261 -0.5448  0.2389
 9131TIP3    H148884   3.572   3.935   2.807  1.3090  0.7526 -0.0213
 9131TIP3    H248885   3.604   3.811   2.887 -2.2205 -0.3936 -0.3023
 9132TIP3   OH248886   6.672   3.999   0.450  0.0861  0.0117 -0.4323
 9132TIP3    H148887   6.712   3.915   0.473 -2.3432 -0.8818  0.8122
 9132TIP3    H248888   6.620   3.980   0.372 -1.9816 -0.1471  0.9509
 9133TIP3   OH248889   5.384   3.159   6.569  0.6245  0.2230 -0.2601
 9133TIP3    H148890   5.385   3.180   6.475 -0.1093 -2.1899 -0.8426
 9133TIP3    H248891   5.298   3.187   6.599  0.2953 -0.3252 -0.6609
 9134TIP3   OH248892   4.360   6.642   1.415 -0.0364  0.0692 -0.4382
 9134TIP3    H148893   4.292   6.609   1.474  0.8842 -0.8331  0.1202
 9134TIP3    H248894   4.371   6.574   1.349 -0.5692  0.7749 -1.2748
 9135TIP3   OH248895   5.736   0.115  13.259  0.1730 -0.2295 -0.5886
 9135TIP3    H148896   5.747   0.210  13.260 -4.1019  0.4026  2.9344
 9135TIP3    H248897   5.654   0.101  13.211  1.3227 -2.2949 -2.0629
 9136TIP3   OH248898   0.063   5.019  12.801  0.0341  0.4147  0.1360
 9136TIP3    H148899   0.130   4.981  12.745  0.0293 -0.4358  0.6960
 9136TIP3    H248900   0.110   5.043  12.881 -0.3979 -0.5861  0.7010
 9137TIP3   OH248901   4.784   1.347  12.596  0.4711  0.3406  0.1331
 9137TIP3    H148902   4.805   1.429  12.641 -0.6848  0.0002  1.3194
 9137TIP3    H248903   4.868   1.317  12.561  0.8165  2.2491 -0.7028
 9138TIP3   OH248904   4.248   0.135  14.854 -0.8168 -0.5415 -0.6386
 9138TIP3    H148905   4.225   0.051  14.813 -0.0714 -0.8732 -0.3900
 9138TIP3    H248906   4.337   0.152  14.825 -0.4879 -0.4947  0.3795
 9139TIP3   OH248907   6.090   0.483  15.510  0.0927  0.0132  0.4524
 9139TIP3    H148908   6.169   0.533  15.531 -0.8295  2.0498 -0.7969
 9139TIP3    H248909   6.104   0.451  15.421 -0.1961 -0.1826  0.4771
 9140TIP3   OH248910   4.860   2.836  16.182  0.1994 -0.4645 -0.7862
 9140TIP3    H148911   4.810   2.768  16.226  1.5939 -0.0568  1.5058
 9140TIP3    H248912   4.952   2.816  16.204  0.6816  1.6098 -0.8328
 9141TIP3   OH248913   4.137   6.253  16.899  0.4131  0.7283  0.0923
 9141TIP3    H148914   4.065   6.272  16.959  0.2252  0.8151 -0.1584
 9141TIP3    H248915   4.167   6.165  16.924  0.5341  0.8851  0.5047
 9142TIP3   OH248916   1.338   3.423  13.765  0.1102 -0.0719  0.3235
 9142TIP3    H148917   1.358   3.369  13.688 -0.8161 -0.5310  0.4009
 9142TIP3    H248918   1.370   3.510  13.741 -0.1223 -0.2217 -0.5622
 9143TIP3   OH248919   1.635   1.237  11.067  0.1322  0.5639  0.3509
 9143TIP3    H148920   1.659   1.240  10.975  1.1150  1.3779  0.6184
 9143TIP3    H248921   1.547   1.273  11.071 -0.4867 -0.8352 -0.4453
 9144TIP3   OH248922   1.956   6.422  16.462 -0.1368  0.4718  0.2215
 9144TIP3    H148923   1.921   6.482  16.396 -0.0363 -0.7906 -1.0040
 9144TIP3    H248924   2.042   6.458  16.485  0.8049 -0.2882 -1.9972
 9145TIP3   OH248925   0.042   5.138  13.877 -0.2859 -0.2011 -0.0235
 9145TIP3    H148926  -0.045   5.131  13.916 -0.0474  0.7582  0.6933
 9145TIP3    H248927   0.099   5.163  13.950 -0.2298  4.0693 -1.4354
 9146TIP3   OH248928   3.579   0.209   6.239  0.7568 -0.9314 -0.3144
 9146TIP3    H148929   3.588   0.210   6.334  0.0969  1.2297 -0.2452
 9146TIP3    H248930   3.486   0.197   6.223  0.8493 -1.1753 -0.6864
 9147TIP3   OH248931   3.272   0.380  17.192  0.3152  0.1512 -0.1569
 9147TIP3    H148932   3.311   0.400  17.277  1.0087  1.6736 -0.8272
 9147TIP3    H248933   3.334   0.321  17.150  0.7787  0.7346 -0.2879
 9148TIP3   OH248934   0.924   4.748   1.014 -0.5945  0.2149 -0.6043
 9148TIP3    H148935   0.909   4.815   0.948 -0.3443  0.5611 -0.3137
 9148TIP3    H248936   0.861   4.768   1.083 -0.2162  0.4293 -0.3140
 9149TIP3   OH248937   1.892   5.694   0.325  0.2454  0.1390 -0.5987
 9149TIP3    H148938   1.857   5.683   0.414 -0.8486  0.0371 -1.0287
 9149TIP3    H248939   1.929   5.783   0.325 -0.8307  0.5960 -0.3874
 9150TIP3   OH248940   1.936   4.049   3.190  0.3616 -0.3198 -0.0455
 9150TIP3    H148941   1.928   4.144   3.180  0.4342 -0.4284 -1.2039
 9150TIP3    H248942   1.853   4.015   3.157  0.4756 -0.6864  0.0467
 9151TIP3   OH248943   4.363   3.825  14.160  0.4166  0.0746  0.2534
 9151TIP3    H148944   4.314   3.816  14.242  2.0313 -1.8943  1.0361
 9151TIP3    H248945   4.308   3.880  14.105 -0.9739  0.9252  2.4476
 9152TIP3   OH248946   2.150   6.692  10.408 -0.4110  0.5082  0.3281
 9152TIP3    H148947   2.204   6.632  10.458 -0.7684 -1.4777 -1.5744
 9152TIP3    H248948   2.094   6.635  10.355 -1.3928  2.5263 -0.8656
 9153TIP3   OH248949   5.044   3.295   3.560  1.0866  0.6947 -0.0151
 9153TIP3    H148950   5.087   3.252   3.633 -1.6899  1.2131  2.0185
 9153TIP3    H248951   4.966   3.241   3.544  1.7054  0.5266 -2.6780
 9154TIP3   OH248952   0.174   5.853   6.675 -0.2387 -0.8178  0.0856
 9154TIP3    H148953   0.084   5.838   6.705 -0.1807 -0.3868  0.4849
 9154TIP3    H248954   0.228   5.832   6.751 -0.1060  0.5235  0.3608
 9155TIP3   OH248955   1.599   2.121  13.366  0.0243 -0.0480 -0.0895
 9155TIP3    H148956   1.649   2.063  13.309 -0.5953 -0.0313 -0.6653
 9155TIP3    H248957   1.550   2.178  13.306  0.6911  1.1285  0.4652
 9156TIP3   OH248958   6.762   1.198  15.369 -1.0113  0.0016  0.2960
 9156TIP3    H148959   6.796   1.286  15.387 -0.6718 -0.0252 -0.2139
 9156TIP3    H248960   6.828   1.140  15.406 -1.2211 -0.0411  0.6055
 9157TIP3   OH248961   5.344   3.258   4.513 -0.1406  0.5128 -0.2612
 9157TIP3    H148962   5.398   3.241   4.590  0.0567  2.1229 -0.0232
 9157TIP3    H248963   5.278   3.189   4.514 -0.0402  0.4215  1.2593
 9158TIP3   OH248964   2.703   5.116  15.544  0.1282  0.3824  0.0802
 9158TIP3    H148965   2.661   5.198  15.523 -1.7072 -1.1322 -2.3513
 9158TIP3    H248966   2.639   5.069  15.598  0.3219 -0.3181 -0.2987
 9159TIP3   OH248967   6.338   3.660  11.092  0.7255 -0.2975 -0.4557
 9159TIP3    H148968   6.416   3.681  11.041  1.5528  0.3654  1.0589
 9159TIP3    H248969   6.321   3.568  11.074  0.4806  0.1420 -2.6052
 9160TIP3   OH248970   0.179   1.677  15.148 -0.3210  0.1351 -0.3529
 9160TIP3    H148971   0.144   1.744  15.207 -0.1181 -0.0596 -0.0052
 9160TIP3    H248972   0.254   1.719  15.105 -1.2530  0.7005 -1.4382
 9161TIP3   OH248973   0.192   4.527   5.953 -0.0504 -0.8165  0.4019
 9161TIP3    H148974   0.263   4.590   5.940 -1.4662  0.5686 -0.8617
 9161TIP3    H248975   0.202   4.498   6.044 -0.2706  2.4027  1.5042
 9162TIP3   OH248976   1.436   5.135   0.036 -0.0251  0.2644 -0.5649
 9162TIP3    H148977   1.355   5.128  -0.014 -0.5817  0.0689  0.3560
 9162TIP3    H248978   1.492   5.191  -0.017 -1.8315  2.8224  0.1516
 9163TIP3   OH248979   0.609   0.784  10.927  0.1521 -0.3506 -0.0321
 9163TIP3    H148980   0.603   0.879  10.930 -0.1404 -0.3650 -0.1602
 9163TIP3    H248981   0.587   0.761  10.836  1.4215 -0.4513 -0.3249
 9164TIP3   OH248982   3.589   1.152   3.577  0.0870 -0.4237 -0.0017
 9164TIP3    H148983   3.497   1.157   3.604  0.3886  2.4978  0.5818
 9164TIP3    H248984   3.638   1.149   3.660  0.5902 -0.3936 -0.2989
 9165TIP3   OH248985   4.552   5.549  11.130 -0.1817  0.2350  0.1989
 9165TIP3    H148986   4.582   5.504  11.210 -0.3589 -0.5619 -0.1792
 9165TIP3    H248987   4.460   5.569  11.147 -0.6143 -1.2005 -0.3543
 9166TIP3   OH248988   5.063   2.204  12.504 -0.4615  0.4829  0.1408
 9166TIP3    H148989   5.148   2.242  12.482 -0.1452 -0.7556 -0.8938
 9166TIP3    H248990   5.007   2.227  12.429  0.0149 -1.8960 -0.9919
 9167TIP3   OH248991   4.895   6.124  12.175 -0.3657  0.0994  0.2169
 9167TIP3    H148992   4.915   6.152  12.265  0.9404 -0.0479 -0.0152
 9167TIP3    H248993   4.895   6.206  12.125 -0.9955  0.1714  0.3377
 9168TIP3   OH248994   5.210   2.846  12.337  0.2594  0.2876  0.6023
 9168TIP3    H148995   5.248   2.873  12.420  1.0475 -0.7878  0.6135
 9168TIP3    H248996   5.178   2.757  12.353 -0.0689  0.2743 -0.0919
 9169TIP3   OH248997   5.577   2.010  11.669  0.7986 -0.2556  0.0059
 9169TIP3    H148998   5.608   2.100  11.682 -0.8150 -0.0353  2.7436
 9169TIP3    H248999   5.657   1.958  11.661  1.7924  1.1356  0.7029
 9170TIP3   OH249000   1.962   5.675  13.941  0.7172 -0.3942 -0.1752
 9170TIP3    H149001   1.935   5.734  13.871 -2.8888 -1.6606  0.0761
 9170TIP3    H249002   2.001   5.733  14.007 -1.3884  1.5497 -0.5798
 9171TIP3   OH249003   6.476   3.714   4.377 -0.4126  0.7639  0.2909
 9171TIP3    H149004   6.462   3.725   4.471 -0.8705 -1.9300  0.5928
 9171TIP3    H249005   6.398   3.749   4.336 -1.2485 -0.1385  1.0788
 9172TIP3   OH249006   4.896   4.488  16.982  0.2008 -0.3668  0.1832
 9172TIP3    H149007   4.883   4.575  17.020 -2.0410 -0.2217 -0.8192
 9172TIP3    H249008   4.810   4.465  16.945  0.8491 -2.8582  0.1313
 9173TIP3   OH249009   0.271   3.093  11.483 -0.3260 -0.2583  0.6195
 9173TIP3    H149010   0.283   3.184  11.455  0.4482 -0.3803  0.5414
 9173TIP3    H249011   0.215   3.099  11.560  0.3128  0.3447  1.0391
 9174TIP3   OH249012   1.864   5.366  10.989 -0.5010 -0.1313 -0.5449
 9174TIP3    H149013   1.795   5.424  10.956 -0.7679  0.4087  0.9028
 9174TIP3    H249014   1.941   5.389  10.938 -0.2403  2.5089  0.9453
 9175TIP3   OH249015   2.034   0.280   1.800  0.1026  0.1267 -0.1273
 9175TIP3    H149016   2.099   0.343   1.834  0.4683 -0.2093 -0.1960
 9175TIP3    H249017   1.952   0.328   1.799  0.0887  0.1459  1.2427
 9176TIP3   OH249018   5.894   3.197   4.118  0.6903  0.5032 -0.3742
 9176TIP3    H149019   5.920   3.105   4.128  0.7726  0.6117  0.4652
 9176TIP3    H249020   5.977   3.244   4.107  0.6721  0.5146 -0.4567
 9177TIP3   OH249021   3.746   0.070  15.424 -0.2484  0.0354  0.2479
 9177TIP3    H149022   3.736  -0.013  15.471 -1.9615 -2.2778 -3.9246
 9177TIP3    H249023   3.840   0.077  15.408 -0.2142 -1.8768 -0.5727
 9178TIP3   OH249024   1.047   3.007  15.425 -0.7528  0.5336  0.2008
 9178TIP3    H149025   0.995   2.941  15.472 -0.4542  0.1155 -0.0477
 9178TIP3    H249026   1.071   2.964  15.343 -1.1295  1.2021 -0.2636
 9179TIP3   OH249027   0.351   1.693  11.985 -0.5232 -0.2543  0.5722
 9179TIP3    H149028   0.344   1.771  12.040  0.8531 -0.3102  0.8429
 9179TIP3    H249029   0.268   1.689  11.938 -0.3643  1.7152  0.0941
 9180TIP3   OH249030   6.355   2.700  16.954  0.0430  0.5186  0.0632
 9180TIP3    H149031   6.278   2.715  17.009  0.4230  0.9796  0.4847
 9180TIP3    H249032   6.428   2.732  17.007  0.6605 -0.9377  0.1389
 9181TIP3   OH249033   1.183   5.213  13.211  0.5611  0.5269  0.4131
 9181TIP3    H149034   1.273   5.238  13.190 -0.2759  1.6081 -2.0075
 9181TIP3    H249035   1.192   5.133  13.262  2.8649  0.0964 -0.6058
 9182TIP3   OH249036   4.864   5.286   5.241  0.0323 -0.4091 -0.6032
 9182TIP3    H149037   4.810   5.224   5.193 -0.1726 -1.3827  0.8477
 9182TIP3    H249038   4.842   5.271   5.333  0.2831  1.5216 -0.1939
 9183TIP3   OH249039   4.758   1.582   0.684 -0.8155 -0.2939 -0.4859
 9183TIP3    H149040   4.717   1.668   0.699  1.9178  0.9388  0.2342
 9183TIP3    H249041   4.761   1.573   0.589  0.2113  1.1020 -0.6039
 9184TIP3   OH249042   2.360   4.648  15.567 -0.7307  0.1412  0.5810
 9184TIP3    H149043   2.421   4.636  15.640 -0.5704  2.0560  0.7936
 9184TIP3    H249044   2.409   4.621  15.490 -0.0135  0.5534  0.8921
 9185TIP3   OH249045   0.686   4.491  14.965  0.1631 -0.2252 -0.0743
 9185TIP3    H149046   0.670   4.466  15.056 -1.3759  0.7245 -0.0681
 9185TIP3    H249047   0.710   4.409  14.921  1.2029 -0.6320  1.2378
 9186TIP3   OH249048   6.745   2.740   0.113  0.0811  0.2569 -0.3316
 9186TIP3    H149049   6.825   2.776   0.075  1.3796 -1.0698  1.0260
 9186TIP3    H249050   6.731   2.793   0.192 -0.6856  0.8206 -0.8402
 9187TIP3   OH249051   6.599   4.461  11.729 -0.1452  0.3743  1.1265
 9187TIP3    H149052   6.580   4.392  11.665 -0.9635  0.8013  0.9026
 9187TIP3    H249053   6.618   4.538  11.676  2.4082 -0.0601  1.3372
 9188TIP3   OH249054   1.676   1.827   3.845  0.1643  0.4664  0.1904
 9188TIP3    H149055   1.745   1.766   3.873 -0.2755  0.3011  0.9191
 9188TIP3    H249056   1.602   1.808   3.903 -0.8716 -0.0793 -1.2664
 9189TIP3   OH249057   4.902   3.184  13.919 -0.3240  0.0563  0.1652
 9189TIP3    H149058   4.956   3.113  13.884 -0.3453  0.0782  0.0880
 9189TIP3    H249059   4.832   3.194  13.855 -0.6723 -0.2761  0.4942
 9190TIP3   OH249060   2.402   5.997  15.951 -0.5784 -0.3038 -0.4654
 9190TIP3    H149061   2.339   5.926  15.955 -0.9219  0.0920  1.3500
 9190TIP3    H249062   2.349   6.077  15.951 -0.1043  0.0112  0.0866
 9191TIP3   OH249063   4.986   3.774   1.109  0.0471  0.2430  0.2623
 9191TIP3    H149064   5.051   3.823   1.059 -0.4699 -0.2890 -0.9529
 9191TIP3    H249065   5.037   3.715   1.163  0.6003  0.3257 -0.1653
 9192TIP3   OH249066   0.867   6.697  10.355 -0.1051  0.0899  0.0792
 9192TIP3    H149067   0.816   6.617  10.369 -1.1857  0.6456 -0.5643
 9192TIP3    H249068   0.957   6.672  10.374 -0.4945 -1.1629  0.3285
 9193TIP3   OH249069   1.163   3.066   2.778  0.8181 -0.5303  0.5046
 9193TIP3    H149070   1.191   3.016   2.855  1.3999  1.1387  1.4002
 9193TIP3    H249071   1.094   3.124   2.811 -1.2681 -2.1015 -0.9471
 9194TIP3   OH249072   4.827   6.040  16.554  0.0297 -0.5626 -0.0586
 9194TIP3    H149073   4.858   5.967  16.608 -0.3204 -1.1375 -0.6315
 9194TIP3    H249074   4.741   6.012  16.524  1.0681 -1.1337 -2.6074
 9195TIP3   OH249075   6.216   6.563  12.311  0.1243  0.3629  0.2517
 9195TIP3    H149076   6.286   6.629  12.309  1.6167 -1.2087 -1.9886
 9195TIP3    H249077   6.161   6.585  12.236  0.3529 -0.6421 -0.2121
 9196TIP3   OH249078   3.620   2.799  14.943  0.3815 -0.2809 -0.4621
 9196TIP3    H149079   3.527   2.776  14.954  0.7126 -1.2361  0.4578
 9196TIP3    H249080   3.659   2.721  14.904  0.7897  0.1450 -0.9045
 9197TIP3   OH249081   4.597   5.452   0.673 -0.4163 -0.2008 -0.2163
 9197TIP3    H149082   4.506   5.422   0.678 -0.4619 -0.0115  0.1090
 9197TIP3    H249083   4.635   5.428   0.758 -0.2814  0.1077 -0.1891
 9198TIP3   OH249084   2.055   1.279  11.409  0.5654 -0.5197  0.5372
 9198TIP3    H149085   2.069   1.317  11.322 -1.2928  0.0446  0.4519
 9198TIP3    H249086   2.026   1.352  11.463 -2.4353 -1.6069  0.5312
 9199TIP3   OH249087   2.803   2.938   5.293  0.3799 -0.5777 -0.0977
 9199TIP3    H149088   2.753   2.994   5.232  1.3325  1.9550  1.3549
 9199TIP3    H249089   2.895   2.957   5.273  0.7136  0.3959  2.1701
 9200TIP3   OH249090   5.127   5.285   0.267 -0.2595 -0.1227 -0.3454
 9200TIP3    H149091   5.037   5.282   0.302  0.4237 -1.6459  1.3762
 9200TIP3    H249092   5.116   5.280   0.172 -2.0011 -0.2031 -0.1596
 9201TIP3   OH249093   1.468   0.942  10.977 -0.0719  0.4709 -0.3180
 9201TIP3    H149094   1.449   0.993  10.898  0.3076  1.7638  0.4044
 9201TIP3    H249095   1.549   0.895  10.957 -0.9747 -0.6385 -1.3608
 9202TIP3   OH249096   6.097   4.973  13.160 -0.3235 -0.6753 -0.6302
 9202TIP3    H149097   6.073   4.883  13.139  2.0940 -1.4645 -0.1350
 9202TIP3    H249098   6.185   4.984  13.124 -0.8564  1.7295 -1.2917
 9203TIP3   OH249099   0.506   0.911   1.737  0.0865 -0.5354 -0.2252
 9203TIP3    H149100   0.419   0.941   1.711  1.0568  2.4651 -0.2036
 9203TIP3    H249101   0.492   0.869   1.822 -1.3617 -0.2105 -0.2870
 9204TIP3   OH249102   0.594   5.456  12.005 -0.2995 -0.3340 -0.2480
 9204TIP3    H149103   0.668   5.479  12.060 -0.8260 -0.5847  0.5774
 9204TIP3    H249104   0.573   5.366  12.029 -0.5142 -0.4575 -0.8808
 9205TIP3   OH249105   3.098   6.777   3.402  0.2883 -0.5079 -0.4042
 9205TIP3    H149106   3.122   6.870   3.397  2.4826 -1.0260  0.2213
 9205TIP3    H249107   3.099   6.747   3.311 -1.7489  0.3654 -0.7588
 9206TIP3   OH249108   4.258   2.889   1.169 -0.1363  0.1302 -0.8412
 9206TIP3    H149109   4.177   2.926   1.204 -0.8785 -1.4468 -0.8763
 9206TIP3    H249110   4.265   2.926   1.081 -1.7533 -1.1045 -1.5072
 9207TIP3   OH249111   6.668   1.581  15.472 -0.0197 -0.1128  0.1658
 9207TIP3    H149112   6.740   1.642  15.485 -1.3153  1.3227  0.7716
 9207TIP3    H249113   6.685   1.511  15.535 -0.1855  1.1885  1.6771
 9208TIP3   OH249114   4.104   5.292   2.921  0.0648  0.7606  1.3126
 9208TIP3    H149115   4.032   5.234   2.945  0.3846  0.4603  1.5449
 9208TIP3    H249116   4.183   5.242   2.940  0.3335  0.5230 -0.3197
 9209TIP3   OH249117   2.961   0.680   3.996 -0.5640  0.3688  0.4534
 9209TIP3    H149118   2.921   0.719   3.918  0.9832  2.5106  0.7159
 9209TIP3    H249119   3.053   0.703   3.990 -0.2161 -0.5015  2.3024
 9210TIP3   OH249120   1.476   0.080  12.245  0.3724  0.0295 -0.1394
 9210TIP3    H149121   1.432  -0.004  12.259 -1.4261  0.5902 -2.1178
 9210TIP3    H249122   1.430   0.141  12.303 -0.2844  0.2316 -0.8569
 9211TIP3   OH249123   4.001   2.494  10.618  0.2081  0.0032 -0.2967
 9211TIP3    H149124   3.987   2.467  10.527 -2.2353  0.9469 -0.2511
 9211TIP3    H249125   3.916   2.481  10.659  0.9439  0.8667  1.5283
 9212TIP3   OH249126   1.742   5.547  12.137 -0.0467 -0.3155  1.0074
 9212TIP3    H149127   1.738   5.632  12.182 -0.2238  0.7396 -0.9486
 9212TIP3    H249128   1.660   5.543  12.087  1.6585  0.0502 -1.8841
 9213TIP3   OH249129   4.288   2.825  17.276  0.0582  0.1626 -0.5021
 9213TIP3    H149130   4.296   2.771  17.197 -0.4189  0.5971 -0.8428
 9213TIP3    H249131   4.194   2.832  17.291  0.1591 -0.8466  0.7429
 9214TIP3   OH249132   3.401   4.969   5.952 -0.3930 -0.1799  0.1586
 9214TIP3    H149133   3.419   4.892   5.899  0.3563  1.6133 -2.2983
 9214TIP3    H249134   3.441   5.042   5.903 -1.2719  1.8001  2.2738
 9215TIP3   OH249135   0.004   3.226  16.069 -0.1377 -0.3259 -0.6585
 9215TIP3    H149136   0.012   3.251  15.977 -1.3583  0.8640 -0.4568
 9215TIP3    H249137   0.083   3.175  16.088  0.7516  0.5621 -1.9959
 9216TIP3   OH249138   6.486   5.478  14.095 -0.0071  0.3821  0.0889
 9216TIP3    H149139   6.480   5.564  14.053  0.8592 -0.3095 -1.4936
 9216TIP3    H249140   6.529   5.496  14.179  0.2798  1.4824 -0.2747
 9217TIP3   OH249141   0.464   2.694   0.200  0.1215 -0.5019 -0.4564
 9217TIP3    H149142   0.456   2.774   0.146 -0.1329 -0.3376 -0.1737
 9217TIP3    H249143   0.470   2.726   0.290 -1.4746 -0.8650 -0.2075
 9218TIP3   OH249144   1.039   6.581   3.873  0.9038  0.0527  0.2426
 9218TIP3    H149145   0.945   6.597   3.886  1.4781  1.4110  2.9809
 9218TIP3    H249146   1.066   6.648   3.811  0.2773  0.3186  0.2566
 9219TIP3   OH249147   6.761   4.562  13.762  0.0070 -0.1175 -0.4797
 9219TIP3    H149148   6.850   4.526  13.758 -0.7356 -1.8626 -2.5923
 9219TIP3    H249149   6.772   4.649  13.801  2.4661 -0.7939  0.4633
 9220TIP3   OH249150   5.962   5.276   2.968 -1.1529  0.4842 -0.0204
 9220TIP3    H149151   5.869   5.255   2.957 -1.2441  1.0150 -0.3266
 9220TIP3    H249152   5.974   5.284   3.062 -1.0973 -0.9758  0.1108
 9221TIP3   OH249153   4.805   0.808  13.226  0.1241  0.2770  0.2605
 9221TIP3    H149154   4.794   0.832  13.318 -0.0487 -2.0836  0.8828
 9221TIP3    H249155   4.716   0.809  13.190 -0.1847 -1.9472  0.9424
 9222TIP3   OH249156   5.290   2.221   3.015  0.4659 -0.3974 -0.4598
 9222TIP3    H149157   5.243   2.140   2.995 -0.2585  0.1612 -1.0535
 9222TIP3    H249158   5.360   2.224   2.949  0.2374 -0.3238 -0.6962
 9223TIP3   OH249159   3.545   0.697   4.255  0.1727 -0.0639  0.7861
 9223TIP3    H149160   3.639   0.677   4.262  0.4018  0.2927 -1.0571
 9223TIP3    H249161   3.535   0.778   4.305  0.3878 -1.3203  2.9725
 9224TIP3   OH249162   2.274   1.054  16.084 -0.0700  0.1568  0.6426
 9224TIP3    H149163   2.355   1.007  16.098 -0.0802 -0.4151 -1.0907
 9224TIP3    H249164   2.211   1.013  16.143 -0.0393 -1.9072 -0.7253
 9225TIP3   OH249165   5.017   1.195  12.521  0.2720 -0.6950 -0.0137
 9225TIP3    H149166   5.104   1.233  12.531 -0.1024  0.6692 -1.6763
 9225TIP3    H249167   5.024   1.138  12.445  0.0559 -1.6336  0.6647
 9226TIP3   OH249168   0.168   3.316  12.611 -0.2230 -0.1189  0.1538
 9226TIP3    H149169   0.149   3.376  12.539 -1.1915 -1.5141 -0.7650
 9226TIP3    H249170   0.256   3.341  12.640 -0.0915  0.8873 -1.0595
 9227TIP3   OH249171   5.687   6.500  16.615  0.1009  0.0073  0.1700
 9227TIP3    H149172   5.699   6.423  16.670  0.6347  0.8664  1.2837
 9227TIP3    H249173   5.593   6.505  16.601 -0.2073  0.7042  2.3783
 9228TIP3   OH249174   3.774   4.405   2.620 -0.0659  0.2586 -0.0810
 9228TIP3    H149175   3.768   4.312   2.601  0.1987  0.2063  0.1046
 9228TIP3    H249176   3.689   4.427   2.659 -0.1412  0.1044 -0.1605
 9229TIP3   OH249177   5.819   1.232  13.551  0.1709  0.1424 -0.3995
 9229TIP3    H149178   5.803   1.310  13.498 -0.5693  0.5508  0.3990
 9229TIP3    H249179   5.752   1.170  13.522 -0.7123  0.6256  0.5335
 9230TIP3   OH249180   2.187   2.573  16.736 -0.2420 -0.2924  0.7271
 9230TIP3    H149181   2.140   2.533  16.809 -1.0289  1.3338  1.1354
 9230TIP3    H249182   2.143   2.540  16.658 -0.3264 -0.8887  1.0191
 9231TIP3   OH249183   0.076   5.270  14.270  0.5713 -0.4569  0.9100
 9231TIP3    H149184  -0.017   5.295  14.272 -0.0979 -2.6768  0.1045
 9231TIP3    H249185   0.115   5.316  14.344 -1.2561  0.2507  1.4698
 9232TIP3   OH249186   4.441   2.515   5.071 -0.2510 -0.5336  0.0479
 9232TIP3    H149187   4.483   2.440   5.114  1.9128  1.0615  0.7637
 9232TIP3    H249188   4.491   2.528   4.991 -0.4417  0.3133  0.0618
 9233TIP3   OH249189   1.743   2.235   3.766  0.2695  0.5464  0.0444
 9233TIP3    H149190   1.736   2.149   3.725  1.7789 -0.2261  1.3708
 9233TIP3    H249191   1.796   2.286   3.705  0.0455  0.2959 -0.3630
 9234TIP3   OH249192   1.111   4.129  15.431  0.0100 -0.3063  0.1008
 9234TIP3    H149193   1.136   4.071  15.359 -0.4244  1.5738 -1.5840
 9234TIP3    H249194   1.026   4.095  15.460  0.6654 -1.7041  0.4480
 9235TIP3   OH249195   3.607   4.047   1.164  0.2975 -0.3155  0.0080
 9235TIP3    H149196   3.591   4.042   1.069  0.7055 -1.2826 -0.0241
 9235TIP3    H249197   3.563   4.126   1.192 -0.5707 -0.4814 -0.8584
 9236TIP3   OH249198   2.324   5.666   2.376  0.2220 -0.1280  0.3643
 9236TIP3    H149199   2.307   5.577   2.345  1.6482 -0.4418  0.4605
 9236TIP3    H249200   2.289   5.668   2.465  3.1068 -1.6236  1.6030
 9237TIP3   OH249201   0.086   4.488  14.058  0.3145 -1.0001  0.5605
 9237TIP3    H149202   0.170   4.534  14.063 -0.5057  0.5117  0.9967
 9237TIP3    H249203   0.095   4.428  13.984  1.8323 -0.9755  0.7210
 9238TIP3   OH249204   2.758   5.764   3.137 -0.3003  0.0472  0.5042
 9238TIP3    H149205   2.689   5.829   3.130 -1.0641 -0.2899  3.9609
 9238TIP3    H249206   2.713   5.679   3.132  0.1945 -0.1938  0.0551
 9239TIP3   OH249207   0.490   4.552  12.355  0.4709  0.1899  0.1753
 9239TIP3    H149208   0.507   4.563  12.261  0.2817  0.7968  0.2065
 9239TIP3    H249209   0.411   4.498  12.359 -0.6760  1.8101 -0.0562
 9240TIP3   OH249210   5.831   0.313  17.074 -0.3123  0.4621 -0.7141
 9240TIP3    H149211   5.748   0.360  17.076 -1.2614 -1.2017 -0.7982
 9240TIP3    H249212   5.818   0.238  17.132  1.0196  0.0163 -0.9786
 9241TIP3   OH249213   2.340   6.287  12.446 -0.0456 -0.2137 -0.4529
 9241TIP3    H149214   2.384   6.347  12.386  1.1220  1.7385  2.2455
 9241TIP3    H249215   2.247   6.292  12.422  0.3188  1.0686 -1.6311
 9242TIP3   OH249216   0.444   1.310   0.370 -0.1088 -0.0966  0.7126
 9242TIP3    H149217   0.453   1.363   0.291 -1.2741 -1.2936 -0.2556
 9242TIP3    H249218   0.355   1.329   0.402 -0.8345 -2.0019 -0.0863
 9243TIP3   OH249219   6.217   5.818  16.946 -0.3922  0.0631  0.3025
 9243TIP3    H149220   6.141   5.793  16.894 -0.4144  0.0640  0.3350
 9243TIP3    H249221   6.230   5.745  17.007 -1.1250  0.6176  1.1323
 9244TIP3   OH249222   2.550   2.468  12.560  0.1618  0.1177 -0.4641
 9244TIP3    H149223   2.496   2.545  12.579 -2.5825 -1.9458  0.5193
 9244TIP3    H249224   2.529   2.446  12.469 -1.7642 -1.4407  0.3065
 9245TIP3   OH249225   0.234   3.867   2.579  0.2140  0.1456  0.6477
 9245TIP3    H149226   0.246   3.787   2.631 -0.7575 -1.3780 -1.3877
 9245TIP3    H249227   0.300   3.862   2.510  0.9416  1.7205  1.2081
 9246TIP3   OH249228   6.646   2.486   0.151  0.7316 -0.1612  0.0765
 9246TIP3    H149229   6.653   2.580   0.169 -0.6050 -0.1103  0.3480
 9246TIP3    H249230   6.687   2.444   0.226 -0.4882  0.1558  0.9182
 9247TIP3   OH249231   2.593   0.507   2.669 -0.5058  0.3907  0.5802
 9247TIP3    H149232   2.621   0.467   2.586 -0.9969  2.3002 -0.5607
 9247TIP3    H249233   2.612   0.442   2.735  3.4203  0.2335 -0.5624
 9248TIP3   OH249234   6.761   2.733  13.225  0.0518  0.4163 -0.4338
 9248TIP3    H149235   6.703   2.786  13.280 -0.5353 -0.0495 -0.6115
 9248TIP3    H249236   6.823   2.693  13.287 -1.2701 -0.9695  0.0111
 9249TIP3   OH249237   3.493   0.411   4.820 -0.0401  0.4639  0.5994
 9249TIP3    H149238   3.529   0.332   4.860 -2.3068 -1.2613 -0.6676
 9249TIP3    H249239   3.456   0.461   4.893 -0.1987 -0.5126  1.1907
 9250TIP3   OH249240   0.910   0.013  15.206 -0.1756 -0.5263 -0.3631
 9250TIP3    H149241   0.890  -0.080  15.203 -0.8120 -0.3751 -0.9037
 9250TIP3    H249242   0.931   0.030  15.297  0.9238 -1.4002 -0.4430
 9251TIP3   OH249243   3.074   3.462   3.236  0.0223  1.1842  0.1928
 9251TIP3    H149244   2.991   3.453   3.190  0.1120  1.3591 -0.0060
 9251TIP3    H249245   3.113   3.541   3.199  0.5136  0.8113 -0.0836
 9252TIP3   OH249246   2.680   5.208   0.097 -0.1354 -0.6440 -0.7134
 9252TIP3    H149247   2.685   5.251   0.183  1.6621 -1.0277 -0.5977
 9252TIP3    H249248   2.689   5.114   0.117  0.7610 -0.7013 -1.3394
 9253TIP3   OH249249   3.882   2.110   0.828  0.5249 -0.2042 -0.6966
 9253TIP3    H149250   3.866   2.203   0.811 -2.2206 -0.3627  0.7207
 9253TIP3    H249251   3.837   2.065   0.756  1.2867 -0.4644 -1.0153
 9254TIP3   OH249252   0.249   3.822  12.390  0.1406  0.4801  0.1147
 9254TIP3    H149253   0.197   3.868  12.456 -0.0075 -0.9258  1.0039
 9254TIP3    H249254   0.267   3.888  12.323 -0.7720  1.5994  0.9520
 9255TIP3   OH249255   5.723   5.104  11.460 -0.1236 -0.0597 -0.3780
 9255TIP3    H149256   5.804   5.152  11.477  0.4778 -0.4707 -1.9699
 9255TIP3    H249257   5.673   5.112  11.541  0.0883  2.9923 -0.5114
 9256TIP3   OH249258   0.581   5.579  12.830  0.2182 -0.0789 -0.4818
 9256TIP3    H149259   0.563   5.520  12.903  2.1355 -0.4144 -0.2711
 9256TIP3    H249260   0.528   5.545  12.758  0.6192 -1.5068 -0.1068
 9257TIP3   OH249261   5.659   4.569   0.030 -0.2996 -0.5409  0.4295
 9257TIP3    H149262   5.622   4.484   0.055 -1.2214  0.3185  2.0604
 9257TIP3    H249263   5.619   4.588  -0.055  0.2840 -1.9542 -0.1647
 9258TIP3   OH249264   1.548   5.713   5.540 -0.1326  0.1943 -0.2441
 9258TIP3    H149265   1.556   5.801   5.578 -1.4920 -0.6807  2.1435
 9258TIP3    H249266   1.558   5.654   5.615 -2.2315 -1.6029 -1.3344
 9259TIP3   OH249267   2.063   2.682   5.207  0.6571  0.3052 -0.4566
 9259TIP3    H149268   1.989   2.727   5.248  0.8111 -0.8774  1.2005
 9259TIP3    H249269   2.137   2.742   5.220  0.3847  0.6271 -0.3862
 9260TIP3   OH249270   6.009   6.185  12.274 -0.5432 -0.0985  0.0054
 9260TIP3    H149271   5.957   6.107  12.296 -0.1366 -1.2337 -2.7764
 9260TIP3    H249272   5.953   6.234  12.214  0.0370  0.7021  0.1103
 9261TIP3   OH249273   5.904   6.379   2.691 -0.1353 -0.0382 -0.0112
 9261TIP3    H149274   5.850   6.454   2.665 -0.6997  0.0993  1.4704
 9261TIP3    H249275   5.928   6.398   2.782 -0.2023 -1.6058  0.3402
 9262TIP3   OH249276   4.479   0.465   5.835  0.3655 -0.0807  0.8266
 9262TIP3    H149277   4.533   0.400   5.879 -0.8533 -0.2729  2.0856
 9262TIP3    H249278   4.413   0.489   5.900 -1.7805 -0.7084 -1.0475
 9263TIP3   OH249279   6.008   1.630  15.514 -0.5711  0.4670 -0.2179
 9263TIP3    H149280   6.057   1.701  15.472  0.8825  1.4503  2.9407
 9263TIP3    H249281   5.926   1.671  15.541 -1.2367 -0.0011 -1.4914
 9264TIP3   OH249282   6.618   1.260   4.836 -0.0102  0.7348 -0.0445
 9264TIP3    H149283   6.612   1.265   4.741  1.9296  0.5605 -0.1939
 9264TIP3    H249284   6.623   1.351   4.865 -2.5800  0.8734  0.0616
 9265TIP3   OH249285   1.738   1.973  15.247  0.4155  0.3019  0.0850
 9265TIP3    H149286   1.664   1.978  15.186 -0.5584 -2.2905  1.0050
 9265TIP3    H249287   1.794   1.904  15.212  1.2428  0.6714  0.6601
 9266TIP3   OH249288   2.901   2.717   2.001 -0.3302  0.0423  0.5849
 9266TIP3    H149289   2.933   2.701   2.089 -2.8632 -0.0704  1.5290
 9266TIP3    H249290   2.840   2.790   2.010 -0.4050  0.2212 -1.1097
 9267TIP3   OH249291   6.720   6.241   1.928  0.5076  0.0492  0.2823
 9267TIP3    H149292   6.634   6.227   1.968  0.1717  1.7805  0.1725
 9267TIP3    H249293   6.745   6.154   1.895 -0.4464 -0.8152  1.7803
 9268TIP3   OH249294   0.918   0.137  14.295 -0.0806  0.7664  0.2457
 9268TIP3    H149295   0.993   0.193  14.275  0.6511 -0.5386 -0.7245
 9268TIP3    H249296   0.863   0.142  14.217  0.4932 -0.6796 -0.2487
 9269TIP3   OH249297   5.975   6.796  13.258 -0.3350  0.3525  1.0389
 9269TIP3    H149298   5.900   6.840  13.219 -0.3872  0.4160  1.2113
 9269TIP3    H249299   5.938   6.743  13.329 -0.5176 -1.4425 -0.3534
 9270TIP3   OH249300   3.184   1.620   3.512  0.3433  0.4522  0.3052
 9270TIP3    H149301   3.233   1.543   3.483  1.5062  0.8790  1.0885
 9270TIP3    H249302   3.212   1.689   3.451 -0.0140  0.4682  0.1598
 9271TIP3   OH249303   0.460   4.521   3.656 -0.3306 -0.4720  0.4519
 9271TIP3    H149304   0.407   4.583   3.605  3.1762 -0.7743 -3.8835
 9271TIP3    H249305   0.436   4.435   3.622  1.2663 -0.7557 -0.0202
 9272TIP3   OH249306   2.635   4.736   5.569  0.4936 -0.1179  0.2917
 9272TIP3    H149307   2.651   4.746   5.475  0.5354  0.8862  0.4010
 9272TIP3    H249308   2.719   4.709   5.605  0.3514 -0.9931 -0.0324
 9273TIP3   OH249309   2.445   2.176   4.194  0.1123  0.3644  0.1070
 9273TIP3    H149310   2.480   2.120   4.264 -0.2531 -0.6875 -0.5421
 9273TIP3    H249311   2.411   2.253   4.240  0.3168 -0.0983  1.0511
 9274TIP3   OH249312   4.852   6.574  13.279 -0.2374  0.5068  0.3907
 9274TIP3    H149313   4.880   6.644  13.338 -0.3404 -0.7861  1.9970
 9274TIP3    H249314   4.901   6.497  13.308 -1.7285 -0.5980  0.0303
 9275TIP3   OH249315   5.047   6.469   2.346  0.9101 -0.3795 -0.0595
 9275TIP3    H149316   5.099   6.409   2.399  1.2820  0.3641  0.4268
 9275TIP3    H249317   4.999   6.522   2.410 -1.7368 -2.1580 -0.5002
 9276TIP3   OH249318   2.620   5.481   5.596 -0.5759  0.2318 -0.0385
 9276TIP3    H149319   2.580   5.490   5.682 -0.0295  0.9029  0.1556
 9276TIP3    H249320   2.710   5.513   5.608 -0.6368  0.7743 -0.9607
 9277TIP3   OH249321   1.523   0.511   5.430  0.1290  0.4188 -0.6028
 9277TIP3    H149322   1.512   0.501   5.525  1.5444  0.4295 -0.4285
 9277TIP3    H249323   1.434   0.509   5.395 -0.4802  1.5112  0.8332
 9278TIP3   OH249324   5.153   5.598   3.833 -0.1302  0.2862 -0.3265
 9278TIP3    H149325   5.176   5.506   3.848  1.3539  0.5842 -0.7017
 9278TIP3    H249326   5.192   5.619   3.749  0.8461  1.6852  0.4519
 9279TIP3   OH249327   4.223   6.393  15.394  0.2352  0.4010  0.1342
 9279TIP3    H149328   4.270   6.322  15.437 -0.0544  0.3094  0.2980
 9279TIP3    H249329   4.243   6.382  15.301  0.3344  0.2124  0.1763
 9280TIP3   OH249330   2.357   5.901   3.195  0.3196 -0.2085 -0.2485
 9280TIP3    H149331   2.317   5.961   3.258  1.3453  0.4430 -0.1963
 9280TIP3    H249332   2.427   5.953   3.155  0.2448 -0.8996 -1.2852
 9281TIP3   OH249333   2.094   0.511   1.092  0.2208 -0.1521  0.4146
 9281TIP3    H149334   2.047   0.528   1.011  0.7805  0.7545  0.2792
 9281TIP3    H249335   2.027   0.474   1.151 -0.5949  0.8677  0.1319
 9282TIP3   OH249336   1.477   4.682   2.796 -0.2731  0.2338  0.0649
 9282TIP3    H149337   1.511   4.597   2.765  0.0142 -0.0851  1.2267
 9282TIP3    H249338   1.554   4.740   2.794 -0.0476 -0.0295  1.0471
 9283TIP3   OH249339   3.108   2.493   0.588  0.2659  0.4930  0.1904
 9283TIP3    H149340   3.113   2.551   0.664 -2.7262  1.5610 -0.3713
 9283TIP3    H249341   3.188   2.441   0.593  2.0565  3.2395  1.8562
 9284TIP3   OH249342   3.376   5.346   3.962 -0.2354  0.5078 -0.1090
 9284TIP3    H149343   3.427   5.358   4.042  2.0091 -0.3056 -1.4043
 9284TIP3    H249344   3.414   5.407   3.899  0.5701 -1.5961 -1.7245
 9285TIP3   OH249345   1.716   5.545  17.137  0.1168  0.0573 -0.0497
 9285TIP3    H149346   1.674   5.535  17.052  0.2615 -0.3190 -0.0778
 9285TIP3    H249347   1.798   5.589  17.118  0.8865 -1.4483 -0.3157
 9286TIP3   OH249348   2.703   0.545  14.404  0.0033  0.4554 -0.0244
 9286TIP3    H149349   2.609   0.545  14.420  0.2024  0.7132  1.2435
 9286TIP3    H249350   2.716   0.608  14.332 -0.7325  0.8100  0.1507
 9287TIP3   OH249351   4.829   0.370  17.003 -0.0272 -0.3285  1.0706
 9287TIP3    H149352   4.870   0.442  17.052 -0.0399  0.1181  0.4408
 9287TIP3    H249353   4.809   0.408  16.918  2.3267 -1.7658 -0.1981
 9288TIP3   OH249354   1.869   5.748   2.303 -0.2715 -0.1806 -0.1625
 9288TIP3    H149355   1.906   5.701   2.377 -1.6070 -0.5338  0.2899
 9288TIP3    H249356   1.787   5.702   2.283 -0.6015  0.7316 -0.9769
 9289TIP3   OH249357   5.797   1.776  13.676 -0.0631  0.3940 -0.8305
 9289TIP3    H149358   5.835   1.816  13.598 -0.2949  0.2325 -1.0237
 9289TIP3    H249359   5.776   1.687  13.650 -0.8976  0.5888 -0.8200
 9290TIP3   OH249360   1.393   4.787  15.123 -0.0861  0.3459 -0.2042
 9290TIP3    H149361   1.387   4.692  15.128  0.8381  0.3615  1.2585
 9290TIP3    H249362   1.305   4.818  15.144  0.0395 -0.1307  1.0292
 9291TIP3   OH249363   3.325   2.678  13.863 -0.4629  0.5415  0.1642
 9291TIP3    H149364   3.246   2.630  13.839  0.2945 -0.9292  0.5159
 9291TIP3    H249365   3.385   2.665  13.789 -0.5087  1.5475 -0.0509
 9292TIP3   OH249366   6.392   1.104  15.026 -0.3076  0.1303  0.1065
 9292TIP3    H149367   6.486   1.116  15.042  0.2202  1.2832 -3.2767
 9292TIP3    H249368   6.350   1.175  15.075  0.9377  1.8569 -1.2524
 9293TIP3   OH249369   5.628   5.102  13.761  0.1789 -0.4956 -0.0766
 9293TIP3    H149370   5.709   5.152  13.751 -0.2088  0.0459 -0.5456
 9293TIP3    H249371   5.590   5.100  13.673 -1.6859  1.5721  0.6425
 9294TIP3   OH249372   6.282   6.207  11.702 -0.0987 -0.3964  0.2140
 9294TIP3    H149373   6.272   6.112  11.705 -0.8356 -0.3353 -0.0424
 9294TIP3    H249374   6.297   6.226  11.609 -0.7087 -0.2018  0.1501
 9295TIP3   OH249375   6.722   0.898  12.669 -0.2428  0.0601 -0.2033
 9295TIP3    H149376   6.787   0.828  12.676 -0.2245  0.1050  0.0905
 9295TIP3    H249377   6.757   0.968  12.725 -0.6718 -0.0141  0.1575
 9296TIP3   OH249378   3.811   0.762   6.542 -0.4098  0.4630 -0.1592
 9296TIP3    H149379   3.749   0.700   6.581 -0.1129 -0.8255 -1.7019
 9296TIP3    H249380   3.760   0.842   6.531 -1.5970 -0.3493 -0.6840
 9297TIP3   OH249381   5.876   6.534   1.165 -0.2437  0.1663  0.4048
 9297TIP3    H149382   5.835   6.463   1.213  0.9432 -1.9183 -1.5635
 9297TIP3    H249383   5.854   6.518   1.073 -0.5901  2.7784 -0.0186
 9298TIP3   OH249384   0.002   2.650   3.712 -0.2771  0.2154 -0.2993
 9298TIP3    H149385   0.036   2.706   3.642  1.0304 -0.6278 -0.3499
 9298TIP3    H249386  -0.085   2.623   3.681  0.4330 -0.4395 -1.7671
 9299TIP3   OH249387   1.763   0.205   2.328  0.1312 -0.1908 -0.0292
 9299TIP3    H149388   1.856   0.217   2.308  0.3362 -3.3855 -1.2247
 9299TIP3    H249389   1.763   0.168   2.416  0.0591 -0.9559 -0.3451
 9300TIP3   OH249390   0.744   2.744   0.661  0.6090 -0.6349 -0.2150
 9300TIP3    H149391   0.781   2.830   0.640 -0.4181 -0.8498 -3.0962
 9300TIP3    H249392   0.714   2.752   0.752  2.1779  1.4434  0.1607
 9301TIP3   OH249393   3.110   1.451   4.383  0.1093 -0.2165 -0.2815
 9301TIP3    H149394   3.056   1.530   4.378  0.0258 -0.0938  1.9413
 9301TIP3    H249395   3.200   1.483   4.383  0.1104 -0.2139 -0.6540
 9302TIP3   OH249396   1.679   3.764  13.928  0.3630 -0.1477 -1.0977
 9302TIP3    H149397   1.769   3.797  13.926  0.0714  0.6239 -2.9869
 9302TIP3    H249398   1.655   3.756  13.835 -1.1903 -1.2313 -0.6079
 9303TIP3   OH249399   0.683   0.435   3.359  0.3117  0.7504 -0.0718
 9303TIP3    H149400   0.754   0.500   3.364 -0.4341  1.5402  0.3759
 9303TIP3    H249401   0.629   0.465   3.286  0.1344  0.4660 -0.0564
 9304TIP3   OH249402   5.674   5.441  11.203 -0.4925  0.3635  0.3033
 9304TIP3    H149403   5.724   5.437  11.122 -1.3798  2.1824 -0.3757
 9304TIP3    H249404   5.729   5.492  11.262 -0.5798  0.4767  0.2855
 9305TIP3   OH249405   4.974   4.647  15.888  0.1377  0.0207 -0.0870
 9305TIP3    H149406   5.013   4.635  15.974 -0.9355  0.6692  0.4966
 9305TIP3    H249407   5.047   4.671  15.831  0.8879 -0.6696  0.5823
 9306TIP3   OH249408   4.058   0.270  12.391 -0.3707  0.0597 -0.0989
 9306TIP3    H149409   3.966   0.276  12.368 -0.2218 -0.2522 -0.7944
 9306TIP3    H249410   4.089   0.190  12.348 -0.0407 -0.4432  1.0529
 9307TIP3   OH249411   4.939   6.132   2.964 -1.2377  0.4736 -0.1479
 9307TIP3    H149412   4.859   6.097   3.002 -0.6552 -0.3413  0.3320
 9307TIP3    H249413   4.937   6.103   2.873 -0.4900 -1.3025  0.3812
 9308TIP3   OH249414   0.089   5.368  16.535  0.0487 -0.1449 -0.1486
 9308TIP3    H149415   0.031   5.293  16.521  0.1190 -0.2199 -0.0403
 9308TIP3    H249416   0.112   5.397  16.447  0.7397 -0.8072 -0.1881
 9309TIP3   OH249417   3.620   4.070  13.974 -0.4097  0.5054 -0.2186
 9309TIP3    H149418   3.572   4.148  14.002 -0.0089  1.1213 -1.2135
 9309TIP3    H249419   3.584   4.049  13.887 -1.1309 -0.9413  0.4140
 9310TIP3   OH249420   3.097   2.474   2.711  0.2674  0.1904 -0.7967
 9310TIP3    H149421   3.064   2.418   2.641  1.3605 -0.2923 -0.9352
 9310TIP3    H249422   3.191   2.458   2.713  0.2954  0.4199  0.5941
 9311TIP3   OH249423   5.370   2.217   2.718  0.0701  0.1515 -0.4916
 9311TIP3    H149424   5.437   2.150   2.732 -1.0279 -1.6073 -3.2257
 9311TIP3    H249425   5.298   2.170   2.675 -2.7826  2.0911  1.9888
 9312TIP3   OH249426   3.711   1.507  14.057 -0.0765  0.2564  0.0080
 9312TIP3    H149427   3.692   1.441  14.125 -1.8996 -1.6687 -2.2838
 9312TIP3    H249428   3.667   1.586  14.088 -2.3966 -1.0914  0.2658
 9313TIP3   OH249429   4.870   1.135   1.268  0.3329  0.0057  0.4699
 9313TIP3    H149430   4.916   1.175   1.194  0.6247  1.0501  1.1939
 9313TIP3    H249431   4.914   1.050   1.280  0.9943  0.2879  0.1204
 9314TIP3   OH249432   0.328   5.278  14.821  0.0435  0.1705 -0.4633
 9314TIP3    H149433   0.385   5.285  14.898 -0.7347 -0.6935  0.1941
 9314TIP3    H249434   0.350   5.193  14.783 -1.8485 -0.8239  0.6318
 9315TIP3   OH249435   6.120   6.067  15.334  0.6052  0.0777 -0.1695
 9315TIP3    H149436   6.196   6.106  15.291 -0.0363  1.2907 -0.2222
 9315TIP3    H249437   6.058   6.051  15.263  0.5759 -0.3495 -0.0464
 9316TIP3   OH249438   6.484   6.650  14.197 -0.4571  0.0863 -0.3083
 9316TIP3    H149439   6.565   6.600  14.206 -0.8223 -0.5065 -0.2946
 9316TIP3    H249440   6.419   6.586  14.167 -1.2988  0.1995  1.2050
 9317TIP3   OH249441   6.432   6.148  16.676 -0.0174 -0.0448 -0.1029
 9317TIP3    H149442   6.368   6.200  16.628 -1.2413 -1.1324  0.3293
 9317TIP3    H249443   6.412   6.163  16.768  0.5077 -0.2009  0.0423
 9318TIP3   OH249444   4.141   5.043  15.476  0.0913 -0.1540 -0.0483
 9318TIP3    H149445   4.067   4.983  15.476  0.6026 -0.8358  2.6181
 9318TIP3    H249446   4.110   5.119  15.426 -2.3906 -0.4371  0.9828
 9319TIP3   OH249447   1.599   2.005   0.071  0.0056 -0.4207 -0.3181
 9319TIP3    H149448   1.568   2.086   0.110 -0.0629  0.4963 -2.2130
 9319TIP3    H249449   1.671   2.031   0.014  0.8141 -1.8613  0.0051
 9320TIP3   OH249450   2.856   1.970   6.138 -0.8647  0.6098  0.4947
 9320TIP3    H149451   2.932   1.961   6.196 -1.7488  0.4731  1.6631
 9320TIP3    H249452   2.855   2.063   6.115 -0.2330  0.5772  0.3252
 9321TIP3   OH249453   5.695   4.450   6.701 -0.4899  0.2568  0.4547
 9321TIP3    H149454   5.622   4.411   6.748 -0.3201  1.1316  1.4741
 9321TIP3    H249455   5.676   4.544   6.700  0.2298  0.4049  0.0563
 9322TIP3   OH249456   3.230   0.672  11.352  0.1905 -0.2718 -0.3775
 9322TIP3    H149457   3.156   0.732  11.360  1.2014  0.9891 -0.4175
 9322TIP3    H249458   3.302   0.726  11.318  1.2181 -1.4077 -0.0473
 9323TIP3   OH249459   3.084   0.433   6.960 -0.2056 -0.2764  0.3837
 9323TIP3    H149460   3.018   0.366   6.976 -2.0967  1.4461  0.1164
 9323TIP3    H249461   3.159   0.386   6.924 -0.8332 -2.4403  1.8544
 9324TIP3   OH249462   6.631   2.811  17.115 -0.2165  0.2235 -0.4180
 9324TIP3    H149463   6.696   2.748  17.149  0.0672  0.7115 -0.0403
 9324TIP3    H249464   6.562   2.812  17.182  0.3491  1.1981  0.1605
 9325TIP3   OH249465   0.382   3.166  14.369 -0.1312  0.1135 -0.3087
 9325TIP3    H149466   0.308   3.213  14.408 -0.2135 -0.2825  0.0193
 9325TIP3    H249467   0.376   3.186  14.275 -0.6014  0.1602 -0.2739
 9326TIP3   OH249468   0.542   1.467   0.122  0.1092 -0.1557 -0.1680
 9326TIP3    H149469   0.574   1.536   0.064 -1.4580  1.3364  0.7324
 9326TIP3    H249470   0.470   1.507   0.171 -0.5245 -2.2836  0.6954
 9327TIP3   OH249471   1.192   5.368  16.518 -0.3185 -0.0776 -0.3509
 9327TIP3    H149472   1.143   5.289  16.496  0.2428  0.4526 -3.8579
 9327TIP3    H249473   1.125   5.434  16.538 -0.9820 -0.1664 -2.1890
 9328TIP3   OH249474   0.219   3.828  17.164 -0.4314 -0.1460 -0.5298
 9328TIP3    H149475   0.256   3.883  17.095 -0.0243 -0.0686 -0.2500
 9328TIP3    H249476   0.152   3.776  17.120  0.4971 -0.8026 -1.1764
 9329TIP3   OH249477   6.371   0.687   2.222  0.0928  0.4400  0.1032
 9329TIP3    H149478   6.461   0.658   2.236  0.3063  0.4843 -1.1184
 9329TIP3    H249479   6.380   0.773   2.181 -0.5097  0.2693 -0.3866
 9330TIP3   OH249480   5.522   1.537  14.892 -0.1524  0.4650  0.7057
 9330TIP3    H149481   5.607   1.562  14.928  0.6910 -0.2137 -0.7429
 9330TIP3    H249482   5.458   1.575  14.952  1.1372  2.4243  0.8873
 9331TIP3   OH249483   4.992   0.772   3.793  0.1814 -0.6647 -0.9994
 9331TIP3    H149484   5.079   0.814   3.791 -1.0945  2.3867  2.5586
 9331TIP3    H249485   4.997   0.711   3.867 -1.2028  0.8102  0.3399
 9332TIP3   OH249486   0.519   3.063  16.051  0.1463  0.2078  0.3824
 9332TIP3    H149487   0.595   3.075  15.993 -0.9573 -0.9445 -1.3613
 9332TIP3    H249488   0.556   3.065  16.139  2.5297 -2.2033 -0.4596
 9333TIP3   OH249489   6.021   2.948  13.040 -0.0982 -0.0868  0.3377
 9333TIP3    H149490   6.099   2.896  13.023 -0.3035 -0.2156 -0.2112
 9333TIP3    H249491   6.053   3.023  13.090  0.0605 -1.2238  2.0026
 9334TIP3   OH249492   6.571   1.351   1.855  0.5721 -0.5186 -0.4708
 9334TIP3    H149493   6.660   1.368   1.887  0.5880 -0.0732 -0.7406
 9334TIP3    H249494   6.525   1.313   1.930  0.8804 -0.3823 -0.2128
 9335TIP3   OH249495   4.055   4.693   0.830  0.3502 -0.8381 -0.3345
 9335TIP3    H149496   3.984   4.645   0.872  0.3954 -0.7046 -0.1088
 9335TIP3    H249497   4.123   4.628   0.814  1.1357 -0.5031  1.5714
 9336TIP3   OH249498   6.392   0.566   4.855 -0.2319  0.8750  0.5173
 9336TIP3    H149499   6.314   0.517   4.831 -0.0362  0.9280 -0.2215
 9336TIP3    H249500   6.426   0.521   4.932  0.0425 -0.2456 -0.2552
 9337TIP3   OH249501   2.448   4.924  17.192 -0.7762 -0.4829 -0.4462
 9337TIP3    H149502   2.360   4.937  17.158 -1.0421  0.9213  0.7142
 9337TIP3    H249503   2.505   4.969  17.129 -0.9474 -0.7473 -0.7913
 9338TIP3   OH249504   6.815   2.188  11.638 -0.4700 -0.0134 -0.5638
 9338TIP3    H149505   6.898   2.237  11.641 -1.4418  1.5498  2.9220
 9338TIP3    H249506   6.764   2.231  11.569 -0.1782  2.0682  0.4748
 9339TIP3   OH249507   2.353   3.985   0.395 -0.6847  0.3598  0.5079
 9339TIP3    H149508   2.304   3.996   0.476 -2.6240  0.7497 -0.6977
 9339TIP3    H249509   2.406   4.065   0.388 -0.7547  0.4717  1.2165
 9340TIP3   OH249510   3.022   1.436  12.122  0.0500  0.3112 -0.5561
 9340TIP3    H149511   2.949   1.421  12.182  1.8711 -1.8176  1.1726
 9340TIP3    H249512   3.090   1.477  12.175  0.6414  0.9979 -1.8225
 9341TIP3   OH249513   4.963   4.257  15.901  0.4452  0.2434 -0.0695
 9341TIP3    H149514   4.967   4.339  15.951  3.1567 -0.0012  0.2058
 9341TIP3    H249515   4.897   4.205  15.947 -0.4094  1.7909  0.5004
 9342TIP3   OH249516   1.283   0.619   6.794 -0.2943 -0.4085 -0.0088
 9342TIP3    H149517   1.357   0.561   6.812  1.6553  1.6826 -1.1292
 9342TIP3    H249518   1.291   0.688   6.859 -1.9674 -0.7712  0.6050
 9343TIP3   OH249519   1.031   4.254  11.972  0.3639 -0.1139 -0.1628
 9343TIP3    H149520   1.032   4.176  11.917 -1.7308  0.3219 -0.8660
 9343TIP3    H249521   1.071   4.322  11.919  2.9813 -0.8631  0.7646
 9344TIP3   OH249522   3.683   3.322  17.139  0.0967  0.0226 -0.3265
 9344TIP3    H149523   3.738   3.246  17.163  0.1942 -0.4447 -1.9695
 9344TIP3    H249524   3.687   3.379  17.216  1.7758 -0.6429  0.1061
 9345TIP3   OH249525   5.585   4.808   5.397 -0.4564  0.5506 -0.4782
 9345TIP3    H149526   5.534   4.889   5.399 -1.3196  0.0076 -0.2737
 9345TIP3    H249527   5.524   4.740   5.425  0.0833 -0.2730 -1.2663
 9346TIP3   OH249528   0.796   5.917   0.195  0.4457  0.6169 -0.1009
 9346TIP3    H149529   0.702   5.920   0.180  0.3142  0.3883  0.6740
 9346TIP3    H249530   0.825   5.836   0.153  0.1127  0.0989  0.6547
 9347TIP3   OH249531   3.252   2.544   5.211 -0.5029  0.4567 -0.0188
 9347TIP3    H149532   3.304   2.465   5.197  0.7958  1.1979  0.4814
 9347TIP3    H249533   3.192   2.547   5.137  0.0881 -0.4943 -0.5502
 9348TIP3   OH249534   2.157   3.183  13.967  0.2156  0.8064  0.4268
 9348TIP3    H149535   2.233   3.168  13.910 -0.4637  0.9195 -0.5101
 9348TIP3    H249536   2.175   3.129  14.044  1.6033  1.4014  0.5417
 9349TIP3   OH249537   0.160   1.037   5.381 -0.2503  0.0115 -0.2855
 9349TIP3    H149538   0.164   0.944   5.358 -2.1664 -0.1474 -0.0226
 9349TIP3    H249539   0.207   1.043   5.465 -1.3536 -0.9676  0.4197
 9350TIP3   OH249540   6.102   1.430  15.375  0.0400 -0.2326 -0.4038
 9350TIP3    H149541   6.102   1.373  15.451  2.1310 -0.0324 -0.2083
 9350TIP3    H249542   6.061   1.511  15.405 -2.0857 -1.2782 -0.4225
 9351TIP3   OH249543   1.592   5.415   3.439 -0.1045  0.5605 -0.1722
 9351TIP3    H149544   1.536   5.338   3.428 -1.1102  1.4005 -1.0193
 9351TIP3    H249545   1.609   5.418   3.534 -0.8164 -0.1640 -0.0100
 9352TIP3   OH249546   5.915   5.491   6.380  0.0569  0.1424  0.2231
 9352TIP3    H149547   5.969   5.521   6.453 -0.2596  0.7180  0.2203
 9352TIP3    H249548   5.939   5.399   6.370  2.7383  0.9599 -1.2709
 9353TIP3   OH249549   3.648   1.102  13.153 -0.7363 -0.4256  0.0198
 9353TIP3    H149550   3.697   1.048  13.215 -1.7463  0.4994  1.6530
 9353TIP3    H249551   3.577   1.045  13.123  0.7190 -1.4367 -1.6007
 9354TIP3   OH249552   6.646   4.823   5.246 -0.5179  0.7365 -0.3786
 9354TIP3    H149553   6.702   4.760   5.200 -0.2477  1.0829 -0.5262
 9354TIP3    H249554   6.658   4.906   5.199  0.0934  1.1967  0.5729
 9355TIP3   OH249555   3.314   0.479   1.924  0.2178 -0.1335  0.3915
 9355TIP3    H149556   3.327   0.512   2.014  0.4991  2.8049 -0.6498
 9355TIP3    H249557   3.400   0.445   1.899 -0.0500 -1.6481  1.4768
 9356TIP3   OH249558   1.099   2.067   5.512  0.5002  0.4997 -0.3601
 9356TIP3    H149559   1.108   2.070   5.607  0.7322 -3.6588 -0.1587
 9356TIP3    H249560   1.005   2.055   5.496  0.7018 -1.0063 -0.5168
 9357TIP3   OH249561   4.890   6.387   2.725  0.3712  0.1805 -0.0808
 9357TIP3    H149562   4.829   6.371   2.797  0.6925 -0.9332 -0.0614
 9357TIP3    H249563   4.917   6.301   2.696  0.6579  0.6368 -1.1986
 9358TIP3   OH249564   0.260   5.605   4.005  0.6986  0.0391 -0.5581
 9358TIP3    H149565   0.294   5.669   4.067 -0.0056 -1.1735  1.1045
 9358TIP3    H249566   0.237   5.657   3.927  2.1292  1.4817 -0.0448
 9359TIP3   OH249567   4.395   6.724  16.847 -0.2510 -0.0650  0.0056
 9359TIP3    H149568   4.336   6.656  16.814 -0.7751  0.6330 -0.4976
 9359TIP3    H249569   4.381   6.722  16.942 -1.4977  0.4624 -0.1502
 9360TIP3   OH249570   6.800   5.359   1.224  0.4943 -0.1072  0.2904
 9360TIP3    H149571   6.724   5.397   1.268  1.7039 -0.4706  2.8527
 9360TIP3    H249572   6.875   5.403   1.266  1.7055  0.6720 -2.5687
 9361TIP3   OH249573   6.059   3.315  15.643  0.8887  0.0838 -0.5445
 9361TIP3    H149574   5.966   3.293  15.647  0.9505  0.2518  2.3464
 9361TIP3    H249575   6.103   3.231  15.627  0.3456 -0.1743 -0.6672
 9362TIP3   OH249576   1.144   5.230  17.099 -0.0508 -0.0041 -0.0499
 9362TIP3    H149577   1.091   5.301  17.135  1.7731 -0.6534  4.1438
 9362TIP3    H249578   1.230   5.269  17.084  0.3966 -0.7913  0.3946
 9363TIP3   OH249579   5.915   0.487  16.216  0.9532 -0.1258  0.0099
 9363TIP3    H149580   5.931   0.408  16.163 -1.4486 -2.2919  2.4255
 9363TIP3    H249581   5.987   0.488  16.279  0.8975 -0.4599  0.0772
 9364TIP3   OH249582   3.726   0.723   6.154 -0.4942  0.0711 -0.1366
 9364TIP3    H149583   3.660   0.654   6.156 -0.8933  0.4517 -0.3019
 9364TIP3    H249584   3.733   0.748   6.062  0.2487 -0.3212 -0.1944
 9365TIP3   OH249585   2.038   1.857  11.776  0.2343  0.8537  0.0753
 9365TIP3    H149586   2.072   1.794  11.840 -0.5446  0.5070  0.1553
 9365TIP3    H249587   2.075   1.828  11.692  1.0197  1.1371  0.3107
 9366TIP3   OH249588   5.715   0.214  16.831  0.0434  0.5484 -0.2317
 9366TIP3    H149589   5.744   0.303  16.811  0.5529  0.8956  1.8827
 9366TIP3    H249590   5.762   0.191  16.911  0.6995 -2.0381 -1.3204
 9367TIP3   OH249591   1.345   6.114   6.171 -0.3757 -0.0863 -0.0248
 9367TIP3    H149592   1.364   6.037   6.117  1.1243 -0.9393  1.6694
 9367TIP3    H249593   1.365   6.188   6.114  0.2481 -0.9627 -0.9740
 9368TIP3   OH249594   2.549   0.788   2.699 -0.6278 -0.1052  0.4459
 9368TIP3    H149595   2.578   0.704   2.661  1.7858  0.4699  0.9137
 9368TIP3    H249596   2.569   0.780   2.792  0.4941  1.3459  0.3402
 9369TIP3   OH249597   2.618   3.702   1.161  0.8327 -0.0725 -0.2270
 9369TIP3    H149598   2.669   3.654   1.096  1.3664 -0.2961  0.3504
 9369TIP3    H249599   2.683   3.744   1.217  0.3794  0.2785  0.0479
 9370TIP3   OH249600   3.356   6.042  12.910  0.2451 -0.5562  0.5210
 9370TIP3    H149601   3.316   6.125  12.937  0.3134  0.3840 -2.1816
 9370TIP3    H249602   3.293   6.003  12.849  0.8001 -1.8929  0.7870
 9371TIP3   OH249603   6.204   4.641  15.564 -0.2404 -0.1775  0.4738
 9371TIP3    H149604   6.229   4.644  15.656 -0.6164  0.9125  0.5492
 9371TIP3    H249605   6.205   4.548  15.542 -0.6364 -0.4867  1.7129
 9372TIP3   OH249606   6.462   1.907   5.404  0.3178 -0.1127 -0.2600
 9372TIP3    H149607   6.428   1.896   5.316  3.8014 -1.0261 -1.5755
 9372TIP3    H249608   6.474   1.818   5.437 -0.0340  0.2083  0.7675
 9373TIP3   OH249609   1.396   3.255   0.404  0.4212  0.3518  0.1383
 9373TIP3    H149610   1.373   3.176   0.355 -1.3207  0.3873  0.8604
 9373TIP3    H249611   1.339   3.254   0.480  0.2003  2.4191  0.0513
 9374TIP3   OH249612   3.025   4.911   5.775 -0.6393  0.5259 -0.1870
 9374TIP3    H149613   3.088   4.844   5.748 -0.8844 -0.2959  1.2304
 9374TIP3    H249614   2.981   4.937   5.694 -1.9145 -2.4365 -0.5096
 9375TIP3   OH249615   1.685   4.729   5.362 -0.4874  1.0362 -0.0962
 9375TIP3    H149616   1.739   4.694   5.292  0.1036  0.3136  0.7064
 9375TIP3    H249617   1.728   4.699   5.443 -1.4150  1.4571  0.5632
 9376TIP3   OH249618   1.009   0.450  16.421  0.1190  0.1011  0.4738
 9376TIP3    H149619   1.014   0.446  16.325 -0.9080 -0.6968  0.4484
 9376TIP3    H249620   0.962   0.370  16.446 -0.5419  0.8194  1.5748
 9377TIP3   OH249621   4.206   2.263   5.053 -0.3294 -0.0232 -0.2603
 9377TIP3    H149622   4.296   2.231   5.053  0.1462  1.2850  0.1771
 9377TIP3    H249623   4.155   2.191   5.092  0.3580 -1.1634 -1.4131
 9378TIP3   OH249624   4.571   5.744  16.726  0.0061  0.1467 -0.5218
 9378TIP3    H149625   4.651   5.781  16.762 -0.4613  0.9844 -0.3452
 9378TIP3    H249626   4.516   5.820  16.706 -0.4566 -0.3848 -1.3182
 9379TIP3   OH249627   3.664   0.154  15.024 -0.4288  0.1301 -0.2006
 9379TIP3    H149628   3.735   0.210  14.993 -0.1887  0.8100  1.5023
 9379TIP3    H249629   3.632   0.110  14.946  1.7274 -0.0223 -1.0361
 9380TIP3   OH249630   5.169   6.109  13.312  0.0690  0.2064  0.0279
 9380TIP3    H149631   5.235   6.084  13.247  1.5495  1.7607  0.8774
 9380TIP3    H249632   5.118   6.179  13.270 -0.2711 -0.1756 -0.1947
 9381TIP3   OH249633   0.359   6.576   3.856  0.0223 -0.1901 -0.3593
 9381TIP3    H149634   0.370   6.492   3.811  0.7062  0.3448 -1.2250
 9381TIP3    H249635   0.415   6.570   3.933  1.2882  0.0363 -1.2416
 9382TIP3   OH249636   5.451   1.250  14.014 -0.1944 -0.8871  0.3079
 9382TIP3    H149637   5.477   1.219  14.101  2.2159  0.6501  0.1961
 9382TIP3    H249638   5.450   1.346  14.023 -0.6908 -0.7481 -1.1544
 9383TIP3   OH249639   0.096   4.115  16.416 -0.1044 -0.5688  0.1222
 9383TIP3    H149640   0.003   4.090  16.420 -0.6146  1.0462 -1.1185
 9383TIP3    H249641   0.122   4.094  16.326 -0.3680  2.6644 -0.7456
 9384TIP3   OH249642   3.726   5.894   2.278 -0.3658 -0.0548 -0.4075
 9384TIP3    H149643   3.669   5.906   2.353  3.1722  0.3281  2.3268
 9384TIP3    H249644   3.687   5.822   2.229 -2.4949 -0.5680  1.9650
 9385TIP3   OH249645   3.720   6.407   4.257 -0.1018  0.1896  0.8191
 9385TIP3    H149646   3.807   6.447   4.256 -0.4342  0.9345 -1.1704
 9385TIP3    H249647   3.667   6.465   4.311  0.2469  0.6236  0.6972
 9386TIP3   OH249648   2.073   4.507   4.063 -0.2879 -0.8731 -0.5238
 9386TIP3    H149649   1.979   4.511   4.077 -0.1203  1.3366  0.1613
 9386TIP3    H249650   2.111   4.536   4.146  1.0385 -2.9491 -0.3708
 9387TIP3   OH249651   3.223   0.572   2.660  0.4465  0.3626 -0.0605
 9387TIP3    H149652   3.141   0.523   2.667  0.0715  0.9135 -0.5322
 9387TIP3    H249653   3.265   0.561   2.745 -0.9261  1.5067  0.7788
 9388TIP3   OH249654   2.311   0.614  16.653  0.1976 -0.3250  0.0437
 9388TIP3    H149655   2.247   0.545  16.634 -0.9291  0.8104 -0.3224
 9388TIP3    H249656   2.383   0.568  16.696 -0.6615 -1.6881  0.0640
 9389TIP3   OH249657   3.543   0.052  14.809 -0.4188 -0.0708 -0.3456
 9389TIP3    H149658   3.585   0.024  14.727 -0.3558 -0.0695 -0.3132
 9389TIP3    H249659   3.452   0.026  14.799  0.3219 -3.4227  1.1107
 9390TIP3   OH249660   4.133   5.971  15.690 -0.2112  0.1528 -0.3211
 9390TIP3    H149661   4.045   5.991  15.722  1.3141  3.3880  2.1763
 9390TIP3    H249662   4.191   5.998  15.761  2.9452  0.3845 -2.8594
 9391TIP3   OH249663   0.379   5.699  12.115  0.0035  0.1552 -0.1328
 9391TIP3    H149664   0.424   5.724  12.034  0.3398  0.0858  0.0349
 9391TIP3    H249665   0.437   5.726  12.185  0.1793 -0.7161  0.0630
 9392TIP3   OH249666   2.213   2.001   4.863  0.3253 -0.2975 -0.2276
 9392TIP3    H149667   2.273   2.073   4.846  0.0156  0.0521  0.1610
 9392TIP3    H249668   2.269   1.923   4.866  0.5526 -0.1967 -1.5200
 9393TIP3   OH249669   3.114   1.523   0.651 -0.7769 -0.0390 -0.4536
 9393TIP3    H149670   3.076   1.438   0.630 -0.5176 -0.3330  0.2539
 9393TIP3    H249671   3.041   1.575   0.683 -1.6485  1.1687 -4.2036
 9394TIP3   OH249672   6.481   0.031  17.176 -0.4481 -0.4875 -0.1795
 9394TIP3    H149673   6.566   0.036  17.132 -1.1756 -0.1916 -1.5851
 9394TIP3    H249674   6.479  -0.058  17.212  1.1251  0.0461  1.2720
 9395TIP3   OH249675   5.877   1.596   4.366  1.0765 -0.0471 -0.2505
 9395TIP3    H149676   5.934   1.645   4.425  3.9177 -0.7008 -2.3679
 9395TIP3    H249677   5.855   1.658   4.296  1.8671 -0.7645 -1.1422
 9396TIP3   OH249678   4.274   0.530  13.959 -0.7062  0.0401 -0.5976
 9396TIP3    H149679   4.204   0.465  13.954 -0.6503 -0.0673 -0.0227
 9396TIP3    H249680   4.320   0.509  14.040 -1.4530  1.5738  0.2477
 9397TIP3   OH249681   4.409   2.350   6.465  0.3280 -0.3001  0.3794
 9397TIP3    H149682   4.440   2.325   6.552 -0.0015  1.2856  0.9767
 9397TIP3    H249683   4.318   2.375   6.478  0.8432  1.8874 -0.0163
 9398TIP3   OH249684   2.313   5.747   2.976  0.2208 -0.2227 -0.5762
 9398TIP3    H149685   2.325   5.796   3.057  0.1878 -0.0593 -0.6680
 9398TIP3    H249686   2.228   5.778   2.943  0.0796 -0.5356 -0.5015
 9399TIP3   OH249687   5.408   6.003   1.926  0.7903 -0.3995 -0.3634
 9399TIP3    H149688   5.367   6.078   1.970 -0.5328 -3.1703  3.4816
 9399TIP3    H249689   5.334   5.952   1.893  1.5496 -1.1605 -0.8934
 9400TIP3   OH249690   1.026   4.511  11.837  0.1585 -0.1285  0.1035
 9400TIP3    H149691   0.962   4.445  11.810 -0.5880  0.9080 -0.6916
 9400TIP3    H249692   0.978   4.594  11.834  1.2328  0.5228  0.5772
 9401TIP3   OH249693   4.475   4.118  10.252  0.4216 -0.1119  0.0080
 9401TIP3    H149694   4.500   4.205  10.221  0.3717 -0.3435 -0.6972
 9401TIP3    H249695   4.456   4.130  10.345 -1.4842  1.0269 -0.5096
 9402TIP3   OH249696   0.794   5.137   5.651 -0.3060  0.5452  0.6692
 9402TIP3    H149697   0.843   5.217   5.633 -1.3525  0.8519 -0.8648
 9402TIP3    H249698   0.844   5.094   5.720  1.7853  1.1572 -0.4241
 9403TIP3   OH249699   4.222   3.908   2.672 -0.0871  0.4176 -0.0616
 9403TIP3    H149700   4.290   3.933   2.735 -0.9867  1.5946  0.4647
 9403TIP3    H249701   4.268   3.857   2.606  1.3789  1.4892  0.1019
 9404TIP3   OH249702   2.903   6.591  15.322 -0.3581 -0.3615 -0.1407
 9404TIP3    H149703   2.968   6.621  15.387  0.1758 -0.2027 -0.7470
 9404TIP3    H249704   2.833   6.656  15.328 -0.6045 -0.7028  0.7355
 9405TIP3   OH249705   0.536   1.164  14.383  0.0812  0.1910  0.0813
 9405TIP3    H149706   0.541   1.113  14.464  0.2229  1.7693  1.0812
 9405TIP3    H249707   0.483   1.110  14.324 -2.2439  0.1882  2.1104
 9406TIP3   OH249708   6.730   3.997  17.082  0.3800 -0.0027  0.5199
 9406TIP3    H149709   6.663   4.017  17.017  2.6600 -0.0680 -1.9125
 9406TIP3    H249710   6.773   4.081  17.099  1.1362 -0.3723  0.4317
 9407TIP3   OH249711   2.967   0.182   1.029 -0.4755  0.6179 -0.4361
 9407TIP3    H149712   2.887   0.131   1.018  0.2127  0.1255 -3.8922
 9407TIP3    H249713   2.980   0.187   1.124 -2.8328 -2.0499  0.0926
 9408TIP3   OH249714   2.877   3.452  12.445  0.1073  0.2991  0.0142
 9408TIP3    H149715   2.857   3.546  12.447  2.1261  0.7607 -0.0972
 9408TIP3    H249716   2.972   3.449  12.433  0.0740 -1.7659  0.2324
 9409TIP3   OH249717   4.171   0.898   3.546 -0.2171  0.3717  0.1349
 9409TIP3    H149718   4.175   0.907   3.641 -0.9220  0.5101  0.1543
 9409TIP3    H249719   4.087   0.853   3.529 -0.0382  0.2355 -0.4083
 9410TIP3   OH249720   4.227   2.352   0.410  0.1371 -0.2786 -0.4115
 9410TIP3    H149721   4.317   2.365   0.380  0.4506 -0.5593  0.4001
 9410TIP3    H249722   4.211   2.425   0.470 -0.5388  0.3661 -1.3487
 9411TIP3   OH249723   5.703   6.490  11.052 -0.0861  0.5381 -0.3289
 9411TIP3    H149724   5.625   6.437  11.036  0.6830 -0.2486 -1.5206
 9411TIP3    H249725   5.764   6.466  10.982  1.0553  1.4845  0.3147
 9412TIP3   OH249726   1.010   0.569   4.185 -0.3437  0.1863 -0.1270
 9412TIP3    H149727   1.040   0.652   4.222  0.5411 -0.9722  1.8213
 9412TIP3    H249728   1.085   0.510   4.194 -1.2309 -1.0519 -0.7296
 9413TIP3   OH249729   4.387   4.116   5.407 -0.1907 -0.0697  0.2247
 9413TIP3    H149730   4.312   4.150   5.456 -1.7477  0.5566 -2.4902
 9413TIP3    H249731   4.398   4.177   5.334  1.1298 -1.7798 -1.0468
 9414TIP3   OH249732   1.478   3.264   1.114  0.4948 -0.1234 -0.3744
 9414TIP3    H149733   1.432   3.221   1.186 -0.2346 -0.0568 -0.7852
 9414TIP3    H249734   1.562   3.290   1.150  1.0909 -2.2074 -0.2156
 9415TIP3   OH249735   4.471   2.562  13.388  0.0691 -0.2629 -0.4288
 9415TIP3    H149736   4.464   2.563  13.484  0.8779  1.8062 -0.3553
 9415TIP3    H249737   4.526   2.487  13.369  2.7015  1.2228  1.0031
 9416TIP3   OH249738   2.268   5.438   5.654  0.1327 -0.1976 -0.5474
 9416TIP3    H149739   2.343   5.497   5.652 -0.1553  0.2081  0.5863
 9416TIP3    H249740   2.292   5.368   5.593  1.1589  0.2518 -0.6727
 9417TIP3   OH249741   0.233   1.910  10.981 -0.0980  0.0923 -0.1769
 9417TIP3    H149742   0.260   1.866  10.900 -0.9437  0.6001 -0.7368
 9417TIP3    H249743   0.309   1.965  11.004  0.2445 -0.2468 -0.4844
 9418TIP3   OH249744   3.980   3.429   0.932 -0.1127 -0.0476 -0.1160
 9418TIP3    H149745   3.984   3.517   0.895  0.6274  0.3753  0.9378
 9418TIP3    H249746   3.909   3.386   0.884  0.5914  0.5909 -1.7626
 9419TIP3   OH249747   5.578   5.497   0.236  0.4096  0.0468  0.9349
 9419TIP3    H149748   5.648   5.506   0.170  1.2831 -0.1120  1.8217
 9419TIP3    H249749   5.598   5.564   0.301  1.7409 -2.2109  2.9545
 9420TIP3   OH249750   0.571   0.037  10.559 -0.1581  0.0414  0.4130
 9420TIP3    H149751   0.571  -0.057  10.543 -0.7663 -0.2782  2.1585
 9420TIP3    H249752   0.664   0.062  10.558 -0.0622 -0.3135 -1.3623
 9421TIP3   OH249753   3.067   4.140   0.757  0.3524  0.2220  0.0789
 9421TIP3    H149754   3.094   4.061   0.710  0.2975  0.1006  0.2524
 9421TIP3    H249755   2.972   4.130   0.769  0.6477 -0.6299  1.8627
 9422TIP3   OH249756   6.127   4.645  10.927  0.1208 -0.2394 -0.2909
 9422TIP3    H149757   6.133   4.581  10.997  2.1497  0.7176  0.4476
 9422TIP3    H249758   6.033   4.656  10.912 -0.3944  0.4175  3.0922
 9423TIP3   OH249759   6.580   1.027  16.128  0.3888 -0.5255 -0.0073
 9423TIP3    H149760   6.641   1.004  16.198 -0.5842  0.0446  1.0410
 9423TIP3    H249761   6.518   0.954  16.125  0.9334 -0.9615 -0.8706
 9424TIP3   OH249762   2.056   0.528  16.487 -0.0271 -0.2455  0.5185
 9424TIP3    H149763   2.117   0.465  16.526 -1.2812 -1.7106  0.1497
 9424TIP3    H249764   2.092   0.546  16.400  1.8187  1.6752  1.6343
 9425TIP3   OH249765   5.751   3.731  13.807 -0.0301  0.7136  0.4311
 9425TIP3    H149766   5.783   3.706  13.720 -0.3090  1.1485  0.2013
 9425TIP3    H249767   5.743   3.826  13.803 -1.1254  0.6351  0.5518
 9426TIP3   OH249768   5.919   2.992  13.684 -0.3588  0.3191  0.1383
 9426TIP3    H149769   5.977   2.929  13.642  1.9464 -0.2107  3.8652
 9426TIP3    H249770   5.909   3.062  13.620 -0.1862 -2.2039 -2.7429
 9427TIP3   OH249771   2.719   2.941  11.355  0.6977 -0.2796  0.2927
 9427TIP3    H149772   2.804   2.960  11.315  3.2157 -1.1135  4.9453
 9427TIP3    H249773   2.728   2.852  11.390 -1.8502 -0.1308  1.4374
 9428TIP3   OH249774   5.198   4.222  13.876 -0.0981 -0.0306  0.1088
 9428TIP3    H149775   5.122   4.266  13.836 -0.5878 -1.0807 -0.1336
 9428TIP3    H249776   5.160   4.162  13.940  0.4045 -1.8443 -1.2500
 9429TIP3   OH249777   6.226   4.210  16.374 -0.1898  0.1591 -0.1004
 9429TIP3    H149778   6.156   4.274  16.387 -1.6830 -1.7764  1.9520
 9429TIP3    H249779   6.276   4.212  16.456  0.1616 -0.8117 -0.2807
 9430TIP3   OH249780   5.511   3.376  16.754  0.7805 -0.6920  0.2676
 9430TIP3    H149781   5.595   3.400  16.714  0.3019  0.4165 -0.1072
 9430TIP3    H249782   5.448   3.385  16.682  0.2292 -0.7711  0.7438
 9431TIP3   OH249783   0.566   1.327   6.574 -0.2304 -0.6667  0.1716
 9431TIP3    H149784   0.645   1.349   6.526  0.7044 -0.6719  1.6662
 9431TIP3    H249785   0.518   1.267   6.516  1.6543 -1.9795 -0.0778
 9432TIP3   OH249786   5.743   4.232   3.115 -0.0583 -0.5811 -0.7586
 9432TIP3    H149787   5.813   4.183   3.159 -0.6772 -0.3493  0.5016
 9432TIP3    H249788   5.790   4.290   3.055  1.0716  1.7187  2.1918
 9433TIP3   OH249789   4.316   2.366   2.430 -0.3116 -0.8716 -0.0062
 9433TIP3    H149790   4.249   2.431   2.449  1.2793  1.0525 -0.8223
 9433TIP3    H249791   4.335   2.377   2.337 -0.0102 -2.5240 -0.1710
 9434TIP3   OH249792   6.362   0.188  11.250  0.6056  0.3399  0.1040
 9434TIP3    H149793   6.330   0.217  11.165  0.1202  1.5715  0.6925
 9434TIP3    H249794   6.286   0.149  11.293  0.9118 -0.5216 -0.1237
 9435TIP3   OH249795   1.049   5.659   4.956  0.2343  0.2347  0.9033
 9435TIP3    H149796   1.115   5.708   4.907 -0.7990  0.4007 -0.3416
 9435TIP3    H249797   1.080   5.568   4.952  1.1880  0.5179  1.6500
 9436TIP3   OH249798   3.739   1.171   5.508  0.0238 -0.1862  0.4009
 9436TIP3    H149799   3.719   1.211   5.593 -0.5897 -0.5161  0.4123
 9436TIP3    H249800   3.694   1.086   5.510  0.1190 -0.2523 -0.2022
 9437TIP3   OH249801   1.141   5.696   3.359 -0.1611 -0.0072 -0.1689
 9437TIP3    H149802   1.166   5.746   3.281  0.5999  0.3788  0.3094
 9437TIP3    H249803   1.219   5.643   3.378  0.3953  1.3513  1.4687
 9438TIP3   OH249804   4.381   4.780  16.451 -0.2481 -0.3220  0.2087
 9438TIP3    H149805   4.291   4.751  16.434  0.3173 -1.2806 -1.1448
 9438TIP3    H249806   4.401   4.744  16.538 -0.6971 -1.2246 -0.0566
 9439TIP3   OH249807   3.412   0.565  14.343  0.6897 -0.0562 -0.1606
 9439TIP3    H149808   3.333   0.614  14.367  0.7458 -0.2862  0.4991
 9439TIP3    H249809   3.460   0.556  14.426  2.1869  1.4793 -0.8186
 9440TIP3   OH249810   1.646   1.707   4.226  0.0663  0.0959 -0.1292
 9440TIP3    H149811   1.738   1.728   4.210 -0.3455  1.2858 -0.9601
 9440TIP3    H249812   1.605   1.710   4.139 -1.0937  1.2491  0.4463
 9441TIP3   OH249813   4.841   5.173   3.423  0.1077 -0.2343 -0.6066
 9441TIP3    H149814   4.801   5.252   3.460 -0.3213 -0.6055 -0.2728
 9441TIP3    H249815   4.912   5.152   3.484  0.4555  0.0988 -0.8930
 9442TIP3   OH249816   6.048   3.575  13.271  0.4141  0.2514 -0.8305
 9442TIP3    H149817   6.073   3.508  13.335  0.3489 -2.4409 -3.5314
 9442TIP3    H249818   6.123   3.634  13.268  0.9999 -0.3725  0.6735
 9443TIP3   OH249819   4.566   3.296  14.648 -0.3621  0.0996  0.0255
 9443TIP3    H149820   4.575   3.346  14.567  1.4847  0.0686  0.1861
 9443TIP3    H249821   4.587   3.206  14.623  0.9712  0.2206  0.6850
 9444TIP3   OH249822   4.201   0.523   4.695  0.0037 -0.0703 -0.2950
 9444TIP3    H149823   4.217   0.451   4.757 -0.1355  0.6019  0.5188
 9444TIP3    H249824   4.283   0.571   4.694 -0.4936  0.8094  0.5333
 9445TIP3   OH249825   2.188   6.024  15.304  0.4120 -0.1132  0.4584
 9445TIP3    H149826   2.224   6.022  15.393 -2.4062 -1.3360  1.6629
 9445TIP3    H249827   2.157   5.935  15.289  3.1255 -0.5715 -2.8179
 9446TIP3   OH249828   6.399   4.604  12.686 -0.6187 -0.4773  0.4459
 9446TIP3    H149829   6.310   4.638  12.687 -0.6070 -0.2765 -1.8990
 9446TIP3    H249830   6.432   4.618  12.775 -2.3973  0.8282  0.9080
 9447TIP3   OH249831   1.241   0.321  11.278  0.0205  0.7795 -0.8920
 9447TIP3    H149832   1.185   0.306  11.354  2.2925  0.7133  0.8313
 9447TIP3    H249833   1.258   0.233  11.243  0.2536  0.6774 -0.5229
 9448TIP3   OH249834   4.634   3.232  14.124 -0.3632 -0.7619 -0.1859
 9448TIP3    H149835   4.681   3.309  14.091 -1.1758  0.1860  0.8082
 9448TIP3    H249836   4.702   3.178  14.164  0.1023 -0.1491 -0.1363
 9449TIP3   OH249837   0.661   0.079   6.520 -0.4922  0.2252  0.0072
 9449TIP3    H149838   0.647   0.044   6.432 -1.4005  2.1803 -0.6710
 9449TIP3    H249839   0.575   0.072   6.563  0.3831 -2.4095  1.3986
 9450TIP3   OH249840   6.654   1.713   0.519 -0.0711  0.3877 -0.0365
 9450TIP3    H149841   6.601   1.787   0.548 -1.1692 -0.3170 -0.2038
 9450TIP3    H249842   6.745   1.741   0.532 -0.4800  1.6843  0.0750
 9451TIP3   OH249843   2.094   4.094  11.896 -0.5760  0.4943 -0.0696
 9451TIP3    H149844   2.152   4.143  11.954  0.5620  2.0783 -2.4771
 9451TIP3    H249845   2.006   4.125  11.918 -0.1791  0.9624  0.8936
 9452TIP3   OH249846   5.725   6.790  11.935  0.5238  0.0033  0.2245
 9452TIP3    H149847   5.717   6.771  12.028 -1.0151 -1.7856 -0.2441
 9452TIP3    H249848   5.775   6.717  11.900  0.2449  0.1646 -0.5179
 9453TIP3   OH249849   4.430   3.008   3.396 -0.1168  0.5251  0.3809
 9453TIP3    H149850   4.501   2.947   3.417  1.7523  1.8344 -1.9210
 9453TIP3    H249851   4.399   3.038   3.481  0.2205 -2.1655  1.5041
 9454TIP3   OH249852   4.243   1.960  13.558  0.3256 -0.5535 -0.2031
 9454TIP3    H149853   4.286   1.908  13.626  1.7315 -1.0125 -1.4282
 9454TIP3    H249854   4.314   2.008  13.516 -0.8042  1.4681  0.0998
 9455TIP3   OH249855   6.358   6.033  12.897  0.0040 -0.1962  0.1510
 9455TIP3    H149856   6.332   6.109  12.949  2.0140  1.0384 -0.5895
 9455TIP3    H249857   6.325   6.051  12.809  0.4333 -0.2074 -0.0132
 9456TIP3   OH249858   1.759   1.023   6.007 -0.3324  0.0863 -0.0768
 9456TIP3    H149859   1.710   1.022   6.089  0.5125  0.0186  0.4362
 9456TIP3    H249860   1.815   0.945   6.012 -1.4134 -0.7912 -1.4136
 9457TIP3   OH249861   5.015   5.804  14.913  0.5409 -0.0352 -0.2982
 9457TIP3    H149862   5.033   5.711  14.927 -0.2258 -0.6545 -3.0318
 9457TIP3    H249863   5.101   5.846  14.923  0.9353 -1.0650  0.7441
 9458TIP3   OH249864   6.075   2.455  14.889  0.0955  0.1972  0.5678
 9458TIP3    H149865   6.017   2.527  14.864  1.9952  0.8611 -2.1008
 9458TIP3    H249866   6.041   2.380  14.840  0.1401  0.0608  0.7468
 9459TIP3   OH249867   3.646   5.937  10.782 -0.6747  1.0047 -0.4395
 9459TIP3    H149868   3.654   5.913  10.690  1.6898 -0.6781  0.1595
 9459TIP3    H249869   3.712   6.006  10.795  1.2857 -1.0172  0.6887
 9460TIP3   OH249870   6.320   0.048   0.971 -0.0442  0.2152  0.7313
 9460TIP3    H149871   6.230   0.026   0.948 -0.0497 -1.1801  2.0519
 9460TIP3    H249872   6.359   0.078   0.889 -0.6419 -2.8053 -0.7273
 9461TIP3   OH249873   4.660   0.338   2.634 -0.4135  0.0329 -0.1949
 9461TIP3    H149874   4.683   0.379   2.718  0.8240 -0.7755 -0.1350
 9461TIP3    H249875   4.571   0.370   2.616 -0.3444  0.9290  0.9752
 9462TIP3   OH249876   6.423   4.784  17.291 -0.4363  0.1239  0.3645
 9462TIP3    H149877   6.421   4.818  17.380 -1.2147 -0.4986  0.5907
 9462TIP3    H249878   6.412   4.689  17.302 -0.2552  0.0152 -0.3813
 9463TIP3   OH249879   3.557   0.803   1.788 -0.2834  0.0564 -0.2439
 9463TIP3    H149880   3.550   0.751   1.708  0.9758  0.0687 -0.3751
 9463TIP3    H249881   3.467   0.812   1.819 -0.5706 -1.8809 -0.4309
 9464TIP3   OH249882   6.070   2.655   4.671 -0.3294 -0.3524  0.2544
 9464TIP3    H149883   6.058   2.748   4.692 -0.0012 -1.0188  3.6915
 9464TIP3    H249884   5.981   2.620   4.666 -0.4140 -0.1360  0.2415
 9465TIP3   OH249885   2.193   1.598   3.893  0.4527  1.1498  0.2157
 9465TIP3    H149886   2.258   1.625   3.959  1.0823 -0.1341  0.1320
 9465TIP3    H249887   2.199   1.665   3.826  3.0419  0.0844 -0.6837
 9466TIP3   OH249888   3.422   3.693   5.898  0.0679 -0.1814 -0.1532
 9466TIP3    H149889   3.436   3.783   5.930  3.1790 -0.5238 -0.3340
 9466TIP3    H249890   3.328   3.686   5.887 -0.3771  2.5984  1.2692
 9467TIP3   OH249891   4.294   6.595   2.111 -0.6004 -0.2306 -0.0691
 9467TIP3    H149892   4.336   6.637   2.186 -1.4147 -0.3283  0.4518
 9467TIP3    H249893   4.358   6.531   2.080 -1.2969 -2.0607  2.1969
 9468TIP3   OH249894   5.430   5.237  15.680 -0.1381 -0.2956 -0.7808
 9468TIP3    H149895   5.346   5.282  15.683 -0.7535 -1.3593 -1.4398
 9468TIP3    H249896   5.409   5.151  15.643  0.8648 -1.4335  1.2133
 9469TIP3   OH249897   6.709   2.607   4.350  0.2277 -0.4309 -0.1806
 9469TIP3    H149898   6.629   2.582   4.302  0.4162 -0.3651 -0.5304
 9469TIP3    H249899   6.773   2.539   4.327 -0.0813 -1.1479  1.0474
 9470TIP3   OH249900   0.387   3.281   3.887 -0.2855  0.1200  0.1805
 9470TIP3    H149901   0.311   3.337   3.901  0.0654  0.2324  1.7739
 9470TIP3    H249902   0.389   3.225   3.965  0.7923 -0.4301 -0.2413
 9471TIP3   OH249903   5.818   4.052  11.383 -0.1626 -0.1116  0.0962
 9471TIP3    H149904   5.889   4.005  11.339 -3.4661 -0.8096 -4.7971
 9471TIP3    H249905   5.773   3.984  11.434 -1.5036 -1.2336 -2.4678
 9472TIP3   OH249906   6.507   5.206  11.453  0.3410  0.0308  0.3099
 9472TIP3    H149907   6.492   5.221  11.547 -0.1569  0.3472  0.1813
 9472TIP3    H249908   6.602   5.206  11.444  0.3754  0.9154  0.6676
 9473TIP3   OH249909   5.630   0.931  16.125 -0.7606 -0.3809  0.2139
 9473TIP3    H149910   5.640   0.836  16.117 -0.8008 -0.3122 -0.6512
 9473TIP3    H249911   5.562   0.954  16.062  0.0063  0.3695 -0.3494
 9474TIP3   OH249912   5.098   4.934  16.075  0.0818  0.1437  0.5085
 9474TIP3    H149913   5.019   4.921  16.022  0.8653 -1.0461 -0.3768
 9474TIP3    H249914   5.114   4.849  16.115  1.4294  0.1376 -0.0262
 9475TIP3   OH249915   1.765   0.627  16.330  0.4360 -0.5396  0.4852
 9475TIP3    H149916   1.709   0.572  16.385  1.6275  1.3628  3.7719
 9475TIP3    H249917   1.852   0.615  16.367  1.5272 -0.3596 -2.0038
 9476TIP3   OH249918   2.905   4.988   1.193  0.0464 -0.7937 -0.1270
 9476TIP3    H149919   2.937   4.898   1.184  0.8769 -0.7681  2.2385
 9476TIP3    H249920   2.946   5.035   1.120 -0.6125 -2.3826 -1.5346
 9477TIP3   OH249921   0.195   5.592  12.769 -0.4768 -0.0620 -0.1935
 9477TIP3    H149922   0.218   5.674  12.814 -0.0509  0.8834 -2.0847
 9477TIP3    H249923   0.101   5.600  12.752 -0.6430 -0.4308  0.4960
 9478TIP3   OH249924   5.921   2.314   5.788 -0.1568  0.3348  0.0859
 9478TIP3    H149925   5.998   2.357   5.826 -0.2189  0.2086  0.3507
 9478TIP3    H249926   5.916   2.230   5.832  0.5971 -0.4047 -1.2126
 9479TIP3   OH249927   0.073   3.041   6.069  0.0650  0.4246  0.1192
 9479TIP3    H149928  -0.005   2.985   6.073 -1.4428  2.4076 -0.9646
 9479TIP3    H249929   0.042   3.123   6.031  2.1692  2.1748  2.0840
 9480TIP3   OH249930   2.060   6.509  13.452 -0.0101  0.2534  0.1254
 9480TIP3    H149931   2.037   6.600  13.468  0.4980 -0.0708  2.9266
 9480TIP3    H249932   2.138   6.494  13.505 -0.2838 -1.9197 -0.0219
 9481TIP3   OH249933   3.968   3.860   3.386 -0.5882  0.4649 -0.0300
 9481TIP3    H149934   3.885   3.887   3.424 -0.6767 -0.6396  0.5841
 9481TIP3    H249935   3.961   3.883   3.294 -0.9954  1.7218  0.3054
 9482TIP3   OH249936   3.316   2.237  14.767  0.0930  0.5974 -0.1569
 9482TIP3    H149937   3.323   2.327  14.800 -2.1296  1.1408 -1.0781
 9482TIP3    H249938   3.257   2.194  14.828 -1.8519  0.8375 -1.8460
 9483TIP3   OH249939   2.595   2.830  11.698 -0.4460 -0.4530  0.3615
 9483TIP3    H149940   2.541   2.879  11.760 -0.8764 -0.1211 -0.2757
 9483TIP3    H249941   2.557   2.743  11.697 -1.5835  0.0535 -0.8367
 9484TIP3   OH249942   1.925   6.503   5.670  0.5653 -0.2793 -0.5338
 9484TIP3    H149943   1.965   6.580   5.709  0.2834 -0.1696 -0.4594
 9484TIP3    H249944   1.832   6.526   5.660  0.8386  0.1245 -2.3237
 9485TIP3   OH249945   1.609   1.712  16.379  0.8708 -0.3430  0.4152
 9485TIP3    H149946   1.522   1.692  16.413  0.4141  1.4400  0.3205
 9485TIP3    H249947   1.609   1.674  16.291  0.4271 -0.8947  0.6429
 9486TIP3   OH249948   4.605   6.160   2.040 -0.6057 -0.0046  0.7935
 9486TIP3    H149949   4.684   6.215   2.036 -0.9304  0.3940 -0.6099
 9486TIP3    H249950   4.638   6.071   2.026 -0.5510  0.3398 -1.6007
 9487TIP3   OH249951   1.477   4.155   5.436 -0.3937 -0.0616  0.1845
 9487TIP3    H149952   1.479   4.156   5.532  0.8507 -2.6043  0.2255
 9487TIP3    H249953   1.437   4.071   5.414  0.9148 -0.2611 -1.5227
 9488TIP3   OH249954   6.248   6.256   5.627 -0.6406 -0.0251 -0.1841
 9488TIP3    H149955   6.233   6.214   5.712  2.8017 -0.1667  0.4226
 9488TIP3    H249956   6.266   6.183   5.568  0.4345  0.2617 -0.2253
 9489TIP3   OH249957   3.581   5.436  11.746 -0.7436  0.0010  0.4726
 9489TIP3    H149958   3.524   5.502  11.786 -1.6133  1.5919 -3.2004
 9489TIP3    H249959   3.670   5.468  11.763 -1.0968  0.8517  0.7416
 9490TIP3   OH249960   0.952   1.459  15.902  0.1369  0.1865  0.4791
 9490TIP3    H149961   0.918   1.532  15.850  1.3921  1.1787  1.0209
 9490TIP3    H249962   0.990   1.400  15.838 -0.6683  0.1276  0.0515
 9491TIP3   OH249963   3.373   6.145   0.795  0.3423 -0.1301 -0.0070
 9491TIP3    H149964   3.288   6.190   0.791  0.7813  0.6729 -0.3429
 9491TIP3    H249965   3.437   6.215   0.788  1.0409 -0.7315  0.3347
 9492TIP3   OH249966   1.616   4.226  14.283 -0.5202 -0.0028 -0.1964
 9492TIP3    H149967   1.611   4.225  14.378 -0.9906  0.6309 -0.2088
 9492TIP3    H249968   1.532   4.190  14.254 -0.0364 -0.9869 -0.3678
 9493TIP3   OH249969   2.743   1.666   1.117 -0.0233 -0.1899 -0.5951
 9493TIP3    H149970   2.760   1.572   1.106  0.3151 -0.0926 -0.9145
 9493TIP3    H249971   2.648   1.674   1.108 -0.1567 -0.6246  0.3584
 9494TIP3   OH249972   2.941   2.992  12.321  0.3976  0.1153 -0.1392
 9494TIP3    H149973   2.858   3.000  12.274  0.7548  1.7817 -0.5257
 9494TIP3    H249974   2.948   2.899  12.342 -0.7242 -0.3307 -1.6523
 9495TIP3   OH249975   0.883   1.045   2.650 -0.0066 -0.2469  0.1192
 9495TIP3    H149976   0.882   1.133   2.614  0.2350 -1.0130 -1.8619
 9495TIP3    H249977   0.794   1.030   2.680 -0.3405  0.2556 -0.6141
 9496TIP3   OH249978   0.539   0.209   4.283  0.1405 -0.8780  0.0133
 9496TIP3    H149979   0.563   0.195   4.191 -0.4220 -0.2949 -0.2297
 9496TIP3    H249980   0.456   0.256   4.278  0.8165  0.4208  0.8127
 9497TIP3   OH249981   3.261   5.367   5.713  0.0185 -0.0396  0.0124
 9497TIP3    H149982   3.211   5.356   5.632 -0.8091 -1.0537  0.6419
 9497TIP3    H249983   3.229   5.449   5.751 -1.2906 -0.7314  0.4671
 9498TIP3   OH249984   2.902   5.089  12.397 -0.3943  0.0471 -0.1311
 9498TIP3    H149985   2.871   5.073  12.487  0.4189 -0.7298  0.0196
 9498TIP3    H249986   2.996   5.074  12.401 -0.4851 -0.9447 -1.3149
 9499TIP3   OH249987   0.894   6.592  14.756  0.1177  0.3132 -0.0587
 9499TIP3    H149988   0.915   6.674  14.711 -0.6359  1.0540  0.9365
 9499TIP3    H249989   0.826   6.552  14.702  0.1615  0.5657 -0.3016
 9500TIP3   OH249990   1.454   1.385   4.998 -0.6344 -0.1811  0.9282
 9500TIP3    H149991   1.403   1.310   4.967 -3.7561  1.3982  2.0180
 9500TIP3    H249992   1.512   1.348   5.064  0.5914 -2.2347 -1.1871
 9501TIP3   OH249993   4.168   5.883   1.822  0.1164 -0.7810  0.4944
 9501TIP3    H149994   4.170   5.857   1.914  0.3984 -3.0726 -0.1263
 9501TIP3    H249995   4.178   5.801   1.774 -1.7264  0.1776 -1.6075
 9502TIP3   OH249996   1.513   2.880  11.100 -0.3441 -0.1259 -0.6984
 9502TIP3    H149997   1.477   2.897  11.013  1.4996 -0.9938 -1.6402
 9502TIP3    H249998   1.550   2.792  11.095 -0.0019 -0.0936  0.8934
 9503TIP3   OH249999   2.455   3.644  15.236  0.2544  0.0596 -0.1437
 9503TIP3    H150000   2.520   3.578  15.212  0.6823  0.5744 -0.4128
 9503TIP3    H250001   2.394   3.648  15.162  0.3082  0.0639 -0.1876
 9504TIP3   OH250002   0.930   0.709  17.251  0.6685 -0.2039  0.0221
 9504TIP3    H150003   1.012   0.756  17.264  0.5869 -0.0479 -0.0371
 9504TIP3    H250004   0.928   0.690  17.158  1.1914 -1.2113  0.2080
 9505TIP3   OH250005   2.197   1.272  15.939 -0.3624  0.1891  0.6170
 9505TIP3    H150006   2.234   1.197  15.985  0.2039 -1.3778 -2.2466
 9505TIP3    H250007   2.103   1.257  15.940 -0.4432  0.7478  2.1994
 9506TIP3   OH250008   1.475   3.242   4.219  0.4758 -0.2060  0.3578
 9506TIP3    H150009   1.468   3.207   4.307 -1.0977  0.7233  0.6207
 9506TIP3    H250010   1.392   3.286   4.204  1.5702  1.5419 -0.7598
 9507TIP3   OH250011   3.564   1.030   5.211 -0.5101 -0.1165 -0.2696
 9507TIP3    H150012   3.659   1.032   5.203 -0.5202 -0.3208 -0.4390
 9507TIP3    H250013   3.538   0.949   5.169 -0.8339  0.3564 -0.9964
 9508TIP3   OH250014   0.615   2.194  13.713 -0.2847  0.2331  0.4893
 9508TIP3    H150015   0.527   2.229  13.724 -1.0328 -1.4518  0.0760
 9508TIP3    H250016   0.645   2.230  13.630 -0.5960  0.7802  0.6129
 9509TIP3   OH250017   5.277   2.523   2.961 -0.2783  0.1155 -0.4631
 9509TIP3    H150018   5.192   2.561   2.939 -0.6600 -0.8938 -0.7478
 9509TIP3    H250019   5.258   2.432   2.984  0.7333 -0.1324 -0.5685
 9510TIP3   OH250020   1.640   2.083   0.989  0.3865  0.0386 -0.5211
 9510TIP3    H150021   1.672   2.134   1.064 -0.0624 -0.9030  0.3195
 9510TIP3    H250022   1.576   2.140   0.947 -0.7568 -0.1447  0.9214
 9511TIP3   OH250023   0.093   6.143   2.155  0.3102 -0.4482 -0.5131
 9511TIP3    H150024   0.006   6.178   2.136  1.1279  1.3677 -1.0027
 9511TIP3    H250025   0.099   6.144   2.250  0.2260  0.5027 -0.5163
 9512TIP3   OH250026   6.483   1.643   6.430 -0.4556 -0.1297  0.2233
 9512TIP3    H150027   6.432   1.564   6.448 -0.4074  0.1310  1.6044
 9512TIP3    H250028   6.565   1.630   6.479  0.0357  0.2522 -0.4969
 9513TIP3   OH250029   6.625   6.665   4.583 -0.4528  0.6053  0.1294
 9513TIP3    H150030   6.613   6.744   4.529 -0.9621  0.8604  0.6123
 9513TIP3    H250031   6.712   6.675   4.622  0.0931  0.2247 -0.9634
 9514TIP3   OH250032   2.160   4.228   5.321  0.1918  0.5997 -0.2240
 9514TIP3    H150033   2.108   4.279   5.384  0.5781  2.1705 -1.1552
 9514TIP3    H250034   2.249   4.260   5.332  1.0706 -2.1515  1.4229
 9515TIP3   OH250035   5.062   3.210   1.319  0.2254  0.4979 -0.2598
 9515TIP3    H150036   5.155   3.234   1.320  0.1556  0.7668  1.1288
 9515TIP3    H250037   5.060   3.121   1.354 -0.0571  0.5569 -0.1279
 9516TIP3   OH250038   0.849   1.492  12.581 -0.1991 -0.0353 -0.2769
 9516TIP3    H150039   0.885   1.579  12.599 -1.4375  0.1101  1.5521
 9516TIP3    H250040   0.761   1.494  12.619  0.3136 -2.5869  1.0945
 9517TIP3   OH250041   0.267   5.420  15.275  0.0888 -0.0255 -0.4364
 9517TIP3    H150042   0.280   5.326  15.263  0.3024  0.0912 -1.1187
 9517TIP3    H250043   0.340   5.460  15.228  0.7391  0.4439  0.9374
 9518TIP3   OH250044   2.760   0.156   6.640 -0.3172 -0.5637 -0.0573
 9518TIP3    H150045   2.808   0.140   6.558  1.5448 -0.2996  0.9531
 9518TIP3    H250046   2.735   0.248   6.636  0.0739 -0.4609 -0.1932
 9519TIP3   OH250047   0.917   0.571   3.322 -0.5085 -0.5717 -0.4919
 9519TIP3    H150048   0.881   0.660   3.311 -0.9354 -0.6896 -0.0892
 9519TIP3    H250049   1.012   0.584   3.326 -0.6006 -0.0458  0.2995
 9520TIP3   OH250050   0.005   5.565   6.149 -0.0736 -0.3369 -0.3307
 9520TIP3    H150051  -0.035   5.650   6.171  3.1019  0.6321  2.0759
 9520TIP3    H250052  -0.045   5.502   6.201 -0.8525  0.3554 -0.2091
 9521TIP3   OH250053   0.872   4.984  11.933 -0.3980 -0.2546 -0.1749
 9521TIP3    H150054   0.779   5.006  11.942 -0.4024 -0.3146 -0.0703
 9521TIP3    H250055   0.915   5.036  12.001 -0.6294 -1.9752  1.3169
 9522TIP3   OH250056   4.422   2.918  16.220 -0.4450 -0.1731 -0.4516
 9522TIP3    H150057   4.332   2.896  16.193 -0.1328 -2.2765  0.1715
 9522TIP3    H250058   4.477   2.861  16.167  0.5300  0.7110 -0.4116
 9523TIP3   OH250059   4.190   6.624   2.409  0.5461 -0.2935  0.0880
 9523TIP3    H150060   4.186   6.709   2.451 -2.5321 -0.1187 -0.4525
 9523TIP3    H250061   4.142   6.566   2.468  1.2051 -1.3122 -0.3594
 9524TIP3   OH250062   6.689   6.781  12.267  0.0319  0.0815 -0.0234
 9524TIP3    H150063   6.619   6.770  12.203 -0.1840  2.5326 -0.2670
 9524TIP3    H250064   6.659   6.852  12.324  1.0508 -0.7852  1.6521
 9525TIP3   OH250065   6.398   6.159   6.033 -0.6099  0.3690 -0.1394
 9525TIP3    H150066   6.379   6.247   6.000 -1.0748  0.7891  1.1942
 9525TIP3    H250067   6.312   6.119   6.044 -0.6251  1.0123  2.5552
 9526TIP3   OH250068   3.594   6.214   2.745  0.3046 -0.1792 -0.3520
 9526TIP3    H150069   3.665   6.219   2.680  0.1438  5.2374 -0.3537
 9526TIP3    H250070   3.638   6.224   2.829 -0.3301  2.5148 -0.3079
 9527TIP3   OH250071   3.982   6.684  11.710 -0.2338 -0.3673  0.0521
 9527TIP3    H150072   3.896   6.723  11.724  0.2080  1.4214 -1.9637
 9527TIP3    H250073   3.964   6.595  11.680 -1.4649  0.7434 -2.6083
 9528TIP3   OH250074   4.682   4.428  14.862 -0.3392 -0.2852 -0.1792
 9528TIP3    H150075   4.719   4.500  14.811  0.4738  0.2118  1.0682
 9528TIP3    H250076   4.742   4.355  14.847 -0.5307 -0.3636 -0.5511
 9529TIP3   OH250077   1.981   1.223   4.457  0.2339  0.5356  0.3409
 9529TIP3    H150078   2.009   1.145   4.409 -0.1187  0.1079  0.8212
 9529TIP3    H250079   2.029   1.295   4.416  0.4303  0.0914 -0.2216
 9530TIP3   OH250080   1.443   5.668   0.039 -0.0309  0.4238  0.0720
 9530TIP3    H150081   1.368   5.721   0.066  0.4939  0.5979  1.2545
 9530TIP3    H250082   1.517   5.730   0.039  0.4423 -0.1314  0.6883
 9531TIP3   OH250083   5.941   0.720  13.583 -0.2196 -0.2630  0.4865
 9531TIP3    H150084   5.948   0.763  13.498  0.5146 -0.6153  0.3617
 9531TIP3    H250085   5.890   0.641  13.566 -0.7372  0.0597  0.5292
 9532TIP3   OH250086   2.149   5.976   2.208 -0.0229  0.6287 -0.7006
 9532TIP3    H150087   2.227   6.031   2.196  0.6003 -0.4308 -1.6899
 9532TIP3    H250088   2.081   6.019   2.157  0.2647  0.8864 -0.8742
 9533TIP3   OH250089   6.608   5.987  13.000 -0.5174 -0.1247  0.1527
 9533TIP3    H150090   6.515   5.996  12.982 -0.9264 -0.6900  1.9146
 9533TIP3    H250091   6.645   5.951  12.919 -2.2823 -2.4943  0.3468
 9534TIP3   OH250092   1.898   6.584  16.868 -0.4946 -0.3242 -0.6112
 9534TIP3    H150093   1.972   6.621  16.821 -0.5401  2.3199  1.2547
 9534TIP3    H250094   1.933   6.560  16.954 -1.1672 -1.7981 -0.7242
 9535TIP3   OH250095   5.554   5.294   0.414  0.8436 -0.6493  0.7756
 9535TIP3    H150096   5.578   5.364   0.354  2.0373 -1.3020  0.4645
 9535TIP3    H250097   5.520   5.339   0.491  1.7430  0.2713  0.6468
 9536TIP3   OH250098   0.591   0.750  14.171  0.1940 -0.9791  1.0703
 9536TIP3    H150099   0.640   0.761  14.252  0.9993 -0.3876  0.5144
 9536TIP3    H250100   0.656   0.718  14.108  0.1580  0.9208  0.0174
 9537TIP3   OH250101   1.995   5.837  13.287  0.3507  0.2622  0.6914
 9537TIP3    H150102   2.008   5.756  13.238 -5.0146 -0.0537 -0.4934
 9537TIP3    H250103   1.991   5.810  13.379  0.3023 -0.5620  0.4485
 9538TIP3   OH250104   3.009   3.963   3.603  0.5650  0.1512 -0.1844
 9538TIP3    H150105   2.925   3.961   3.558  0.0017  0.2666  0.8442
 9538TIP3    H250106   2.993   4.016   3.681  1.8747  1.0772 -0.5361
 9539TIP3   OH250107   2.676   2.523   5.816  0.0122  0.7102  0.5906
 9539TIP3    H150108   2.734   2.509   5.891  1.8516  1.0088 -0.7427
 9539TIP3    H250109   2.703   2.457   5.752 -1.3929  0.6080  0.0730
 9540TIP3   OH250110   1.156   2.137   5.875  0.0997  0.3706  0.3537
 9540TIP3    H150111   1.171   2.221   5.918  0.2376  1.0080 -0.9164
 9540TIP3    H250112   1.062   2.122   5.884  0.2740  0.0054  1.7384
 9541TIP3   OH250113   2.296   3.636  14.063  0.2897 -0.2344 -0.4345
 9541TIP3    H150114   2.241   3.610  13.990 -0.2433  0.8254 -0.4197
 9541TIP3    H250115   2.266   3.724  14.086 -0.1634 -0.9111  1.6445
 9542TIP3   OH250116   1.535   2.798  12.294 -0.3298  0.4301  0.0201
 9542TIP3    H150117   1.561   2.786  12.386 -2.0207  1.0939  0.6068
 9542TIP3    H250118   1.581   2.877  12.266  2.3721 -1.2938 -0.5792
 9543TIP3   OH250119   4.810   0.372   0.711  0.1051 -0.2046  0.4494
 9543TIP3    H150120   4.767   0.288   0.722  0.8800 -0.5684  0.7579
 9543TIP3    H250121   4.898   0.351   0.680  0.1756  0.5083  0.1420
 9544TIP3   OH250122   4.259   2.812  15.424 -0.0762 -0.2438  0.4771
 9544TIP3    H150123   4.334   2.752  15.427 -1.4049 -1.8761  1.6403
 9544TIP3    H250124   4.186   2.762  15.461 -1.4665  1.7360  0.5005
 9545TIP3   OH250125   0.291   4.319  14.807 -0.6077  0.6402  0.0331
 9545TIP3    H150126   0.269   4.328  14.900  0.1442 -1.4301  0.4449
 9545TIP3    H250127   0.353   4.390  14.790 -1.8723  1.9311  0.7316
 9546TIP3   OH250128   4.092   3.982  11.149  0.2298 -0.2016 -0.8130
 9546TIP3    H150129   4.042   3.905  11.175  1.5473 -0.1911  1.9170
 9546TIP3    H250130   4.079   3.988  11.054  0.3194 -3.9310 -1.1353
 9547TIP3   OH250131   1.901   5.148  15.147  0.1187  0.0769 -0.6176
 9547TIP3    H150132   1.958   5.224  15.154 -0.2536  0.3846 -0.9192
 9547TIP3    H250133   1.956   5.074  15.174  1.2660  0.0840 -2.8200
 9548TIP3   OH250134   2.692   4.880  14.790  0.4799  0.5358  0.7369
 9548TIP3    H150135   2.717   4.909  14.702  1.8318  0.3188  1.0440
 9548TIP3    H250136   2.597   4.892  14.793  0.2349 -0.7280 -1.2232
 9549TIP3   OH250137   6.373   4.201  17.229  0.0932  0.1191 -0.1312
 9549TIP3    H150138   6.421   4.119  17.218 -1.0499 -1.1417  3.7233
 9549TIP3    H250139   6.430   4.254  17.285  0.1662  1.4240 -1.4239
 9550TIP3   OH250140   2.173   4.555  15.140  0.3693  0.2338 -0.5234
 9550TIP3    H150141   2.179   4.651  15.147 -1.9853  0.4053 -0.4231
 9550TIP3    H250142   2.159   4.526  15.230 -1.2197  0.0101 -0.8291
 9551TIP3   OH250143   1.086   4.350   4.135 -0.1252  0.2140 -0.3121
 9551TIP3    H150144   0.994   4.324   4.137  0.0066 -0.1403  1.3219
 9551TIP3    H250145   1.104   4.385   4.222  1.3498  0.0510 -0.5300
 9552TIP3   OH250146   3.278   3.772  16.572 -0.6105 -0.2568  0.4534
 9552TIP3    H150147   3.238   3.859  16.577  0.6056  0.2438  2.4387
 9552TIP3    H250148   3.256   3.739  16.485 -1.7135  1.7400 -0.0428
 9553TIP3   OH250149   5.724   4.345  11.617 -0.0437 -0.6557 -0.3044
 9553TIP3    H150150   5.669   4.297  11.679 -0.2997 -0.4350 -0.3583
 9553TIP3    H250151   5.809   4.300  11.620 -0.6888 -1.9907 -1.3788
 9554TIP3   OH250152   2.981   4.355   0.376 -0.0091 -0.2009 -0.0479
 9554TIP3    H150153   2.962   4.390   0.463 -0.5885 -1.3362  0.2869
 9554TIP3    H250154   2.965   4.261   0.384  2.1666 -0.6462 -0.7593
 9555TIP3   OH250155   0.127   3.381  15.659 -0.2970 -0.2141 -0.2412
 9555TIP3    H150156   0.116   3.399  15.753 -2.2249 -1.3901 -0.2017
 9555TIP3    H250157   0.081   3.453  15.616 -0.7980 -0.5202 -0.2312
 9556TIP3   OH250158   0.932   2.795  15.545 -0.2173 -0.6775  0.1136
 9556TIP3    H150159   0.992   2.766  15.614 -1.4814 -1.2754  0.9859
 9556TIP3    H250160   0.918   2.718  15.490 -0.8212 -0.7682  0.3896
 9557TIP3   OH250161   3.503   4.288   3.044 -0.3607  0.0459 -0.4477
 9557TIP3    H150162   3.423   4.268   2.996 -1.0074  1.2091  0.1344
 9557TIP3    H250163   3.479   4.358   3.104  1.2195  0.8024 -0.6505
 9558TIP3   OH250164   1.540   5.896  10.728  0.4379  0.4712 -0.1870
 9558TIP3    H150165   1.494   5.849  10.798 -0.0825  1.7159  0.3053
 9558TIP3    H250166   1.470   5.932  10.673  0.8415  0.3258 -0.8035
 9559TIP3   OH250167   4.402   5.346   2.065 -0.1500 -0.1687  0.1646
 9559TIP3    H150168   4.349   5.374   2.139 -1.3573  0.5792 -0.9620
 9559TIP3    H250169   4.481   5.400   2.069 -0.0267 -0.4197  1.1301
 9560TIP3   OH250170   4.901   5.451   0.344  0.0732  0.0564  0.1355
 9560TIP3    H150171   4.842   5.525   0.359  0.4387 -0.0442  2.2344
 9560TIP3    H250172   4.982   5.475   0.388  0.7084 -0.9387 -0.4702
 9561TIP3   OH250173   3.086   3.905   0.595  0.1002 -0.3452  0.0518
 9561TIP3    H150174   3.148   3.927   0.526  0.3259 -0.5594  0.1799
 9561TIP3    H250175   3.037   3.831   0.560  0.2754 -0.5116  0.1508
 9562TIP3   OH250176   4.364   4.061   0.888  0.2573 -0.6575  0.0042
 9562TIP3    H150177   4.290   4.068   0.949  1.2415 -1.3583  1.2956
 9562TIP3    H250178   4.418   3.991   0.924  2.9072  1.6036  0.4803
 9563TIP3   OH250179   6.623   3.342   6.823 -0.1583 -0.0600  0.1069
 9563TIP3    H150180   6.617   3.280   6.750 -1.0432  1.1763 -0.8897
 9563TIP3    H250181   6.548   3.319   6.879 -0.9271  0.5675 -0.6438
 9564TIP3   OH250182   5.951   6.628  16.999 -0.5252  0.4148  0.2990
 9564TIP3    H150183   5.976   6.603  16.910  1.9102  1.6912  0.5708
 9564TIP3    H250184   5.863   6.665  16.990 -0.3810  0.3448 -1.5657
 9565TIP3   OH250185   4.632   5.722   3.329  0.0369  0.4055  0.2467
 9565TIP3    H150186   4.707   5.682   3.286 -1.6200  0.5183 -2.8397
 9565TIP3    H250187   4.566   5.653   3.333 -1.1590  1.4583 -0.8289
 9566TIP3   OH250188   3.452   4.285   5.356  0.3493  0.7379 -0.0478
 9566TIP3    H150189   3.411   4.294   5.442 -1.6497  0.4808 -0.9536
 9566TIP3    H250190   3.489   4.372   5.338 -1.1680  1.4326  0.1211
 9567TIP3   OH250191   0.390   3.452   5.019  0.3506 -0.7056 -0.6004
 9567TIP3    H150192   0.443   3.375   5.042 -0.9470 -1.5493 -0.3921
 9567TIP3    H250193   0.309   3.440   5.068 -0.8487 -0.4588 -2.5115
 9568TIP3   OH250194   2.688   1.045  15.533  0.4125  0.5795  0.0904
 9568TIP3    H150195   2.596   1.058  15.509 -0.5631 -0.7910  2.8649
 9568TIP3    H250196   2.727   1.132  15.531 -0.2884  0.8979 -3.4466
 9569TIP3   OH250197   2.781   4.839  15.910 -0.0561 -0.4106  0.2299
 9569TIP3    H150198   2.836   4.828  15.833 -0.6971  0.5904 -0.3997
 9569TIP3    H250199   2.841   4.840  15.984  0.6846 -0.1416 -0.3770
 9570TIP3   OH250200   3.013   1.777  12.112 -0.5151 -0.5679  0.0109
 9570TIP3    H150201   3.064   1.858  12.112 -2.4879  0.7319 -1.7835
 9570TIP3    H250202   3.049   1.726  12.185  1.9566  1.1429  0.0466
 9571TIP3   OH250203   2.839   1.943   2.921 -0.0557  0.4342 -0.2061
 9571TIP3    H150204   2.782   2.019   2.932 -0.3917  0.7414 -3.4633
 9571TIP3    H250205   2.783   1.876   2.883  0.4284 -1.2411  1.9274
 9572TIP3   OH250206   6.764   3.038  13.157  0.2394 -0.2018 -0.0527
 9572TIP3    H150207   6.687   2.991  13.126  1.0409 -2.3963  1.2377
 9572TIP3    H250208   6.835   3.010  13.099  0.6234 -0.1867  0.4042
 9573TIP3   OH250209   4.539   6.337   0.060  0.0354 -0.6271 -0.3120
 9573TIP3    H150210   4.565   6.386  -0.017  0.4864 -3.5753 -2.1228
 9573TIP3    H250211   4.605   6.358   0.126  0.3680  0.9278 -1.1264
 9574TIP3   OH250212   6.073   0.498  16.681 -0.1053 -0.3590 -0.4578
 9574TIP3    H150213   6.158   0.512  16.722  0.0457 -0.7026 -0.6472
 9574TIP3    H250214   6.085   0.525  16.590  0.2111 -1.7618 -0.8467
 9575TIP3   OH250215   0.968   6.174   4.826 -0.5732  0.5020  0.9408
 9575TIP3    H150216   1.035   6.194   4.891 -0.3029  1.8806  0.2635
 9575TIP3    H250217   0.888   6.160   4.876  0.0013 -0.1398  1.6826
 9576TIP3   OH250218   5.856   0.038   3.915 -0.1499 -0.2465 -0.1828
 9576TIP3    H150219   5.893  -0.029   3.973 -0.5963 -1.3079 -1.1158
 9576TIP3    H250220   5.787   0.079   3.968 -0.7592 -1.4155 -0.0449
 9577TIP3   OH250221   5.806   0.548   3.666 -0.5281 -0.0082  0.0318
 9577TIP3    H150222   5.775   0.463   3.635  0.1792 -0.5207  0.7247
 9577TIP3    H250223   5.795   0.545   3.761 -0.6397  0.7292  0.0445
 9578TIP3   OH250224   4.695   5.394  10.464  0.1922  0.4008  0.8116
 9578TIP3    H150225   4.730   5.313  10.427  0.0885  0.9643 -0.5512
 9578TIP3    H250226   4.753   5.413  10.538  1.5587  0.2623 -0.2093
 9579TIP3   OH250227   5.891   1.931   2.400  0.7786 -0.6881  0.3392
 9579TIP3    H150228   5.934   1.868   2.458 -0.8198 -2.0143  0.1424
 9579TIP3    H250229   5.869   2.005   2.456 -0.9619 -2.0521  1.5189
 9580TIP3   OH250230   1.054   6.704   0.949  0.3935  0.1340  0.2085
 9580TIP3    H150231   1.107   6.668   1.020  0.2492 -1.4777 -0.4793
 9580TIP3    H250232   1.095   6.670   0.869 -1.5293 -0.9394 -0.3397
 9581TIP3   OH250233   1.589   6.350  12.391  0.0212  0.5296 -0.3358
 9581TIP3    H150234   1.545   6.315  12.314  2.6325 -0.1583 -1.5892
 9581TIP3    H250235   1.585   6.445  12.380 -1.8401  0.5049  0.0075
 9582TIP3   OH250236   3.638   5.309  13.951  0.6252 -0.3285  0.5724
 9582TIP3    H150237   3.553   5.340  13.920  1.4527  1.7534  0.2863
 9582TIP3    H250238   3.629   5.214  13.955 -0.3026 -0.5236 -3.7756
 9583TIP3   OH250239   6.781   4.458   1.845 -0.5289 -0.1895  0.4354
 9583TIP3    H150240   6.753   4.383   1.899  0.5805 -2.0010 -1.4108
 9583TIP3    H250241   6.856   4.425   1.796 -0.0690  2.1472 -0.4809
 9584TIP3   OH250242   3.386   4.929  13.455 -0.3535  0.4273 -0.5911
 9584TIP3    H150243   3.373   5.018  13.489 -0.3401 -0.0726  0.7410
 9584TIP3    H250244   3.312   4.879  13.489 -0.6866  0.0465 -1.8277
 9585TIP3   OH250245   4.162   0.909  13.590 -0.1837 -0.8837 -0.3027
 9585TIP3    H150246   4.232   0.863  13.544 -0.2049 -1.0860 -0.1339
 9585TIP3    H250247   4.088   0.848  13.589 -1.0557  0.1656 -2.3794
 9586TIP3   OH250248   2.816   6.307   1.332  0.0964  0.3223 -0.0383
 9586TIP3    H150249   2.738   6.342   1.290  0.1873  1.1164  0.4474
 9586TIP3    H250250   2.818   6.347   1.419  0.9585  0.2010  0.0109
 9587TIP3   OH250251   6.343   6.800  12.324  0.4978 -0.4511  0.3339
 9587TIP3    H150252   6.421   6.844  12.356  0.9685 -0.5649 -0.6395
 9587TIP3    H250253   6.311   6.855  12.253  0.0594 -0.7402  0.3010
 9588TIP3   OH250254   0.583   5.921  14.817  0.0492 -0.8541 -0.4152
 9588TIP3    H150255   0.647   5.977  14.771 -1.3371 -0.3718 -1.7836
 9588TIP3    H250256   0.583   5.839  14.769  2.1892 -2.1673  1.6844
 9589TIP3   OH250257   4.421   1.849  14.122  0.1884 -0.2450  0.6634
 9589TIP3    H150258   4.464   1.921  14.075  0.9031 -0.0449  1.6101
 9589TIP3    H250259   4.420   1.877  14.213 -3.3430  0.4227  0.4793
 9590TIP3   OH250260   3.322   1.229   1.243  1.8145  0.4926 -0.1894
 9590TIP3    H150261   3.308   1.146   1.290  1.2370  0.6856 -0.0128
 9590TIP3    H250262   3.390   1.209   1.179  0.4353 -0.6063 -1.3487
 9591TIP3   OH250263   2.982   6.029   0.307 -0.0673  0.2704 -0.5701
 9591TIP3    H150264   3.004   5.940   0.279  2.6806  0.2864  1.3932
 9591TIP3    H250265   3.051   6.083   0.271 -1.9036  1.7219 -2.0285
 9592TIP3   OH250266   1.992   2.120   0.890  0.0453 -0.0377 -0.3733
 9592TIP3    H150267   1.982   2.046   0.951 -1.5332 -0.8686 -1.5832
 9592TIP3    H250268   2.066   2.169   0.923 -1.4949  0.1801  2.9034
 9593TIP3   OH250269   1.821   1.362   5.508 -0.2899  0.2608 -0.0363
 9593TIP3    H150270   1.726   1.364   5.495 -0.1836 -2.2082 -1.4790
 9593TIP3    H250271   1.858   1.355   5.420  1.1278 -1.0520  0.6386
 9594TIP3   OH250272   3.298   6.061  14.955  0.5600 -0.4516  0.4715
 9594TIP3    H150273   3.357   6.109  14.897  0.9688 -0.5089  0.8362
 9594TIP3    H250274   3.351   6.042  15.032 -0.3750  0.7918  1.4240
 9595TIP3   OH250275   0.965   5.024   2.682 -0.1045  0.1668  0.2435
 9595TIP3    H150276   0.873   5.034   2.656  0.1082  0.5300 -0.3818
 9595TIP3    H250277   0.972   5.070   2.765  0.2082  2.8730 -1.2128
 9596TIP3   OH250278   5.609   1.056   3.586 -0.5434  0.4029  0.6322
 9596TIP3    H150279   5.532   1.077   3.533 -0.7539  1.6113  1.4018
 9596TIP3    H250280   5.576   1.050   3.675  0.4729  2.3180  1.1649
 9597TIP3   OH250281   4.022   2.209   0.257 -1.1964  0.5207 -0.0076
 9597TIP3    H150282   4.074   2.266   0.313 -0.9779 -0.5802  0.9269
 9597TIP3    H250283   3.933   2.243   0.264 -1.0260  0.8962  0.3469
 9598TIP3   OH250284   0.661   2.799   0.929  0.3950  0.2513 -0.0546
 9598TIP3    H150285   0.610   2.880   0.935 -2.9567 -1.7215 -0.6915
 9598TIP3    H250286   0.672   2.772   1.021 -0.6888  0.1341  0.0517
 9599TIP3   OH250287   4.402   6.391   0.392  0.2982  0.6302  0.0778
 9599TIP3    H150288   4.373   6.376   0.482 -0.9745  2.1468 -0.0505
 9599TIP3    H250289   4.420   6.485   0.389  0.2576  0.5959 -1.2686
 9600TIP3   OH250290   3.148   6.201   2.808  0.4326 -0.5157  0.2746
 9600TIP3    H150291   3.184   6.225   2.894 -0.1025  0.4514  0.2378
 9600TIP3    H250292   3.056   6.227   2.813  0.2960 -0.8657 -0.4367
 9601TIP3   OH250293   2.129   6.657  12.297  0.5934  0.6423  0.3359
 9601TIP3    H150294   2.208   6.710  12.311  0.5743  0.8223 -0.2608
 9601TIP3    H250295   2.083   6.662  12.381  0.2473  2.1397  0.0843
 9602TIP3   OH250296   6.718   2.179   5.790 -0.2417  0.2626  0.8375
 9602TIP3    H150297   6.713   2.179   5.694  1.8449  1.5259  0.7054
 9602TIP3    H250298   6.692   2.267   5.815  2.7285  1.0725  1.1938
 9603TIP3   OH250299   1.856   4.205  12.979 -0.2935  0.8246 -0.2972
 9603TIP3    H150300   1.942   4.242  12.999  0.6141 -0.9523 -0.9173
 9603TIP3    H250301   1.812   4.274  12.928  0.1302  2.3839  1.3599
 9604TIP3   OH250302   2.809   0.424  16.240 -0.0934 -0.3355 -0.2032
 9604TIP3    H150303   2.768   0.372  16.309  3.3990 -0.7219  1.6542
 9604TIP3    H250304   2.807   0.367  16.163 -1.8845 -0.8111  0.1699
 9605TIP3   OH250305   3.464   4.786   2.937  0.6475 -0.3756  0.3120
 9605TIP3    H150306   3.528   4.740   2.992  1.4098 -0.3341 -0.5132
 9605TIP3    H250307   3.460   4.733   2.857  0.0923 -0.0495  0.1240
 9606TIP3   OH250308   5.167   1.488   6.010  0.2913 -0.6637  0.1432
 9606TIP3    H150309   5.255   1.459   5.984  0.2258 -0.0220 -0.8179
 9606TIP3    H250310   5.108   1.427   5.965  0.1582  0.8217 -1.7384
 9607TIP3   OH250311   1.258   1.069  12.210 -0.3717  0.4288  0.1811
 9607TIP3    H150312   1.349   1.053  12.236 -1.5773 -0.8122  3.8080
 9607TIP3    H250313   1.236   1.153  12.250 -1.5736 -0.4178  1.2999
 9608TIP3   OH250314   2.135   4.952   1.113  0.2849 -0.1066  0.3101
 9608TIP3    H150315   2.057   4.950   1.058  1.1326  2.4254 -1.0849
 9608TIP3    H250316   2.102   4.957   1.203 -1.1475  0.0024 -0.2164
 9609TIP3   OH250317   5.281   1.022  11.741 -0.4229 -0.5635 -0.1442
 9609TIP3    H150318   5.226   1.096  11.767 -1.4054 -1.2425 -0.2615
 9609TIP3    H250319   5.303   0.979  11.824 -0.3335 -0.4773 -0.1239
 9610TIP3   OH250320   4.754   3.352   2.129 -0.3444 -0.4820  0.0780
 9610TIP3    H150321   4.791   3.440   2.136  0.4105 -0.8486  0.7635
 9610TIP3    H250322   4.726   3.345   2.037  2.2923 -0.5882 -0.7638
 9611TIP3   OH250323   1.494   1.000  12.313 -0.3628 -0.3554  0.2389
 9611TIP3    H150324   1.564   1.063  12.329 -0.9680  0.3814  0.0277
 9611TIP3    H250325   1.536   0.929  12.263  0.4160 -0.3361  0.8615
 9612TIP3   OH250326   6.223   2.059  14.177 -0.2185 -0.3148 -0.3374
 9612TIP3    H150327   6.236   1.976  14.131  0.7329 -0.1485 -0.3789
 9612TIP3    H250328   6.258   2.043  14.265  0.9088  0.3456 -0.6524
 9613TIP3   OH250329   2.698   2.017  11.243 -0.3573 -0.1762  0.1879
 9613TIP3    H150330   2.723   1.934  11.284 -0.8265 -0.9132 -1.0070
 9613TIP3    H250331   2.781   2.062  11.227 -0.1921  0.4728  2.6297
 9614TIP3   OH250332   2.426   6.083   4.678  0.3012  0.2723 -0.2043
 9614TIP3    H150333   2.456   6.148   4.742 -1.0464  0.7315 -0.0285
 9614TIP3    H250334   2.497   6.077   4.614  1.7138 -0.2863  1.3945
 9615TIP3   OH250335   2.130   3.436  15.111  0.0865  0.1393 -0.2387
 9615TIP3    H150336   2.054   3.416  15.056  1.0152 -2.4931 -0.6606
 9615TIP3    H250337   2.197   3.467  15.050 -0.1003  0.8244 -0.0943
 9616TIP3   OH250338   6.551   2.523  12.588 -0.2010 -0.1626 -0.1232
 9616TIP3    H150339   6.553   2.508  12.683 -1.3426 -1.0839 -0.2382
 9616TIP3    H250340   6.472   2.575  12.574  0.2469  0.4169 -0.5125
 9617TIP3   OH250341   1.749   4.940   2.261  0.2157  0.4264 -0.2551
 9617TIP3    H150342   1.796   4.863   2.295  0.3383  0.0331 -1.3043
 9617TIP3    H250343   1.661   4.932   2.298  0.5072  0.3102  0.4324
 9618TIP3   OH250344   0.344   0.868   0.604 -0.4980 -0.2809 -0.4618
 9618TIP3    H150345   0.256   0.896   0.579 -0.2958 -1.0375 -2.0211
 9618TIP3    H250346   0.368   0.926   0.677 -2.3637 -0.2246  0.1155
 9619TIP3   OH250347   5.958   3.742   3.188 -0.3844  0.6749 -0.6847
 9619TIP3    H150348   5.932   3.729   3.280  0.6257 -0.5721 -0.5597
 9619TIP3    H250349   6.018   3.816   3.190  0.8856 -0.3448 -0.0927
 9620TIP3   OH250350   6.698   2.237   4.116  0.0338  0.1586  0.1513
 9620TIP3    H150351   6.790   2.254   4.096 -0.2808  2.0617  0.2695
 9620TIP3    H250352   6.672   2.310   4.172 -1.0644 -1.3233  1.6218
 9621TIP3   OH250353   4.583   2.700  10.800 -0.3706 -0.2796  0.0373
 9621TIP3    H150354   4.524   2.629  10.776 -0.7824 -0.0556  0.3963
 9621TIP3    H250355   4.637   2.664  10.871 -1.5253  0.2182  1.1968
 9622TIP3   OH250356   2.368   3.331  15.257  0.6153 -0.2586  0.5828
 9622TIP3    H150357   2.405   3.246  15.232  1.7834  0.7524 -1.3437
 9622TIP3    H250358   2.283   3.334  15.213 -0.6806 -1.5457  2.9343
 9623TIP3   OH250359   3.409   1.823  17.135  0.0778  0.1141  0.1402
 9623TIP3    H150360   3.472   1.752  17.126  0.5333  0.5193  0.1367
 9623TIP3    H250361   3.359   1.821  17.054  0.8835  0.5650 -0.3713
 9624TIP3   OH250362   3.030   0.441  11.161  0.3024 -0.2486 -0.3627
 9624TIP3    H150363   3.018   0.480  11.075  0.9362 -2.5527 -1.5468
 9624TIP3    H250364   2.958   0.379  11.171 -0.7837  1.2480  1.5498
 9625TIP3   OH250365   3.554   1.150  11.815  0.3198 -0.1002 -0.2525
 9625TIP3    H150366   3.501   1.077  11.782 -0.8722 -0.3217  2.1023
 9625TIP3    H250367   3.636   1.109  11.843  0.4972 -0.2198 -0.9445
 9626TIP3   OH250368   2.640   6.636  17.070 -0.2428 -0.3680 -0.3071
 9626TIP3    H150369   2.675   6.557  17.027  0.3383 -1.6201  2.3656
 9626TIP3    H250370   2.564   6.605  17.119 -1.0898  1.1009 -0.6730
 9627TIP3   OH250371   4.892   6.609   4.277 -0.1696 -0.1532 -0.1613
 9627TIP3    H150372   4.961   6.659   4.321 -0.3742  0.1679 -0.1993
 9627TIP3    H250373   4.829   6.676   4.249 -1.5154 -0.6205  1.6527
 9628TIP3   OH250374   5.427   5.164   2.018 -0.2277 -0.1983 -0.1061
 9628TIP3    H150375   5.333   5.144   2.017 -0.1368 -0.5720 -1.1856
 9628TIP3    H250376   5.444   5.192   2.109 -0.8525 -2.5192  0.7518
 9629TIP3   OH250377   1.523   6.640  15.726  0.0871 -0.7537 -0.0368
 9629TIP3    H150378   1.539   6.730  15.697  1.5316 -1.1178 -0.4386
 9629TIP3    H250379   1.491   6.649  15.816  0.2227  0.1595 -0.0712
 9630TIP3   OH250380   6.371   2.823   2.331  0.0001 -0.3701 -0.5625
 9630TIP3    H150381   6.450   2.862   2.294  1.4514  0.1452  2.9821
 9630TIP3    H250382   6.320   2.898   2.363 -1.2990 -0.8089 -1.5240
 9631TIP3   OH250383   4.664   2.070  11.377  0.0075 -0.5390 -0.1609
 9631TIP3    H150384   4.712   2.064  11.294  1.5218  2.9310  0.3749
 9631TIP3    H250385   4.712   2.011  11.436  0.5647 -0.9386 -1.0034
 9632TIP3   OH250386   1.765   0.660   3.871 -0.2700 -0.0813  0.2657
 9632TIP3    H150387   1.713   0.650   3.951 -0.1216 -0.5722  0.2991
 9632TIP3    H250388   1.709   0.627   3.801 -0.7184  1.1016  0.0504
 9633TIP3   OH250389   3.160   1.913  16.332  0.3978 -0.3047  0.8335
 9633TIP3    H150390   3.183   1.999  16.297 -0.0007 -1.0740 -1.4531
 9633TIP3    H250391   3.232   1.889  16.389  2.0651  0.1884 -1.0210
 9634TIP3   OH250392   0.299   6.108  15.505 -0.2005  0.0619 -0.3727
 9634TIP3    H150393   0.271   6.098  15.596  1.5249 -0.8216  0.0810
 9634TIP3    H250394   0.324   6.020  15.478  2.5542  0.8921 -0.6071
 9635TIP3   OH250395   2.954   4.245  15.090 -0.0172  0.1790 -0.7913
 9635TIP3    H150396   2.899   4.180  15.047  0.5165 -1.0751  0.3997
 9635TIP3    H250397   2.903   4.327  15.084 -1.4726 -0.7077 -0.7707
 9636TIP3   OH250398   5.147   6.471  14.705  0.3921  0.2911 -0.2535
 9636TIP3    H150399   5.179   6.402  14.762 -1.7873 -0.2679  0.3661
 9636TIP3    H250400   5.174   6.552  14.748 -0.8381 -0.1333  1.3995
 9637TIP3   OH250401   2.566   0.513   3.286  0.9665  0.1854 -0.3631
 9637TIP3    H150402   2.515   0.433   3.274 -1.0530  1.6881 -2.2685
 9637TIP3    H250403   2.549   0.540   3.376 -1.4073  0.4975 -0.8727
 9638TIP3   OH250404   6.732   5.200  15.275  0.3303  0.2916 -0.0662
 9638TIP3    H150405   6.733   5.293  15.250 -0.3022  0.5505  0.8509
 9638TIP3    H250406   6.641   5.173  15.263  0.3788 -0.0341  0.3242
 9639TIP3   OH250407   4.958   5.607  14.255  0.1296 -0.4707 -0.2898
 9639TIP3    H150408   4.907   5.682  14.285  2.2470  1.0033 -0.2635
 9639TIP3    H250409   4.911   5.575  14.178 -1.8749 -0.3712  0.8690
 9640TIP3   OH250410   6.454   6.578  13.549  0.3691  0.6515  0.3451
 9640TIP3    H150411   6.439   6.585  13.643  0.0481  0.4060  0.3128
 9640TIP3    H250412   6.450   6.484  13.531  2.1881  0.5597  0.3731
 9641TIP3   OH250413   3.446   5.479   3.191 -0.3544 -0.1907  0.2187
 9641TIP3    H150414   3.413   5.389   3.187  0.4236 -0.4529 -0.6238
 9641TIP3    H250415   3.461   5.503   3.099 -0.1501  0.6398  0.4666
 9642TIP3   OH250416   1.707   6.446   5.078  0.2126 -0.7413  0.0855
 9642TIP3    H150417   1.749   6.391   5.144 -0.5338  1.2170  2.2398
 9642TIP3    H250418   1.676   6.522   5.126  0.2699  1.0837 -2.6633
 9643TIP3   OH250419   6.082   5.364  17.035 -0.5311 -0.1496 -0.6325
 9643TIP3    H150420   6.155   5.424  17.053 -1.7873  1.2118 -0.0122
 9643TIP3    H250421   6.114   5.309  16.964  1.3133  0.0824 -0.0084
 9644TIP3   OH250422   3.042   2.500  11.242 -0.3678  0.2728  0.6049
 9644TIP3    H150423   2.996   2.444  11.180 -0.1359 -0.1631  0.8170
 9644TIP3    H250424   3.128   2.514  11.202 -0.5726  0.8160  0.3599
 9645TIP3   OH250425   0.313   0.366   4.282  0.1430  0.3965 -0.9458
 9645TIP3    H150426   0.343   0.442   4.331  1.2064 -1.0344  0.7262
 9645TIP3    H250427   0.218   0.364   4.293  0.1398  1.3330 -0.8200
 9646TIP3   OH250428   6.364   4.239  15.387  0.2159  0.5310 -0.2656
 9646TIP3    H150429   6.371   4.257  15.293  1.6157  1.4748 -0.0041
 9646TIP3    H250430   6.441   4.282  15.425 -1.1174  1.3909  1.4996
 9647TIP3   OH250431   1.231   2.646  15.998 -0.3239  0.4631  0.2993
 9647TIP3    H150432   1.171   2.685  16.061  0.2469 -0.5917  1.5286
 9647TIP3    H250433   1.318   2.659  16.037  0.1534  1.0322 -0.9468
 9648TIP3   OH250434   4.459   3.698  13.292 -0.3800  0.5009  0.2843
 9648TIP3    H150435   4.409   3.743  13.361  0.0668  2.5213 -0.6738
 9648TIP3    H250436   4.418   3.728  13.211 -0.2158 -1.0402 -0.3733
 9649TIP3   OH250437   0.684   1.986  17.118  0.1900 -0.0466  0.2371
 9649TIP3    H150438   0.674   2.010  17.210  0.8868  0.0925  0.2825
 9649TIP3    H250439   0.602   2.012  17.077  0.1416  0.5219  0.6898
 9650TIP3   OH250440   3.630   3.944   0.906  0.2548 -0.5361  0.5277
 9650TIP3    H150441   3.565   3.901   0.850  1.2264  0.7571 -1.6743
 9650TIP3    H250442   3.713   3.906   0.878  0.7012 -0.2765  1.4969
 9651TIP3   OH250443   3.317   5.158  16.890 -0.1767 -0.0443  0.0296
 9651TIP3    H150444   3.278   5.084  16.843 -0.1686 -0.7185  1.0501
 9651TIP3    H250445   3.260   5.169  16.967  1.0847 -0.4242  1.0314
 9652TIP3   OH250446   3.531   0.937   4.913 -0.1100 -0.2941 -0.9791
 9652TIP3    H150447   3.550   0.852   4.874  0.5134  0.8366 -3.2287
 9652TIP3    H250448   3.613   0.962   4.955 -0.1146 -0.5490 -0.8177
 9653TIP3   OH250449   3.160   5.614  11.840 -0.0573  1.0249 -0.1163
 9653TIP3    H150450   3.218   5.557  11.891  1.7757  0.5984 -2.5425
 9653TIP3    H250451   3.090   5.637  11.900  1.5363 -0.1623  2.3041
 9654TIP3   OH250452   1.845   1.304   3.726 -0.0076  0.4481  0.2584
 9654TIP3    H150453   1.818   1.214   3.710 -1.0356  1.1036 -1.8473
 9654TIP3    H250454   1.765   1.349   3.755 -0.1525  1.3234 -1.4577
 9655TIP3   OH250455   1.407   4.961   6.060  0.2463 -0.6166 -0.3331
 9655TIP3    H150456   1.317   4.935   6.075 -0.5392  1.2379 -1.6197
 9655TIP3    H250457   1.401   5.035   5.999  2.6114 -0.3405 -0.2896
 9656TIP3   OH250458   3.120   0.398   4.099  0.5211 -0.6252 -0.2351
 9656TIP3    H150459   3.214   0.391   4.116  0.5041 -1.1431 -0.3274
 9656TIP3    H250460   3.099   0.318   4.051  0.1515 -0.2146 -0.7636
 9657TIP3   OH250461   1.283   4.542   2.551 -0.1301  0.2089  0.1567
 9657TIP3    H150462   1.339   4.470   2.579 -1.1559  0.0407  1.8699
 9657TIP3    H250463   1.223   4.503   2.487  0.4081 -0.0602 -0.1819
 9658TIP3   OH250464   4.485   3.780   4.359  0.6338 -0.1317  0.3273
 9658TIP3    H150465   4.495   3.829   4.441 -0.4429  1.4762 -0.4869
 9658TIP3    H250466   4.538   3.828   4.295 -1.2904  0.6278 -0.7310
 9659TIP3   OH250467   6.455   2.374   5.258  0.2511  0.3318 -0.3127
 9659TIP3    H150468   6.447   2.464   5.226  0.3099  0.3275 -0.3393
 9659TIP3    H250469   6.450   2.319   5.179 -1.7542  0.1968 -0.1072
 9660TIP3   OH250470   1.133   1.665   2.418  0.2259  0.1514 -0.3286
 9660TIP3    H150471   1.222   1.658   2.384  0.6456 -0.9605  0.9486
 9660TIP3    H250472   1.103   1.575   2.428 -1.5158  0.5163 -1.8929
 9661TIP3   OH250473   3.335   6.811  12.137  0.3574 -0.1128 -0.3272
 9661TIP3    H150474   3.412   6.836  12.189  0.1373  0.1257 -0.1189
 9661TIP3    H250475   3.325   6.882  12.074  0.1817 -0.0474 -0.2234
 9662TIP3   OH250476   6.188   0.587   0.018 -0.3612 -0.0643 -0.3966
 9662TIP3    H150477   6.218   0.676   0.038 -3.0946  0.5874  0.9051
 9662TIP3    H250478   6.225   0.533   0.088  0.6107  0.1649 -0.7242
 9663TIP3   OH250479   3.341   5.828   0.781 -0.3462 -0.6261 -0.1315
 9663TIP3    H150480   3.379   5.866   0.702  1.1475 -0.0187  0.8495
 9663TIP3    H250481   3.321   5.903   0.836 -1.9451 -1.0142 -0.1593
 9664TIP3   OH250482   1.118   4.327  14.543 -0.1050 -0.8004  0.3441
 9664TIP3    H150483   1.053   4.396  14.559 -2.1692 -1.9607 -2.7062
 9664TIP3    H250484   1.200   4.375  14.534 -1.0345  1.0052  1.0255
 9665TIP3   OH250485   3.063   3.722  14.648  0.0913 -0.2594  0.8119
 9665TIP3    H150486   3.057   3.782  14.723 -0.2201 -2.0953  2.2836
 9665TIP3    H250487   3.156   3.706  14.638  0.1012 -0.4090  1.1297
 9666TIP3   OH250488   2.270   6.452   1.702 -0.2173 -0.2500  0.0688
 9666TIP3    H150489   2.190   6.504   1.702  0.5463  0.9584 -0.8361
 9666TIP3    H250490   2.274   6.414   1.614  1.4049  1.6210 -0.7008
 9667TIP3   OH250491   4.819   1.878   4.922 -0.1588 -0.6569 -0.3588
 9667TIP3    H150492   4.903   1.899   4.880 -0.1053  0.2221  0.1814
 9667TIP3    H250493   4.783   1.963   4.947 -0.4114 -1.1410  0.9589
 9668TIP3   OH250494   0.009   4.740  16.497  0.7150 -0.0938  0.0782
 9668TIP3    H150495  -0.030   4.683  16.563 -0.7395  1.8992  0.9746
 9668TIP3    H250496   0.097   4.758  16.531 -0.3421  1.6538  1.9671
 9669TIP3   OH250497   4.933   3.001  12.050  0.0448  0.0876 -0.1197
 9669TIP3    H150498   4.922   3.051  11.969  1.1199 -0.2517 -0.4899
 9669TIP3    H250499   4.880   2.922  12.036  2.4320 -1.3146 -1.6847
 9670TIP3   OH250500   2.024   2.712   2.221 -0.3251 -0.2490  0.0969
 9670TIP3    H150501   2.052   2.796   2.186  0.3007 -0.3435  0.3682
 9670TIP3    H250502   2.101   2.655   2.212 -0.9701 -1.0025 -0.7643
 9671TIP3   OH250503   3.421   4.881   6.328 -0.7707  0.0719 -0.0683
 9671TIP3    H150504   3.481   4.811   6.353  1.2332  1.7905  0.0935
 9671TIP3    H250505   3.439   4.952   6.390 -0.5319  1.8768 -2.1139
 9672TIP3   OH250506   2.409   3.399  17.270  0.8014 -0.0048 -0.5254
 9672TIP3    H150507   2.340   3.451  17.311  0.2532  0.5177 -2.0707
 9672TIP3    H250508   2.403   3.420  17.177  3.3076  0.3601 -0.6508
 9673TIP3   OH250509   2.972   4.105   4.752  0.0910  0.4110  0.1005
 9673TIP3    H150510   2.961   4.199   4.768  1.5634  0.7012 -0.4385
 9673TIP3    H250511   3.013   4.101   4.665 -1.6409 -0.8172 -0.6744
 9674TIP3   OH250512   4.737   5.614  15.354  0.0581 -0.7865  0.0399
 9674TIP3    H150513   4.675   5.605  15.282  0.5085 -1.8618 -0.2262
 9674TIP3    H250514   4.766   5.705  15.350 -0.1038 -0.7746 -0.9934
 9675TIP3   OH250515   5.021   0.349   3.463 -0.3811  0.3687 -0.1441
 9675TIP3    H150516   5.076   0.271   3.465  0.0903  0.7215  0.8222
 9675TIP3    H250517   4.933   0.318   3.484  0.0094  0.2615  1.3580
 9676TIP3   OH250518   0.384   5.256  12.869  1.0256 -0.0566 -0.2037
 9676TIP3    H150519   0.333   5.216  12.940 -0.0509  0.2601 -0.7932
 9676TIP3    H250520   0.456   5.194  12.854 -0.1514 -1.3905 -0.5440
 9677TIP3   OH250521   3.366   3.092  12.732 -0.4669  0.5349  0.2073
 9677TIP3    H150522   3.423   3.168  12.740 -0.1173  0.1047  2.0886
 9677TIP3    H250523   3.297   3.119  12.672  1.1910  1.3807 -1.3683
 9678TIP3   OH250524   3.885   0.252   5.854  0.5698  0.2360 -0.1863
 9678TIP3    H150525   3.948   0.296   5.911  0.8313 -1.3103  0.7324
 9678TIP3    H250526   3.850   0.180   5.907 -2.4818  1.4598 -0.4458
 9679TIP3   OH250527   5.119   5.863   0.693 -0.3859 -0.5465  0.3678
 9679TIP3    H150528   5.064   5.823   0.625  0.9604 -1.6831 -0.0782
 9679TIP3    H250529   5.209   5.842   0.667  0.3623  2.4340  0.3527
 9680TIP3   OH250530   5.268   6.721   6.143  0.4551  0.1590 -0.4094
 9680TIP3    H150531   5.246   6.775   6.219  1.3360 -0.8167  0.5650
 9680TIP3    H250532   5.352   6.756   6.112 -0.1481  0.8780 -1.2498
 9681TIP3   OH250533   5.607   2.701  15.897 -0.2459 -0.1039  0.1633
 9681TIP3    H150534   5.554   2.734  15.825  0.0941 -1.2541 -0.6351
 9681TIP3    H250535   5.689   2.673  15.855 -0.5578 -1.9977  0.8003
 9682TIP3   OH250536   0.481   2.936  11.830  0.3747  0.0883 -0.5903
 9682TIP3    H150537   0.467   3.004  11.896  0.5682  0.7324 -1.2066
 9682TIP3    H250538   0.562   2.961  11.786 -0.6215  0.6063 -2.1940
 9683TIP3   OH250539   0.373   5.953   6.218  0.4347  0.0321  0.4285
 9683TIP3    H150540   0.348   5.867   6.185 -0.6279  0.7455 -0.6682
 9683TIP3    H250541   0.465   5.943   6.244 -0.1533 -1.8726  1.8902
 9684TIP3   OH250542   4.204   1.713  17.001  0.4049  0.8893 -0.5217
 9684TIP3    H150543   4.134   1.778  16.994  0.6943  1.2295 -0.3092
 9684TIP3    H250544   4.242   1.708  16.914 -0.9599 -0.5181 -1.0500
 9685TIP3   OH250545   1.792   0.576   2.101 -0.3586 -0.1314 -0.0089
 9685TIP3    H150546   1.858   0.624   2.152  0.6157 -0.8415 -0.5971
 9685TIP3    H250547   1.760   0.640   2.037  1.1274 -0.3285 -0.9682
 9686TIP3   OH250548   2.256   2.757  16.120 -0.1385 -0.1538  0.0526
 9686TIP3    H150549   2.293   2.671  16.142 -0.3781 -0.1722  0.3945
 9686TIP3    H250550   2.317   2.820  16.157  0.7807 -0.1534 -1.4053
 9687TIP3   OH250551   6.761   2.280  10.934 -0.1040  0.1381 -0.3027
 9687TIP3    H150552   6.668   2.297  10.921 -0.6115 -0.4903  2.2144
 9687TIP3    H250553   6.790   2.239  10.852 -2.3774 -0.9945 -0.5808
 9688TIP3   OH250554   3.248   5.327   3.323  0.4034 -0.1828  0.0783
 9688TIP3    H150555   3.238   5.363   3.411 -0.0260 -0.9353  0.3437
 9688TIP3    H250556   3.213   5.395   3.265  2.2436  1.0174  0.3523
 9689TIP3   OH250557   3.131   2.612   1.854 -0.0645 -0.8109 -0.1155
 9689TIP3    H150558   3.064   2.674   1.881  0.2731 -0.3342 -0.3614
 9689TIP3    H250559   3.099   2.527   1.884 -0.9368 -0.6327 -0.5294
 9690TIP3   OH250560   2.400   2.809  11.475  0.2508  0.0552  0.4412
 9690TIP3    H150561   2.420   2.815  11.569 -1.0396  5.0837  0.5378
 9690TIP3    H250562   2.305   2.802  11.471  0.2787  0.1753 -0.5131
 9691TIP3   OH250563   3.848   5.409   5.615  0.0951  0.4105 -0.4524
 9691TIP3    H150564   3.869   5.349   5.687 -1.3846  1.7003  1.1179
 9691TIP3    H250565   3.931   5.450   5.593  0.5588  0.0304  0.5605
 9692TIP3   OH250566   1.619   1.417   3.844  0.7829 -0.3667 -0.2129
 9692TIP3    H150567   1.529   1.414   3.877  0.7342 -1.2250 -0.4176
 9692TIP3    H250568   1.634   1.510   3.824  0.0320 -0.1834  0.0648
 9693TIP3   OH250569   0.880   0.481  11.606  0.6275  0.2462 -0.4209
 9693TIP3    H150570   0.838   0.488  11.521  0.1091 -0.8824 -0.2729
 9693TIP3    H250571   0.854   0.394  11.638  2.6676 -0.2762 -0.1161
 9694TIP3   OH250572   5.472   4.572   3.828 -0.0249  0.6592 -0.2129
 9694TIP3    H150573   5.458   4.481   3.855  1.1713  0.2089 -1.0908
 9694TIP3    H250574   5.473   4.621   3.911 -1.5558  0.0137  0.2073
 9695TIP3   OH250575   6.424   1.172  13.992 -0.1969  0.3918  0.1188
 9695TIP3    H150576   6.403   1.162  14.085  0.7718 -0.3091  0.2685
 9695TIP3    H250577   6.370   1.246  13.963  0.2838  1.3133  1.4957
 9696TIP3   OH250578   6.295   1.225  14.232  0.2160  0.2607 -0.2566
 9696TIP3    H150579   6.340   1.161  14.288 -2.1754 -2.2540 -1.1133
 9696TIP3    H250580   6.208   1.233  14.271 -0.5543  0.5926 -2.0132
 9697TIP3   OH250581   1.971   4.935   2.829  0.5676 -0.3046  0.3431
 9697TIP3    H150582   2.063   4.933   2.804  0.8975  0.4031  1.4774
 9697TIP3    H250583   1.937   5.016   2.790  0.6427 -0.1117  0.6796
 9698TIP3   OH250584   3.880   5.700   6.239 -0.1050  0.3484 -0.2759
 9698TIP3    H150585   3.873   5.605   6.250  0.7073  0.4001  0.6818
 9698TIP3    H250586   3.860   5.736   6.325 -1.5756  1.1097 -0.9190
 9699TIP3   OH250587   2.665   2.701   0.089  0.5324  0.4035  0.2574
 9699TIP3    H150588   2.716   2.620   0.101  1.0218  0.6180 -0.3267
 9699TIP3    H250589   2.716   2.768   0.133  0.6367  0.5734 -0.1177
 9700TIP3   OH250590   2.401   2.295   1.336 -0.3950  0.2416  0.1095
 9700TIP3    H150591   2.388   2.333   1.250  1.0782 -1.0382 -0.7082
 9700TIP3    H250592   2.455   2.358   1.383 -1.1381  0.9051  0.0702
 9701TIP3   OH250593   0.892   5.427  16.558  0.3084  0.5458  0.5984
 9701TIP3    H150594   0.924   5.337  16.558 -1.3563 -0.0865  2.1735
 9701TIP3    H250595   0.849   5.438  16.473  0.8766  0.0056  0.2394
 9702TIP3   OH250596   2.477   1.234   4.576 -0.7415  0.1928 -0.5092
 9702TIP3    H150597   2.464   1.251   4.669 -0.2242 -1.4731 -0.1078
 9702TIP3    H250598   2.520   1.148   4.573 -0.4318  0.3790 -2.2652
 9703TIP3   OH250599   3.661   1.081  10.952 -0.5765  0.0422  0.5366
 9703TIP3    H150600   3.655   1.143  10.880 -1.0594  1.7798  2.0196
 9703TIP3    H250601   3.573   1.044  10.959 -0.2605 -0.9058 -0.4184
 9704TIP3   OH250602   1.422   4.721   5.427 -0.1782 -0.6608 -0.1291
 9704TIP3    H150603   1.415   4.646   5.485 -0.4575 -1.3016 -0.9730
 9704TIP3    H250604   1.513   4.720   5.398  0.2563  0.3282  1.1682
 9705TIP3   OH250605   2.796   2.848  13.998 -0.0135 -0.1162  0.0834
 9705TIP3    H150606   2.870   2.909  14.007 -0.9472  0.9614  0.6468
 9705TIP3    H250607   2.813   2.802  13.916  1.3909 -0.0330  0.3041
 9706TIP3   OH250608   4.943   5.971  11.107 -0.1579 -0.6596  0.4960
 9706TIP3    H150609   4.931   6.044  11.168  0.5598  0.1842 -0.3398
 9706TIP3    H250610   4.869   5.977  11.047  0.6485  0.2627 -0.4269
 9707TIP3   OH250611   0.892   0.091  13.256  0.4431 -0.3240  0.4669
 9707TIP3    H150612   0.859   0.017  13.205 -0.4969 -0.8598  1.8371
 9707TIP3    H250613   0.984   0.068  13.273  0.1786 -1.1483  0.8174
 9708TIP3   OH250614   5.393   0.539  16.658 -0.4271  0.3316  0.5136
 9708TIP3    H150615   5.423   0.584  16.579 -0.3635 -0.2217  0.2229
 9708TIP3    H250616   5.361   0.454  16.627 -0.1304 -0.0052  1.1193
 9709TIP3   OH250617   3.064   3.458  16.109  0.0499  0.0682 -0.1761
 9709TIP3    H150618   3.008   3.380  16.116  0.2272 -0.0580 -0.1758
 9709TIP3    H250619   3.085   3.481  16.199  0.0019  0.1136 -0.1782
 9710TIP3   OH250620   6.705   0.035  16.606  0.1228 -0.1493  0.4022
 9710TIP3    H150621   6.770   0.029  16.535 -0.6958  0.2863 -0.4030
 9710TIP3    H250622   6.705   0.127  16.630  0.2522 -0.2623  0.8463
 9711TIP3   OH250623   3.076   5.906  13.738  0.3131 -0.7107  0.3237
 9711TIP3    H150624   3.117   5.871  13.659 -0.1279 -0.8857  0.1681
 9711TIP3    H250625   3.079   5.833  13.800 -1.4000 -1.3296 -0.2911
 9712TIP3   OH250626   5.927   3.313  12.005  0.5299  0.5267 -0.4172
 9712TIP3    H150627   5.832   3.307  12.019  0.3151  2.4610 -0.8164
 9712TIP3    H250628   5.937   3.317  11.909  1.1487 -1.3691 -0.4460
 9713TIP3   OH250629   1.662   5.479  14.345 -0.2647  0.1216  0.0680
 9713TIP3    H150630   1.696   5.400  14.389 -0.3217  0.0299 -0.0523
 9713TIP3    H250631   1.739   5.536  14.336 -0.2986  0.2296  0.4814
 9714TIP3   OH250632   2.667   5.652   5.931  0.1601 -0.0978 -0.2562
 9714TIP3    H150633   2.612   5.676   6.005 -0.3172  2.2959 -1.3412
 9714TIP3    H250634   2.749   5.623   5.971 -0.3751  0.3839  1.2346
 9715TIP3   OH250635   3.188   0.773  14.708  0.1209  0.4169 -0.2199
 9715TIP3    H150636   3.113   0.789  14.652 -1.5574 -1.2274  1.4922
 9715TIP3    H250637   3.209   0.680  14.695 -0.3297 -0.0068  1.8696
 9716TIP3   OH250638   1.323   1.573  16.774 -0.5135  0.4789  0.1773
 9716TIP3    H150639   1.320   1.522  16.855 -0.6933  1.7382  0.9753
 9716TIP3    H250640   1.329   1.664  16.803 -0.5585  0.9391 -1.2246
 9717TIP3   OH250641   2.534   1.022   3.189 -0.3159  0.9334 -0.0386
 9717TIP3    H150642   2.487   1.052   3.267 -0.6787  3.3428 -1.1116
 9717TIP3    H250643   2.593   1.094   3.168  3.2570 -1.6543  0.7270
 9718TIP3   OH250644   2.462   0.077  16.905 -0.6185 -0.5611 -0.9559
 9718TIP3    H150645   2.478   0.093  16.998 -1.6491  0.7863 -0.9928
 9718TIP3    H250646   2.541   0.032  16.874 -0.0777 -0.6086  0.4605
 9719TIP3   OH250647   6.386   0.828  16.172 -0.7241  0.1405 -1.0842
 9719TIP3    H150648   6.296   0.850  16.197 -0.7546 -1.2250  0.1201
 9719TIP3    H250649   6.401   0.742  16.212  1.1217  0.3588 -1.2804
 9720TIP3   OH250650   6.228   1.139  11.993  0.2289  0.1873 -0.1549
 9720TIP3    H150651   6.211   1.081  12.067  1.6791 -0.5107 -0.3422
 9720TIP3    H250652   6.227   1.081  11.917  3.1892  0.1068 -0.1897
 9721TIP3   OH250653   6.732   2.922  11.910  0.0768 -0.1271  0.1902
 9721TIP3    H150654   6.779   3.005  11.904  0.6525 -0.4218  0.6274
 9721TIP3    H250655   6.778   2.873  11.977  0.3975 -1.2304 -0.8271
 9722TIP3   OH250656   1.151   5.395  12.111  0.9595 -0.5284  0.2360
 9722TIP3    H150657   1.073   5.343  12.130 -0.4691  0.6598 -2.0745
 9722TIP3    H250658   1.223   5.333  12.112 -0.5039 -2.2926 -1.0033
 9723TIP3   OH250659   3.174   5.313  16.383 -0.0381  0.0564  0.0647
 9723TIP3    H150660   3.211   5.247  16.324 -0.3812  0.0288 -0.1232
 9723TIP3    H250661   3.142   5.382  16.324 -0.4583 -0.0095  0.2158
 9724TIP3   OH250662   4.925   4.941  16.889  0.1533 -0.0493 -0.5469
 9724TIP3    H150663   4.995   4.891  16.848 -0.5418 -2.3258  1.0056
 9724TIP3    H250664   4.860   4.952  16.819  0.6120 -0.7165 -1.0876
 9725TIP3   OH250665   2.249   4.631   0.059  0.3841  0.6308  0.1890
 9725TIP3    H150666   2.193   4.708   0.069 -0.2840  0.0345  1.2412
 9725TIP3    H250667   2.197   4.559   0.096  0.5688 -0.5184 -1.7388
 9726TIP3   OH250668   3.507   0.095  16.123  0.3215  0.6964  0.1403
 9726TIP3    H150669   3.420   0.077  16.088  0.2791  2.0863 -0.5258
 9726TIP3    H250670   3.512   0.043  16.204 -0.9691  0.3015 -0.0193
 9727TIP3   OH250671   5.305   5.316  17.131 -0.3813  0.4984  0.1117
 9727TIP3    H150672   5.330   5.277  17.215  2.6839 -0.6995 -1.2468
 9727TIP3    H250673   5.384   5.362  17.102 -1.3542  0.8341 -2.1244
 9728TIP3   OH250674   0.601   2.238  11.203  0.2505 -0.4233 -0.8889
 9728TIP3    H150675   0.675   2.269  11.151  0.2370  0.0156 -0.6545
 9728TIP3    H250676   0.623   2.147  11.225  0.6093 -0.3689 -1.0234
 9729TIP3   OH250677   2.707   2.431  13.966 -0.2952  0.0772  0.5132
 9729TIP3    H150678   2.658   2.512  13.954 -0.5600 -0.3860 -1.7926
 9729TIP3    H250679   2.792   2.448  13.926  0.0776 -0.3677  1.1165
 9730TIP3   OH250680   6.550   5.458   0.461  0.4040 -0.5265 -0.0068
 9730TIP3    H150681   6.641   5.428   0.461  0.8369  0.7760  0.0423
 9730TIP3    H250682   6.511   5.417   0.538  0.9281 -1.1368 -0.0643
 9731TIP3   OH250683   1.833   3.582  11.887  0.1541  0.7458  0.0492
 9731TIP3    H150684   1.820   3.555  11.978 -0.4538  1.3608  0.1455
 9731TIP3    H250685   1.845   3.500  11.839 -1.2706  0.3178  0.4073
 9732TIP3   OH250686   2.519   3.944   5.891  0.1652  0.5191  0.4688
 9732TIP3    H150687   2.609   3.950   5.922  0.8799 -0.3912 -1.3296
 9732TIP3    H250688   2.476   3.886   5.953  1.8162 -2.0715 -0.7322
 9733TIP3   OH250689   0.093   3.644   2.233 -0.1103  0.5016 -0.1593
 9733TIP3    H150690   0.007   3.676   2.206  0.5657  1.1933 -1.5379
 9733TIP3    H250691   0.137   3.721   2.270 -0.3271 -0.0036  1.1717
 9734TIP3   OH250692   4.135   2.350  13.550 -1.0071  0.0871  0.1182
 9734TIP3    H150693   4.144   2.312  13.637  1.6839 -0.6655 -0.4249
 9734TIP3    H250694   4.057   2.405  13.555 -1.0886 -0.2212  2.8919
 9735TIP3   OH250695   2.828   1.378  12.448 -0.3017  0.0693  0.0231
 9735TIP3    H150696   2.842   1.469  12.473  0.5441 -0.5831  2.0945
 9735TIP3    H250697   2.913   1.336  12.461 -1.2128 -1.4681  1.2705
 9736TIP3   OH250698   1.777   4.138   1.856 -0.3973 -0.4365 -0.3181
 9736TIP3    H150699   1.699   4.192   1.842  0.6778  1.0809 -0.5502
 9736TIP3    H250700   1.802   4.109   1.768 -1.7771 -2.5401 -0.0814
 9737TIP3   OH250701   3.010   2.923  15.543 -0.1459  0.1443  0.0707
 9737TIP3    H150702   3.059   2.841  15.538  0.6764  0.6155  0.3114
 9737TIP3    H250703   2.928   2.905  15.496 -0.1662 -0.9446  0.5094
 9738TIP3   OH250704   3.703   0.443  12.899 -0.2328 -0.0739  0.0768
 9738TIP3    H150705   3.611   0.425  12.919  0.1099 -0.3599  1.4071
 9738TIP3    H250706   3.752   0.408  12.973  0.9729 -0.0606 -0.6927
 9739TIP3   OH250707   5.332   3.441   1.878 -0.0133 -0.4348 -0.7445
 9739TIP3    H150708   5.376   3.357   1.870 -0.3828 -0.5376 -1.9008
 9739TIP3    H250709   5.277   3.446   1.799 -0.3323  0.6818 -0.4566
 9740TIP3   OH250710   6.524   4.430  16.106  0.0682 -0.4090  0.0157
 9740TIP3    H150711   6.565   4.517  16.097 -0.8832  0.1228  0.7709
 9740TIP3    H250712   6.558   4.397  16.189  0.8848 -1.0102 -0.5553
 9741TIP3   OH250713   3.362   0.089   1.045 -0.1637 -0.0154 -0.0136
 9741TIP3    H150714   3.325   0.000   1.044 -2.4771  0.8852  0.8357
 9741TIP3    H250715   3.288   0.145   1.068  1.0321  2.2653 -1.5470
 9742TIP3   OH250716   4.324   6.102   6.277  0.3484 -0.3497 -0.1813
 9742TIP3    H150717   4.350   6.127   6.365 -2.4137  0.6737  0.3942
 9742TIP3    H250718   4.296   6.011   6.285 -3.0671  0.6758  0.8165
 9743TIP3   OH250719   5.747   0.921   5.672 -0.0251 -0.6279 -0.4896
 9743TIP3    H150720   5.723   0.993   5.730 -2.1654 -0.6954 -1.2417
 9743TIP3    H250721   5.836   0.941   5.643 -1.1141  2.5377 -1.8864
 9744TIP3   OH250722   5.052   1.319  14.071  0.8515 -0.2650 -0.1623
 9744TIP3    H150723   5.007   1.380  14.130 -0.6778 -1.3070 -0.2004
 9744TIP3    H250724   5.105   1.374  14.014  0.5555  0.9228  0.7042
 9745TIP3   OH250725   5.518   3.392   5.731 -0.2769 -0.8886 -0.0172
 9745TIP3    H150726   5.515   3.487   5.743  0.9690 -0.6406 -1.4732
 9745TIP3    H250727   5.533   3.357   5.819 -3.0499  0.1040  0.8959
 9746TIP3   OH250728   2.450   1.578   5.274 -0.5323 -0.2827 -0.1600
 9746TIP3    H150729   2.370   1.612   5.234  0.3583 -0.8927 -2.6092
 9746TIP3    H250730   2.434   1.484   5.282  0.8515 -0.8543 -3.1598
 9747TIP3   OH250731   2.650   1.723  16.176  0.2409 -0.5972 -0.3408
 9747TIP3    H150732   2.569   1.678  16.201 -0.0604 -0.7315 -1.4906
 9747TIP3    H250733   2.706   1.653  16.141  0.5820 -0.4015 -0.1814
 9748TIP3   OH250734   1.005   4.782  16.614 -0.1431 -0.0426  0.2180
 9748TIP3    H150735   0.963   4.847  16.557  2.2096  0.0051 -1.5327
 9748TIP3    H250736   0.963   4.794  16.699 -0.3426  3.2497 -0.2803
 9749TIP3   OH250737   4.049   5.463  13.015  0.2416 -0.5458  0.0270
 9749TIP3    H150738   4.001   5.428  13.090 -0.8987 -0.5469 -0.6820
 9749TIP3    H250739   4.078   5.386  12.966  1.2736 -0.5490  0.6439
 9750TIP3   OH250740   3.233   3.447   6.072  0.0964  0.4899  0.3041
 9750TIP3    H150741   3.184   3.381   6.121 -0.8751  1.8545  1.2021
 9750TIP3    H250742   3.324   3.419   6.079 -0.0484  0.5476  2.7239
 9751TIP3   OH250743   1.151   4.132   4.949  0.1783 -0.5509  0.0098
 9751TIP3    H150744   1.162   4.213   4.900  1.3654 -0.7801 -0.1028
 9751TIP3    H250745   1.233   4.084   4.937 -0.3494 -1.5809  0.4231
 9752TIP3   OH250746   2.592   2.548  11.688  0.1457 -0.0041  0.4217
 9752TIP3    H150747   2.609   2.479  11.624 -0.2234  0.6343 -0.3728
 9752TIP3    H250748   2.662   2.538  11.753  0.1899 -1.0113  0.2270
 9753TIP3   OH250749   6.023   2.663   3.020  0.3200  0.2970  0.0857
 9753TIP3    H150750   5.956   2.654   2.953  1.1142 -1.0273 -0.5417
 9753TIP3    H250751   5.976   2.699   3.096 -1.0561 -0.4598 -0.3873
 9754TIP3   OH250752   2.832   6.643  11.708 -0.7692 -0.1082 -0.2579
 9754TIP3    H150753   2.756   6.595  11.673 -0.5030 -1.8177  1.3912
 9754TIP3    H250754   2.803   6.673  11.794 -0.2294  0.9389 -0.4406
 9755TIP3   OH250755   5.379   2.419  13.508 -0.3906  0.2432  0.2232
 9755TIP3    H150756   5.361   2.411  13.414 -1.0812 -2.1708  0.5257
 9755TIP3    H250757   5.443   2.490  13.514  0.0685  0.0828 -2.1416
 9756TIP3   OH250758   0.485   2.574   1.276  0.3474  0.5179  0.1199
 9756TIP3    H150759   0.552   2.588   1.343 -1.1297  0.1339  1.7194
 9756TIP3    H250760   0.420   2.641   1.293 -0.6395 -0.3598 -0.1547
 9757TIP3   OH250761   2.100   1.461   4.396  0.2208 -0.4214  0.2369
 9757TIP3    H150762   2.182   1.413   4.396  0.4388 -0.0944 -1.7678
 9757TIP3    H250763   2.121   1.544   4.353 -1.2385 -0.4886 -0.6376
 9758TIP3   OH250764   4.812   5.307  13.812  0.4285  0.4421  0.5168
 9758TIP3    H150765   4.807   5.331  13.904  1.5679  0.8204  0.4991
 9758TIP3    H250766   4.864   5.227  13.811 -2.2091 -1.3139  0.4510
 9759TIP3   OH250767   2.515   5.977   4.103 -0.0571  0.9591 -0.1887
 9759TIP3    H150768   2.536   6.069   4.090  0.0840  1.0207  0.4521
 9759TIP3    H250769   2.459   5.976   4.181  2.6491  0.1868  1.8144
 9760TIP3   OH250770   6.767   4.026   2.158 -0.1088 -0.0539  0.5361
 9760TIP3    H150771   6.703   3.968   2.115 -3.0019  2.1341  1.7231
 9760TIP3    H250772   6.785   3.983   2.241  0.8988 -1.2628 -0.2834
 9761TIP3   OH250773   2.366   1.568  16.849  0.2788 -0.6293  0.3835
 9761TIP3    H150774   2.426   1.550  16.777  0.8184  1.0435  0.3758
 9761TIP3    H250775   2.387   1.658  16.875 -1.8817 -0.1902  0.7099
 9762TIP3   OH250776   5.459   1.226  14.896  0.2981 -0.7817  1.1040
 9762TIP3    H150777   5.535   1.168  14.907 -0.2789 -1.8119 -0.2477
 9762TIP3    H250778   5.496   1.306  14.859  0.6507 -1.5611 -0.2941
 9763TIP3   OH250779   0.419   2.616   2.686 -0.0226 -0.5123  0.1613
 9763TIP3    H150780   0.345   2.670   2.713  0.7167  1.0574 -0.9157
 9763TIP3    H250781   0.446   2.651   2.601  2.6937 -0.3179  1.0484
 9764TIP3   OH250782   4.776   5.805   0.225 -0.8625  0.2143 -0.1532
 9764TIP3    H150783   4.706   5.854   0.182 -1.2776 -0.5872 -0.4019
 9764TIP3    H250784   4.811   5.748   0.157  0.3820  0.9775 -0.1641
 9765TIP3   OH250785   3.819   1.485  14.491 -0.3277 -0.3140  0.0434
 9765TIP3    H150786   3.780   1.398  14.499  0.3256 -0.6519 -0.3628
 9765TIP3    H250787   3.868   1.481  14.409 -1.1341  0.7694 -0.4961
 9766TIP3   OH250788   5.608   2.594   3.099 -0.0461 -0.3852  0.6823
 9766TIP3    H150789   5.591   2.675   3.052  1.6464 -1.0675 -1.1892
 9766TIP3    H250790   5.696   2.606   3.136 -0.7313 -0.4716  2.3729
 9767TIP3   OH250791   6.238   6.634  15.287 -0.1114 -0.0748 -0.6352
 9767TIP3    H150792   6.181   6.595  15.221  0.3853 -0.0051 -1.1151
 9767TIP3    H250793   6.296   6.563  15.314 -1.3862 -0.5495  0.9544
 9768TIP3   OH250794   4.780   5.727  16.380 -0.0035 -0.3999  0.2946
 9768TIP3    H150795   4.717   5.798  16.389  0.2925 -0.2499  1.3109
 9768TIP3    H250796   4.770   5.696  16.290  0.5522  1.5629 -0.4625
 9769TIP3   OH250797   5.010   0.444  10.505  0.0786  0.0825  0.1597
 9769TIP3    H150798   5.085   0.429  10.562 -0.4075  1.3575  1.1625
 9769TIP3    H250799   5.006   0.366  10.449  1.1478 -0.7372  1.2103
 9770TIP3   OH250800   0.732   4.648   1.504 -0.1039 -0.1236 -0.2548
 9770TIP3    H150801   0.732   4.559   1.468 -2.4297 -0.5131  0.5874
 9770TIP3    H250802   0.809   4.651   1.560 -1.7888 -2.8009  2.3780
 9771TIP3   OH250803   4.412   3.505   4.445  0.2024  0.4592 -0.0668
 9771TIP3    H150804   4.455   3.585   4.414  0.0122  1.1516  1.4212
 9771TIP3    H250805   4.326   3.534   4.475 -0.5404 -0.5995 -1.1180
 9772TIP3   OH250806   4.848   2.455   1.458 -0.1190 -0.3577 -0.6221
 9772TIP3    H150807   4.937   2.490   1.447  0.2215 -1.8601 -2.8356
 9772TIP3    H250808   4.858   2.384   1.522  0.0025  0.4426  0.2601
 9773TIP3   OH250809   3.694   6.389   5.486 -0.0607  0.5274 -0.3377
 9773TIP3    H150810   3.694   6.484   5.496 -2.7834  0.6070 -0.5744
 9773TIP3    H250811   3.679   6.355   5.574  0.3213  0.3457 -0.3434
 9774TIP3   OH250812   3.974   0.269   2.574  0.0587  0.0400  0.2858
 9774TIP3    H150813   3.938   0.241   2.659  0.6240 -1.6244 -0.0096
 9774TIP3    H250814   3.955   0.197   2.515 -1.7021  1.8532 -1.4123
 9775TIP3   OH250815   1.171   6.071  11.491 -1.2575 -0.1364  0.2557
 9775TIP3    H150816   1.099   6.126  11.459 -0.9900  0.3211  0.4442
 9775TIP3    H250817   1.170   6.082  11.586 -0.1516  0.8356  0.1598
 9776TIP3   OH250818   5.428   2.749   5.419  0.0421  0.2153  0.1099
 9776TIP3    H150819   5.443   2.665   5.462 -3.1480 -0.1671  0.5697
 9776TIP3    H250820   5.397   2.726   5.331  0.4925  0.9310 -0.2401
 9777TIP3   OH250821   2.885   4.634  12.275 -0.0087 -0.1374 -0.1774
 9777TIP3    H150822   2.858   4.676  12.193  0.7938  0.8210  0.0413
 9777TIP3    H250823   2.823   4.666  12.340 -0.2538 -0.3916 -0.2862
 9778TIP3   OH250824   1.386   5.306   3.868 -0.5407  0.5210  0.0034
 9778TIP3    H150825   1.432   5.268   3.943 -0.5172  0.0876 -0.2298
 9778TIP3    H250826   1.404   5.399   3.874 -1.0255  0.5680  0.8759
 9779TIP3   OH250827   4.459   3.692  17.225 -0.0732  0.0024  0.0247
 9779TIP3    H150828   4.381   3.659  17.181 -0.1962  1.2993 -0.7560
 9779TIP3    H250829   4.427   3.760  17.284  0.4988  0.8270 -0.5977
 9780TIP3   OH250830   1.468   1.551   3.317  0.1362 -1.0184 -0.0809
 9780TIP3    H150831   1.507   1.474   3.357 -0.6152 -0.2911  2.1079
 9780TIP3    H250832   1.461   1.614   3.388  0.1595  0.8583 -1.7016
 9781TIP3   OH250833   1.104   1.603  12.387 -0.4344 -0.5043 -0.2478
 9781TIP3    H150834   1.121   1.678  12.329  1.4943 -0.1480  0.7596
 9781TIP3    H250835   1.091   1.642  12.473 -0.4710 -1.2528  0.0870
 9782TIP3   OH250836   2.124   5.177  12.963 -0.2294 -0.3537  0.1587
 9782TIP3    H150837   2.053   5.229  13.000  0.1155 -0.3753  0.8594
 9782TIP3    H250838   2.172   5.238  12.907  0.0435  0.0323  0.8052
 9783TIP3   OH250839   1.864   5.139  13.221  0.0798  0.0060  0.0072
 9783TIP3    H150840   1.910   5.133  13.304  0.7834 -0.7728 -0.4262
 9783TIP3    H250841   1.815   5.057  13.214  0.0078  0.0751 -0.3319
 9784TIP3   OH250842   3.849   0.918  12.739 -0.2557 -0.2399 -0.0122
 9784TIP3    H150843   3.850   0.822  12.739  1.4527 -0.2493 -1.3488
 9784TIP3    H250844   3.924   0.942  12.794  0.1023  0.3142 -0.7453
 9785TIP3   OH250845   1.361   5.014  15.738  0.2510  0.1618 -0.0539
 9785TIP3    H150846   1.352   4.948  15.669  2.2758 -0.8737  0.6180
 9785TIP3    H250847   1.437   5.066  15.711  0.0134  0.8246  0.5484
 9786TIP3   OH250848   0.080   0.938   0.521 -0.7242  0.0196  0.4050
 9786TIP3    H150849   0.007   0.882   0.498 -1.5162  0.8916  0.7825
 9786TIP3    H250850   0.092   0.995   0.445 -0.3739 -0.1633  0.3156
 9787TIP3   OH250851   0.099   2.853  15.627 -0.7157 -0.1044 -0.6038
 9787TIP3    H150852   0.148   2.895  15.697 -1.2792 -1.2670  0.5112
 9787TIP3    H250853   0.158   2.786  15.593 -0.3630  0.5964 -1.4085
 9788TIP3   OH250854   4.070   4.571  15.494 -0.5582  0.8624  0.0381
 9788TIP3    H150855   4.145   4.586  15.551  0.2708 -1.8645 -0.2680
 9788TIP3    H250856   3.995   4.562  15.554 -0.4622  2.3496  0.4057
 9789TIP3   OH250857   2.280   0.128  15.734 -0.1067 -0.6168  0.1465
 9789TIP3    H150858   2.372   0.106  15.745 -0.1790 -0.0022  2.0929
 9789TIP3    H250859   2.234   0.069  15.794 -0.9752 -0.8586 -0.7504
 9790TIP3   OH250860   1.299   4.966  16.510  0.0817 -0.0457  0.4748
 9790TIP3    H150861   1.290   5.012  16.426  1.6018 -0.4543  0.0783
 9790TIP3    H250862   1.220   4.911  16.515 -1.1799  1.7106  0.4224
 9791TIP3   OH250863   2.685   0.355   2.475  0.0667 -0.0369 -0.1543
 9791TIP3    H150864   2.647   0.280   2.429  0.3442 -0.1852 -0.1466
 9791TIP3    H250865   2.746   0.393   2.411 -2.4535  2.1551 -1.3720
 9792TIP3   OH250866   4.128   6.745  10.591  0.2824 -0.8389 -0.3149
 9792TIP3    H150867   4.171   6.718  10.510  0.2648 -0.0384 -0.5984
 9792TIP3    H250868   4.041   6.774  10.563  0.1515 -0.8941  0.0374
 9793TIP3   OH250869   2.342   6.548  11.309 -0.6189 -0.5087 -0.4227
 9793TIP3    H150870   2.326   6.594  11.227 -1.6015  0.0334  0.0692
 9793TIP3    H250871   2.386   6.612  11.365 -0.7116 -0.6130 -0.2285
 9794TIP3   OH250872   3.468   0.953  17.221  0.1153  0.0519 -0.0580
 9794TIP3    H150873   3.528   1.025  17.238 -0.4280  0.6705 -0.7467
 9794TIP3    H250874   3.409   0.952  17.296  0.6981 -0.2670  0.3977
 9795TIP3   OH250875   0.608   4.732   5.378  0.7615 -0.2149  0.4531
 9795TIP3    H150876   0.679   4.761   5.435  0.9326 -1.7235  1.0421
 9795TIP3    H250877   0.530   4.740   5.432  0.7370 -0.3303  0.4344
 9796TIP3   OH250878   4.600   6.368  11.735  0.1788  0.2059 -0.2618
 9796TIP3    H150879   4.586   6.289  11.683  1.8955 -0.6959  0.6198
 9796TIP3    H250880   4.536   6.430  11.701  0.6486 -0.6558 -2.8228
 9797TIP3   OH250881   6.018   2.291   4.197 -0.1657 -0.4072  0.9463
 9797TIP3    H150882   5.966   2.371   4.197 -0.9998 -0.9297  2.1394
 9797TIP3    H250883   6.008   2.255   4.109 -0.6193  0.2561  0.7272
 9798TIP3   OH250884   6.039   1.735  13.121  0.9522  0.3023 -0.3913
 9798TIP3    H150885   5.995   1.819  13.107  0.0462 -0.1066  0.0031
 9798TIP3    H250886   6.026   1.687  13.039 -1.6530 -0.8585  0.6401
 9799TIP3   OH250887   2.652   0.418  15.270 -0.0144  0.2113  0.0348
 9799TIP3    H150888   2.639   0.373  15.353  0.0251  2.1456  1.1092
 9799TIP3    H250889   2.680   0.349  15.210  1.3889 -0.9603  1.9877
 9800TIP3   OH250890   2.065   4.829   6.338  0.3871  0.2346 -0.1863
 9800TIP3    H150891   2.104   4.870   6.415 -1.5352  1.4140  0.1892
 9800TIP3    H250892   2.038   4.742   6.368 -1.9209  1.3005  1.0164
 9801TIP3   OH250893   2.647   2.199  12.441  0.1318 -0.2066 -0.2334
 9801TIP3    H150894   2.587   2.234  12.375 -0.8284 -0.7749  0.3332
 9801TIP3    H250895   2.718   2.160  12.390 -0.2045  0.0651 -0.9189
 9802TIP3   OH250896   3.739   1.736   3.089  0.4277 -0.0716 -0.5734
 9802TIP3    H150897   3.697   1.673   3.147  1.2705  0.8193  1.0180
 9802TIP3    H250898   3.668   1.770   3.034 -0.2602 -1.3653 -0.5021
 9803TIP3   OH250899   4.706   1.261  11.283 -0.1825  0.0356 -0.2745
 9803TIP3    H150900   4.776   1.310  11.326 -0.8291  0.4512  0.3159
 9803TIP3    H250901   4.730   1.169  11.295  0.6050  0.1877 -0.6610
 9804TIP3   OH250902   6.747   2.223   3.311 -0.0435  0.2373  0.4892
 9804TIP3    H150903   6.732   2.153   3.248  0.5358  0.2027  0.3910
 9804TIP3    H250904   6.679   2.210   3.377 -0.0851 -0.2800  0.3512
 9805TIP3   OH250905   4.723   3.531  15.215  0.2634  0.3417 -0.4114
 9805TIP3    H150906   4.664   3.581  15.158  0.8605 -0.8140 -2.1065
 9805TIP3    H250907   4.810   3.545  15.177  0.5869 -1.0196 -0.2132
 9806TIP3   OH250908   6.148   1.446  16.437 -0.0503 -0.1268 -0.1667
 9806TIP3    H150909   6.156   1.376  16.501 -1.3066 -1.7478 -1.7404
 9806TIP3    H250910   6.238   1.468  16.413  0.4863  1.3066  2.9444
 9807TIP3   OH250911   3.311   3.890  15.917 -0.2353  0.0406 -0.3893
 9807TIP3    H150912   3.376   3.829  15.883  1.1693  0.6699  1.1046
 9807TIP3    H250913   3.320   3.968  15.862  0.4900  0.2323 -0.0116
 9808TIP3   OH250914   1.101   6.687   4.781  0.1720 -0.2930  0.5670
 9808TIP3    H150915   1.044   6.741   4.725 -0.8601  0.1921  2.0420
 9808TIP3    H250916   1.042   6.622   4.819  0.7356 -0.2578  1.5329
 9809TIP3   OH250917   4.825   5.037   1.363 -0.2936 -0.2335  0.5454
 9809TIP3    H150918   4.771   5.096   1.310 -0.1751  0.7185  1.4613
 9809TIP3    H250919   4.761   4.989   1.417 -0.3538 -0.5643  0.1831
 9810TIP3   OH250920   5.438   3.332   2.920  0.4288  0.2445  0.3669
 9810TIP3    H150921   5.366   3.380   2.960  0.8647  0.3324  1.0703
 9810TIP3    H250922   5.403   3.299   2.838 -0.1835  0.9098  0.3577
 9811TIP3   OH250923   6.616   0.756  15.492 -0.4204  0.1155  0.6754
 9811TIP3    H150924   6.687   0.693  15.504 -0.2184  0.0406 -0.8409
 9811TIP3    H250925   6.587   0.777  15.581  0.3900 -1.1118  1.2400
 9812TIP3   OH250926   1.499   5.773   2.065 -0.1012  0.7371  0.3713
 9812TIP3    H150927   1.538   5.769   1.977  1.0380  3.4356  0.7202
 9812TIP3    H250928   1.524   5.690   2.106  2.3219  0.9428 -0.6448
 9813TIP3   OH250929   4.345   3.285   2.721 -0.2226 -0.3273  0.0953
 9813TIP3    H150930   4.320   3.213   2.665  1.0787  0.9593 -2.2101
 9813TIP3    H250931   4.438   3.272   2.737  0.1674  1.1318 -0.8506
 9814TIP3   OH250932   1.212   1.562  14.981 -0.3945 -0.1530  0.0779
 9814TIP3    H150933   1.141   1.548  14.919 -1.2070 -0.2527  1.0233
 9814TIP3    H250934   1.286   1.591  14.927 -1.2878  0.3974 -0.8517
 9815TIP3   OH250935   6.463   3.964   0.260 -0.0657 -0.2158 -0.2178
 9815TIP3    H150936   6.466   3.974   0.165 -0.4916 -0.2167 -0.2310
 9815TIP3    H250937   6.376   3.931   0.278 -1.1461  2.7950  0.4388
 9816TIP3   OH250938   5.571   0.499  11.169 -0.4358 -0.2963  0.2106
 9816TIP3    H150939   5.496   0.522  11.225 -1.9563 -0.6015 -1.6485
 9816TIP3    H250940   5.574   0.569  11.104  1.4827  0.1878  0.8043
 9817TIP3   OH250941   3.232   2.566   4.092  0.1398 -0.3505  0.1079
 9817TIP3    H150942   3.288   2.598   4.163  0.1081 -0.9973  0.4238
 9817TIP3    H250943   3.143   2.591   4.119  0.0766 -1.0030  0.5281
 9818TIP3   OH250944   6.293   2.476   0.689 -1.0284  0.7319  0.3054
 9818TIP3    H150945   6.225   2.409   0.681 -1.2865  1.2169 -2.1570
 9818TIP3    H250946   6.330   2.462   0.776 -2.2267 -1.4886  0.5164
 9819TIP3   OH250947   1.913   6.232  11.119  0.2087 -0.2884 -0.3180
 9819TIP3    H150948   1.824   6.226  11.084 -0.1215  0.4056  0.3872
 9819TIP3    H250949   1.969   6.208  11.046 -0.4796  1.0093 -1.2927
 9820TIP3   OH250950   3.403   2.842  12.681  0.4140  0.4851  0.0892
 9820TIP3    H150951   3.498   2.840  12.693  0.2742  0.3017  1.2115
 9820TIP3    H250952   3.379   2.933  12.699  0.3128  0.4109  0.3329
 9821TIP3   OH250953   0.606   1.079  11.860  0.3186  0.2715 -0.4791
 9821TIP3    H150954   0.635   1.169  11.873 -1.4908  0.7526  0.3824
 9821TIP3    H250955   0.682   1.034  11.823  1.3514  2.0567 -0.5638
 9822TIP3   OH250956   5.313   0.283   6.403  0.4567 -0.4833  0.4927
 9822TIP3    H150957   5.363   0.247   6.475  1.3059 -1.1906 -0.4311
 9822TIP3    H250958   5.265   0.208   6.367 -1.3605  0.2004  1.4268
 9823TIP3   OH250959   3.132   0.915   1.082  0.2402  0.4612 -0.0371
 9823TIP3    H150960   3.187   0.849   1.040  0.1805  1.2360 -1.3490
 9823TIP3    H250961   3.191   0.965   1.137  0.6587  0.6256 -0.6346
 9824TIP3   OH250962   5.589   3.135  13.463  0.0191  0.0666  0.7187
 9824TIP3    H150963   5.595   3.144  13.558  1.3337  2.7081  0.4167
 9824TIP3    H250964   5.495   3.129  13.446 -0.2433 -0.0020  2.1409
 9825TIP3   OH250965   2.060   1.146  16.644 -0.5764 -0.2402 -0.6556
 9825TIP3    H150966   2.051   1.088  16.719 -0.7139 -1.1498 -1.3609
 9825TIP3    H250967   2.038   1.092  16.568 -1.0004  0.8151 -1.3045
 9826TIP3   OH250968   6.431   0.713  11.235 -0.1047 -0.1147  0.7519
 9826TIP3    H150969   6.368   0.642  11.226  0.8286 -0.5569 -3.1657
 9826TIP3    H250970   6.466   0.703  11.323 -2.0448 -2.7501  1.2877
 9827TIP3   OH250971   4.629   2.310  12.302  0.4572 -0.2813 -0.2378
 9827TIP3    H150972   4.548   2.276  12.262  0.3137  1.2021 -1.3051
 9827TIP3    H250973   4.630   2.403  12.275  2.9156 -0.4775 -0.9042
 9828TIP3   OH250974   0.123   0.018  13.580  0.5249  0.5075 -0.6013
 9828TIP3    H150975   0.059   0.079  13.544 -0.2479  0.6796  1.0309
 9828TIP3    H250976   0.129   0.041  13.673 -0.2429 -2.2865  0.1965
 9829TIP3   OH250977   6.408   5.265   2.923 -0.1228  0.3285  0.0428
 9829TIP3    H150978   6.490   5.239   2.883  0.7689  1.2238  1.2301
 9829TIP3    H250979   6.407   5.220   3.008  0.3246  2.2232  1.0867
 9830TIP3   OH250980   0.947   3.598   1.224  0.4088 -0.0658  0.0361
 9830TIP3    H150981   0.994   3.558   1.297  0.1875 -0.4714 -0.0372
 9830TIP3    H250982   1.003   3.670   1.196  0.9283 -0.4676  0.0241
 9831TIP3   OH250983   5.459   3.033  16.945 -0.0847 -0.0409 -0.2817
 9831TIP3    H150984   5.385   2.980  16.976 -0.0353  0.0301 -0.0424
 9831TIP3    H250985   5.515   2.970  16.899 -0.3738 -0.0639 -0.6042
 9832TIP3   OH250986   3.580   2.680  16.706  0.5930  0.3000  0.3901
 9832TIP3    H150987   3.486   2.694  16.699  0.4366 -0.6088  0.6895
 9832TIP3    H250988   3.616   2.720  16.626  0.0870  1.7781  0.8923
 9833TIP3   OH250989   1.937   3.507  12.472 -0.3568 -0.4468  0.0864
 9833TIP3    H150990   1.980   3.569  12.414 -0.2653 -0.8403 -0.2688
 9833TIP3    H250991   1.871   3.559  12.518 -0.6760 -0.2092 -0.6328
 9834TIP3   OH250992   1.718   3.840  16.609 -0.7837  0.3385 -0.1924
 9834TIP3    H150993   1.648   3.885  16.562  0.9264  1.5457 -1.6885
 9834TIP3    H250994   1.783   3.819  16.541  0.6480 -0.0494  1.2549
 9835TIP3   OH250995   1.600   0.742  11.322  0.4238  0.1625  0.5140
 9835TIP3    H150996   1.547   0.664  11.342  0.0437  0.0588 -0.8630
 9835TIP3    H250997   1.678   0.707  11.280  1.0866  0.4051  1.5230
 9836TIP3   OH250998   1.595   0.792   3.550  0.4479  0.1292  0.3724
 9836TIP3    H150999   1.608   0.698   3.564 -0.3456  0.1106  1.0523
 9836TIP3    H251000   1.512   0.811   3.595 -0.2046  0.8395 -1.0905
 9837TIP3   OH251001   2.719   2.049   0.564  0.1280  0.5921 -0.6179
 9837TIP3    H151002   2.693   1.970   0.518 -0.8221  0.3353  0.3496
 9837TIP3    H251003   2.796   2.024   0.615  0.2894  0.4916 -0.9141
 9838TIP3   OH251004   2.875   4.128   5.141  0.6843 -0.0773  0.4307
 9838TIP3    H151005   2.889   4.050   5.087 -1.9350 -1.6282  1.8944
 9838TIP3    H251006   2.958   4.176   5.136  1.6527 -1.9308 -2.1266
 9839TIP3   OH251007   1.979   1.008   0.221 -0.1589  0.3686 -0.1571
 9839TIP3    H151008   1.903   1.044   0.265  0.3166  0.0853  0.9240
 9839TIP3    H251009   2.034   0.973   0.292  0.9395  0.5035 -0.9183
 9840TIP3   OH251010   5.800   2.250   4.976 -0.2314 -0.2598  0.4812
 9840TIP3    H151011   5.739   2.323   4.979  0.1063  0.0514 -0.1018
 9840TIP3    H251012   5.871   2.276   5.035  1.7400  1.5913 -2.5860
 9841TIP3   OH251013   3.691   2.513  15.540 -0.0823  0.1036 -0.1129
 9841TIP3    H151014   3.774   2.468  15.529  0.1011  0.1332  1.0362
 9841TIP3    H251015   3.692   2.583  15.475  0.2216 -0.6971 -0.9796
 9842TIP3   OH251016   3.173   0.434  12.510 -0.0005  0.1305 -0.5790
 9842TIP3    H151017   3.161   0.421  12.416 -0.8700  0.2619 -0.4820
 9842TIP3    H251018   3.151   0.526  12.525  0.6948  0.2661 -0.3315
 9843TIP3   OH251019   2.251   4.951   5.558 -0.5480  0.0077 -0.1453
 9843TIP3    H151020   2.183   5.007   5.521  0.6646  1.8825  0.3740
 9843TIP3    H251021   2.328   4.968   5.505 -0.3963 -1.9506 -0.6012
 9844TIP3   OH251022   3.381   5.304   1.454  0.4200  0.0531 -0.7481
 9844TIP3    H151023   3.365   5.250   1.531  0.1966 -0.8795 -1.4380
 9844TIP3    H251024   3.429   5.380   1.487 -0.6391  0.2040  0.4835
 9845TIP3   OH251025   5.779   1.582  12.705  0.0747  0.5103  0.6612
 9845TIP3    H151026   5.730   1.507  12.672 -0.4936  2.4733 -3.2779
 9845TIP3    H251027   5.712   1.644  12.732  0.2787  2.5219 -3.1525
 9846TIP3   OH251028   3.350   5.745   5.975 -0.4862  0.5352  0.1291
 9846TIP3    H151029   3.319   5.785   5.894 -0.2730  1.3301  0.4368
 9846TIP3    H251030   3.436   5.710   5.952 -0.0010  1.6259  0.2684
 9847TIP3   OH251031   2.707   4.631  11.484  0.2422  0.0737  0.5962
 9847TIP3    H151032   2.635   4.612  11.423 -0.6364 -1.8351  2.1635
 9847TIP3    H251033   2.680   4.712  11.527  0.0893  0.5530 -0.3862
 9848TIP3   OH251034   0.103   4.009   3.194  0.3099 -0.8028 -0.7039
 9848TIP3    H151035   0.099   3.949   3.119 -1.3339  1.1743 -2.2582
 9848TIP3    H251036   0.134   4.092   3.157  1.1884 -0.2827  1.1517
 9849TIP3   OH251037   2.214   2.364  12.003 -0.1474  0.4552 -0.1536
 9849TIP3    H151038   2.130   2.357  11.956  0.1973  1.0290 -0.8783
 9849TIP3    H251039   2.238   2.274  12.024 -0.4795  0.2173 -0.7824
 9850TIP3   OH251040   4.318   1.676   3.010 -0.0144  0.2918  0.1309
 9850TIP3    H151041   4.375   1.642   2.941  1.6720  1.1270  1.0767
 9850TIP3    H251042   4.266   1.744   2.967  0.3885  0.1920 -0.5197
 9851TIP3   OH251043   2.010   4.968  12.367 -0.0774  0.5673  0.0710
 9851TIP3    H151044   1.989   5.061  12.372 -0.2065  0.4949  0.8700
 9851TIP3    H251045   2.035   4.944  12.455  0.2272 -0.0954 -0.1949
 9852TIP3   OH251046   0.451   3.089   2.950 -0.2020  0.0954  0.5615
 9852TIP3    H151047   0.480   3.001   2.925 -0.0467  0.3301 -0.1032
 9852TIP3    H251048   0.493   3.105   3.034  0.5369 -0.0909  0.2314
 9853TIP3   OH251049   2.553   4.505  12.324 -0.0975 -0.0904 -0.2413
 9853TIP3    H151050   2.499   4.584  12.317  1.1789  0.9805  1.5861
 9853TIP3    H251051   2.521   4.462  12.403  0.7238 -0.2165  0.0222
 9854TIP3   OH251052   2.786   1.601  12.785 -0.3972 -0.1318  0.4968
 9854TIP3    H151053   2.800   1.507  12.794  0.0498  0.0478  1.6853
 9854TIP3    H251054   2.838   1.625  12.708 -1.7951 -1.1256 -0.7988
 9855TIP3   OH251055   1.243   6.035  14.710 -0.1768 -0.1963 -0.0113
 9855TIP3    H151056   1.333   6.038  14.740 -0.6187 -0.6377  1.3990
 9855TIP3    H251057   1.212   6.126  14.717 -0.2809 -0.2981  0.9033
 9856TIP3   OH251058   5.910   1.347   5.646 -0.3925 -0.0204 -0.1754
 9856TIP3    H151059   5.865   1.394   5.717 -0.9135  0.5482 -0.8805
 9856TIP3    H251060   5.842   1.329   5.582 -0.1205 -1.4406 -0.0744
 9857TIP3   OH251061   0.511   3.711   5.234  0.5031 -0.7971 -0.2003
 9857TIP3    H151062   0.522   3.790   5.182 -0.5683  0.7717  1.8848
 9857TIP3    H251063   0.599   3.677   5.246  0.9946  0.2124 -0.9020
 9858TIP3   OH251064   4.072   4.792  14.048 -0.5474  0.5230  0.1385
 9858TIP3    H151065   4.118   4.708  14.055  1.1161  1.5323  1.8221
 9858TIP3    H251066   4.093   4.838  14.129 -1.5135  2.5388 -0.7133
 9859TIP3   OH251067   0.787   4.142  16.114 -0.3543 -0.2240 -0.1229
 9859TIP3    H151068   0.735   4.214  16.080  0.2617  0.6788  0.8303
 9859TIP3    H251069   0.735   4.107  16.187 -0.3400 -0.3180 -0.1584
 9860TIP3   OH251070   6.382   4.831   5.196  0.2126  0.6785 -0.2488
 9860TIP3    H151071   6.446   4.853   5.263 -0.5210 -3.8146  2.1067
 9860TIP3    H251072   6.434   4.810   5.119  1.2873  1.4053  0.2675
 9861TIP3   OH251073   3.366   0.102  10.869  0.0856  0.3680 -0.3409
 9861TIP3    H151074   3.358   0.180  10.814 -0.9424  0.2363 -0.3950
 9861TIP3    H251075   3.276   0.082  10.894  0.2829 -1.1165 -0.7786
 9862TIP3   OH251076   4.940   3.845  16.033 -0.5572  0.3318 -0.1752
 9862TIP3    H151077   4.933   3.751  16.052 -0.2519 -0.1439 -2.2876
 9862TIP3    H251078   4.853   3.869  16.000 -1.1330  1.1864  1.8711
 9863TIP3   OH251079   3.429   6.555  14.543  0.2464  0.4775 -0.2693
 9863TIP3    H151080   3.454   6.550  14.635 -1.3851 -1.1861  0.1082
 9863TIP3    H251081   3.466   6.477  14.503 -0.6509  0.2206 -0.6147
 9864TIP3   OH251082   4.809   3.992  10.982  0.1600 -0.1549 -0.3140
 9864TIP3    H151083   4.861   4.018  10.906  2.4072 -2.4394  0.3787
 9864TIP3    H251084   4.721   3.976  10.947  0.9364 -0.2432 -2.2774
 9865TIP3   OH251085   4.757   0.791   5.032 -0.3053  0.1912  0.2280
 9865TIP3    H151086   4.834   0.774   5.086 -0.5040 -2.3011 -0.2028
 9865TIP3    H251087   4.788   0.847   4.961 -0.1171  3.8830  3.0556
 9866TIP3   OH251088   1.777   1.147   6.252 -0.5841 -0.2495  0.1335
 9866TIP3    H151089   1.805   1.090   6.324 -0.7415 -0.9146 -0.3281
 9866TIP3    H251090   1.857   1.188   6.221 -0.3390 -0.9359 -0.1448
 9867TIP3   OH251091   3.684   1.799  11.726 -0.3173 -0.0558  0.2273
 9867TIP3    H151092   3.600   1.761  11.751 -0.0233  0.3136  1.8208
 9867TIP3    H251093   3.670   1.894  11.732 -0.3564  0.0666 -1.4456
 9868TIP3   OH251094   5.775   3.958   4.435 -0.1562 -0.1500  0.2076
 9868TIP3    H151095   5.694   3.911   4.419  0.6078 -1.5387  0.3770
 9868TIP3    H251096   5.819   3.909   4.504  1.0324  0.3206 -0.1935
 9869TIP3   OH251097   2.252   1.629  16.488 -0.4703  0.3275  0.3287
 9869TIP3    H151098   2.225   1.581  16.409 -0.7950  1.5732 -0.3456
 9869TIP3    H251099   2.177   1.621  16.547 -0.6148  0.2005  0.1307
 9870TIP3   OH251100   1.161   6.597   5.568  0.8540  0.0179  0.0908
 9870TIP3    H151101   1.077   6.558   5.545  1.6306 -1.9061  0.3469
 9870TIP3    H251102   1.158   6.685   5.532 -1.0343 -0.2334 -0.4129
 9871TIP3   OH251103   1.601   0.315  13.970  0.1527  0.3732 -0.0244
 9871TIP3    H151104   1.528   0.265  13.933 -0.1054 -0.0433  1.0297
 9871TIP3    H251105   1.673   0.252  13.976 -0.8658 -0.5643  3.5134
 9872TIP3   OH251106   5.194   0.360  15.086 -0.6155  0.8088  0.1530
 9872TIP3    H151107   5.255   0.413  15.035 -0.8014  0.8285 -0.0497
 9872TIP3    H251108   5.163   0.420  15.155 -1.3463  1.1783 -0.4910
 9873TIP3   OH251109   4.155   3.913  14.311 -0.1295  0.4874  0.4477
 9873TIP3    H151110   4.125   3.916  14.402 -0.4721 -0.6598  0.3930
 9873TIP3    H251111   4.083   3.868  14.264  0.8281 -0.5624 -0.0442
 9874TIP3   OH251112   0.222   4.196  15.910  0.0489 -0.1188 -0.2566
 9874TIP3    H151113   0.249   4.283  15.880  1.1548 -0.3520  0.0491
 9874TIP3    H251114   0.282   4.176  15.982  0.2026 -1.3984 -0.7311
 9875TIP3   OH251115   0.436   4.979   4.904 -0.1278 -0.1184 -0.0373
 9875TIP3    H151116   0.457   5.069   4.928 -2.1661  0.0136  1.3818
 9875TIP3    H251117   0.502   4.926   4.948  1.0492  0.6395 -0.8360
 9876TIP3   OH251118   2.169   3.806   3.929 -0.1894 -0.0506 -0.0222
 9876TIP3    H151119   2.206   3.796   4.017 -1.4417  0.6767  0.5965
 9876TIP3    H251120   2.183   3.720   3.888  0.8143 -0.2570  0.7171
 9877TIP3   OH251121   5.923   6.162  10.968 -1.0284  0.5110  0.2942
 9877TIP3    H151122   5.962   6.193  10.886 -1.2426 -1.8288 -0.7407
 9877TIP3    H251123   5.992   6.113  11.011 -0.6024  2.5628  2.0632
 9878TIP3   OH251124   5.420   5.259   2.296 -0.2297 -0.0639 -0.3033
 9878TIP3    H151125   5.466   5.341   2.278 -0.0560 -0.3820 -1.3363
 9878TIP3    H251126   5.328   5.284   2.297 -0.1100  0.3758  0.6899
 9879TIP3   OH251127   1.843   3.307  13.504  0.6478 -0.6027  0.2843
 9879TIP3    H151128   1.920   3.258  13.473  1.6273  1.1821 -0.1761
 9879TIP3    H251129   1.878   3.368  13.568 -0.5034 -0.2321  0.5643
 9880TIP3   OH251130   1.384   0.561  16.043  0.0182 -0.3584 -0.2987
 9880TIP3    H151131   1.382   0.593  16.134  0.8222 -0.4812 -0.2390
 9880TIP3    H251132   1.316   0.495  16.040  0.8439 -1.2554  0.5605
 9881TIP3   OH251133   2.137   0.741  12.863  1.1518 -0.5428 -0.3917
 9881TIP3    H151134   2.048   0.768  12.841  1.5409  0.6906 -0.5223
 9881TIP3    H251135   2.163   0.683  12.792  0.7202 -0.2970 -0.7560
 9882TIP3   OH251136   3.901   1.440   0.781  0.3423 -0.1196  0.0906
 9882TIP3    H151137   3.807   1.452   0.766  0.1737 -0.4727  0.8142
 9882TIP3    H251138   3.913   1.462   0.873  1.1095  0.6924 -0.1955
 9883TIP3   OH251139   0.627   3.107   3.783 -0.6473 -0.0516 -0.1224
 9883TIP3    H151140   0.652   3.198   3.803  0.2739 -0.7004  1.8582
 9883TIP3    H251141   0.560   3.087   3.848 -0.6746 -0.8695 -0.4042
 9884TIP3   OH251142   1.560   1.607   1.772  0.0982 -0.1281  0.0803
 9884TIP3    H151143   1.566   1.514   1.751 -0.9187  0.0997 -1.2767
 9884TIP3    H251144   1.627   1.620   1.839  1.8437 -1.3795 -1.3442
 9885TIP3   OH251145   3.264   3.484  11.308 -0.0739 -0.4874 -0.1660
 9885TIP3    H151146   3.227   3.438  11.234 -1.3399  0.2209  0.0147
 9885TIP3    H251147   3.337   3.534  11.271 -1.6822  1.1112 -1.2457
 9886TIP3   OH251148   6.706   0.092  14.129 -0.2589  0.1161 -0.0043
 9886TIP3    H151149   6.740   0.180  14.146 -0.2563 -0.1212  1.2545
 9886TIP3    H251150   6.613   0.097  14.151 -0.4842  0.0702 -0.9221
 9887TIP3   OH251151   6.498   5.558  11.946  0.1139  0.0324  0.2203
 9887TIP3    H151152   6.574   5.556  12.005 -0.6020  1.1161  1.2021
 9887TIP3    H251153   6.469   5.467  11.942  0.3399 -0.0959  1.3236
 9888TIP3   OH251154   6.595   4.740  13.044 -0.5619 -0.0456  0.1744
 9888TIP3    H151155   6.595   4.801  13.118  2.5946  0.5312 -0.2482
 9888TIP3    H251156   6.578   4.654  13.084  2.5143  0.0425  1.8240
 9889TIP3   OH251157   4.565   0.074  14.866 -0.2349 -0.6040  0.5112
 9889TIP3    H151158   4.634   0.100  14.805  0.1020 -0.9038  0.7613
 9889TIP3    H251159   4.500   0.029  14.811 -1.2222  1.4392 -0.0645
 9890TIP3   OH251160   2.718   5.099   3.388  0.3525  0.2078  0.3622
 9890TIP3    H151161   2.626   5.119   3.410  0.2846  0.6928 -0.3806
 9890TIP3    H251162   2.766   5.124   3.467 -0.2068 -0.5432  0.9623
 9891TIP3   OH251163   3.417   6.532  12.518 -0.6227 -0.1586  0.3442
 9891TIP3    H151164   3.438   6.463  12.580  0.5213  0.2875  0.4625
 9891TIP3    H251165   3.336   6.502  12.476 -0.5473 -1.2085  0.9189
 9892TIP3   OH251166   3.280   0.092  12.426  0.2193  0.3103 -0.3685
 9892TIP3    H151167   3.198   0.048  12.448  0.4244  0.0485 -0.1221
 9892TIP3    H251168   3.254   0.181  12.403  0.0011  0.6112  1.0083
 9893TIP3   OH251169   2.256   2.951   6.181 -0.6546 -0.1265 -0.1760
 9893TIP3    H151170   2.267   2.856   6.175 -0.8176 -0.1235 -0.5546
 9893TIP3    H251171   2.281   2.973   6.271 -2.1958 -0.7347  0.4119
 9894TIP3   OH251172   1.355   3.538   1.001 -0.3138  0.5064  0.4886
 9894TIP3    H151173   1.289   3.495   1.055  0.0542 -0.6514  0.0239
 9894TIP3    H251174   1.401   3.595   1.062 -0.8310  0.2741  1.1058
 9895TIP3   OH251175   6.784   4.424   3.879  0.0798 -0.0896  0.0558
 9895TIP3    H151176   6.829   4.479   3.943 -0.1391  0.5272 -0.3144
 9895TIP3    H251177   6.699   4.404   3.918 -0.1289  0.4469 -0.1295
 9896TIP3   OH251178   0.939   3.748  16.198 -0.7444 -0.5417  0.3545
 9896TIP3    H151179   0.986   3.712  16.123 -0.1284 -1.4641  1.1851
 9896TIP3    H251180   1.000   3.739  16.271 -1.1493  0.8184  0.8742
 9897TIP3   OH251181   1.671   1.126  10.762  0.0964  0.2725  0.2591
 9897TIP3    H151182   1.593   1.133  10.706  1.2718  0.7489 -1.3831
 9897TIP3    H251183   1.687   1.032  10.769 -0.5428  0.1760  0.4938
 9898TIP3   OH251184   2.661   2.666   4.082  0.1203 -0.4514 -0.4418
 9898TIP3    H151185   2.736   2.718   4.051  0.2377 -0.2869  0.1157
 9898TIP3    H251186   2.595   2.731   4.107  0.1710 -0.5719  0.0164
 9899TIP3   OH251187   3.503   6.172  11.860 -0.0425 -0.3714  0.7197
 9899TIP3    H151188   3.468   6.206  11.942 -1.2051  1.6470 -0.5763
 9899TIP3    H251189   3.588   6.215  11.850  0.0299 -0.4977  0.7904
 9900TIP3   OH251190   0.520   3.452  13.533 -0.1915 -0.3920 -0.2567
 9900TIP3    H151191   0.529   3.450  13.438  0.2946 -2.5596 -0.2030
 9900TIP3    H251192   0.492   3.541  13.554  2.0275  0.8191 -2.2285
 9901TIP3   OH251193   6.385   6.817  15.440  0.6419 -0.0673 -0.2947
 9901TIP3    H151194   6.349   6.765  15.512 -1.0282  0.8660 -0.4334
 9901TIP3    H251195   6.342   6.783  15.362  0.5590  0.6230 -0.5507
 9902TIP3   OH251196   6.412   4.550  13.809  0.3343  0.0814  0.4496
 9902TIP3    H151197   6.434   4.635  13.772 -0.1074  0.2316  0.5212
 9902TIP3    H251198   6.464   4.487  13.759  0.0815  0.3257 -0.1261
 9903TIP3   OH251199   3.377   5.110  14.360 -0.2389 -0.4325 -0.1102
 9903TIP3    H151200   3.392   5.016  14.358 -0.6287 -0.4827 -1.0706
 9903TIP3    H251201   3.369   5.135  14.268  2.6197  0.9929 -0.0197
 9904TIP3   OH251202   4.861   4.045   0.391 -0.3297 -0.1832  0.1688
 9904TIP3    H151203   4.885   4.052   0.483  2.6323 -0.0561 -0.5649
 9904TIP3    H251204   4.942   4.020   0.347 -1.4105  0.9392 -2.5702
 9905TIP3   OH251205   0.734   6.365   1.119 -0.2816 -0.1078  0.0997
 9905TIP3    H151206   0.813   6.311   1.128 -1.4819 -2.0069 -0.4875
 9905TIP3    H251207   0.662   6.306   1.144 -1.5071  1.6717  0.8667
 9906TIP3   OH251208   5.668   0.786   1.224 -0.0187  0.8022  0.0402
 9906TIP3    H151209   5.744   0.792   1.282 -0.8300 -0.2707  1.2292
 9906TIP3    H251210   5.685   0.709   1.170 -1.2598 -0.7663  1.8158
 9907TIP3   OH251211   0.672   3.310  14.864  0.0044  0.1967  0.4485
 9907TIP3    H151212   0.626   3.232  14.895  0.0805  0.4238  1.1569
 9907TIP3    H251213   0.710   3.348  14.944 -2.6962  2.7309  0.6129
 9908TIP3   OH251214   6.449   0.991   1.847 -0.2890  0.2325 -0.1462
 9908TIP3    H151215   6.356   1.003   1.828 -0.9842 -0.5692  2.5374
 9908TIP3    H251216   6.461   0.896   1.850  0.6240  0.3332 -0.5622
 9909TIP3   OH251217   4.925   3.189  11.590 -0.2382 -0.2469  0.2027
 9909TIP3    H151218   4.999   3.195  11.649 -1.4364  0.8132  1.6386
 9909TIP3    H251219   4.946   3.249  11.518  1.2161 -1.5370 -0.4815
 9910TIP3   OH251220   5.662   5.960   5.192 -0.0112  0.2186 -0.4187
 9910TIP3    H151221   5.614   5.894   5.142 -0.1322  0.3809 -0.5213
 9910TIP3    H251222   5.743   5.917   5.219 -0.5396 -0.2676  0.3596
 9911TIP3   OH251223   0.291   2.357  15.830  0.0531 -0.0329  0.1145
 9911TIP3    H151224   0.334   2.297  15.768  0.1787 -0.3772  0.5340
 9911TIP3    H251225   0.224   2.303  15.872 -0.6639  0.4470 -0.3920
 9912TIP3   OH251226   5.140   3.937  13.597  0.8823 -0.8878 -0.5269
 9912TIP3    H151227   5.129   3.886  13.517  0.4084 -0.4096 -0.7704
 9912TIP3    H251228   5.158   3.872  13.665 -1.6801 -1.5793 -0.4507
 9913TIP3   OH251229   3.842   1.809   5.635  0.2747  0.2231  0.1119
 9913TIP3    H151230   3.850   1.716   5.656  2.4488  0.1232 -1.0127
 9913TIP3    H251231   3.887   1.853   5.707 -0.3325  0.3876  0.3942
 9914TIP3   OH251232   5.561   5.438  10.696 -0.6770 -0.6565 -0.8334
 9914TIP3    H151233   5.535   5.431  10.604 -0.8280 -3.0188 -0.6453
 9914TIP3    H251234   5.486   5.478  10.739 -0.1461  1.5588 -1.9211
 9915TIP3   OH251235   2.662   6.626  12.917 -0.7251 -0.2774 -0.8272
 9915TIP3    H151236   2.706   6.568  12.980 -0.9303  1.0896  0.6246
 9915TIP3    H251237   2.683   6.714  12.948 -4.2872  0.4258 -0.2097
 9916TIP3   OH251238   1.265   1.633   3.789  0.3099 -0.5050 -0.2618
 9916TIP3    H151239   1.298   1.544   3.806 -1.3404 -1.0216  0.3782
 9916TIP3    H251240   1.342   1.682   3.760  1.6297 -1.6687  1.1661
 9917TIP3   OH251241   4.986   1.919   1.056 -0.6259  0.1911  0.2419
 9917TIP3    H151242   5.003   1.826   1.075 -2.3305 -0.2596 -0.4473
 9917TIP3    H251243   5.072   1.953   1.030  0.1025 -1.0841  0.8876
 9918TIP3   OH251244   6.783   0.152   0.014  0.2383  0.2754  0.7801
 9918TIP3    H151245   6.815   0.151   0.104 -0.0921 -1.5123  0.8967
 9918TIP3    H251246   6.862   0.161  -0.039  0.6147 -0.4857  1.1947
 9919TIP3   OH251247   6.658   6.166   1.579 -0.0723 -0.7782  0.1543
 9919TIP3    H151248   6.595   6.198   1.515  0.1207 -1.6065 -0.4688
 9919TIP3    H251249   6.612   6.167   1.662 -0.3903  0.1325 -0.0295
 9920TIP3   OH251250   5.549   1.224  11.679 -0.1211 -0.1008  0.2870
 9920TIP3    H151251   5.622   1.236  11.618 -0.5330 -0.5212 -0.2896
 9920TIP3    H251252   5.510   1.141  11.653 -0.5313 -0.0941  0.8858
 9921TIP3   OH251253   1.921   6.369   3.614  0.0654 -0.0752 -0.0493
 9921TIP3    H151254   1.989   6.437   3.618  1.4999 -1.4116 -1.1476
 9921TIP3    H251255   1.911   6.340   3.705  1.0969  0.0183  0.1064
 9922TIP3   OH251256   2.761   3.867  12.090 -0.6428  0.5143  0.2622
 9922TIP3    H151257   2.760   3.873  11.995  1.0609 -2.5153  0.0063
 9922TIP3    H251258   2.838   3.917  12.116  0.1540 -0.4913 -0.1300
 9923TIP3   OH251259   6.571   2.184   6.757  0.1604 -0.0101 -0.7655
 9923TIP3    H151260   6.625   2.148   6.686  0.3416 -1.8802  0.2871
 9923TIP3    H251261   6.484   2.146   6.742 -0.0976  0.5573 -0.6848
 9924TIP3   OH251262   5.674   6.262  14.059 -0.5027  0.0052 -0.1598
 9924TIP3    H151263   5.681   6.358  14.065 -0.0160  0.0351 -1.0938
 9924TIP3    H251264   5.654   6.234  14.148  0.5379  0.8842  0.3575
 9925TIP3   OH251265   0.645   5.271   4.646 -0.5906  0.3230  0.1531
 9925TIP3    H151266   0.593   5.344   4.679 -0.1811  1.0261 -0.7515
 9925TIP3    H251267   0.727   5.277   4.695 -0.3818  0.7387 -0.2527
 9926TIP3   OH251268   0.014   5.936  11.474  0.0237 -0.4021  0.1763
 9926TIP3    H151269   0.102   5.925  11.437  0.0997  2.6101 -0.6318
 9926TIP3    H251270  -0.039   5.967  11.401 -1.1156  0.2959  1.2809
 9927TIP3   OH251271   5.262   5.473   3.368 -0.3594  0.1288 -0.0601
 9927TIP3    H151272   5.229   5.554   3.329  0.6900 -0.1040 -1.4826
 9927TIP3    H251273   5.342   5.500   3.414 -1.0090  0.2146  1.0299
 9928TIP3   OH251274   6.243   6.058  10.763  0.2404  0.1651 -0.0390
 9928TIP3    H151275   6.301   5.982  10.761  0.4426  0.3333 -0.5668
 9928TIP3    H251276   6.160   6.027  10.727 -0.2763 -0.3046  1.5245
 9929TIP3   OH251277   4.591   5.273   1.534 -0.2866 -0.0059 -0.0242
 9929TIP3    H151278   4.566   5.182   1.523  1.3506 -0.4779  0.0228
 9929TIP3    H251279   4.615   5.302   1.446  0.1436  0.0849  0.1209
 9930TIP3   OH251280   0.846   1.206  16.038  0.2296 -0.9289 -0.2605
 9930TIP3    H151281   0.903   1.282  16.025 -0.0680 -0.6772 -0.1099
 9930TIP3    H251282   0.906   1.132  16.051  0.5128 -0.5910  0.3430
 9931TIP3   OH251283   6.039   5.321   5.770  1.1340  0.0526 -0.2782
 9931TIP3    H151284   6.058   5.241   5.720  0.7315 -1.0246  1.2660
 9931TIP3    H251285   5.985   5.373   5.710  0.5205 -1.2885 -0.9303
 9932TIP3   OH251286   0.526   5.959   5.203 -0.2312 -0.5048  0.7021
 9932TIP3    H151287   0.604   5.920   5.163 -0.3082  0.3889 -0.3300
 9932TIP3    H251288   0.545   5.961   5.297  1.4171  0.6595  0.3559
 9933TIP3   OH251289   4.560   6.800   2.202 -0.2470  0.2025  0.2743
 9933TIP3    H151290   4.641   6.780   2.155 -1.0026 -0.2788 -0.8609
 9933TIP3    H251291   4.552   6.895   2.196  0.3231  0.2674  0.5325
 9934TIP3   OH251292   4.207   0.370   5.442 -0.2487 -0.5325 -0.2547
 9934TIP3    H151293   4.289   0.373   5.492 -0.7591  0.8094  0.5381
 9934TIP3    H251294   4.139   0.362   5.509 -0.8734  0.2275 -0.7864
 9935TIP3   OH251295   5.526   0.331  14.146 -0.0546 -0.0091 -0.1307
 9935TIP3    H151296   5.467   0.393  14.190 -0.6190  0.8052 -2.0096
 9935TIP3    H251297   5.606   0.382  14.132  1.2403 -1.1637  2.5801
 9936TIP3   OH251298   0.426   1.468   5.670  0.0006 -0.0114  0.3260
 9936TIP3    H151299   0.449   1.448   5.579 -0.8678 -1.0294  0.3196
 9936TIP3    H251300   0.483   1.412   5.722  0.0582  0.1120  0.3966
 9937TIP3   OH251301   3.281   0.702   0.968 -0.0812  0.0754  0.5698
 9937TIP3    H151302   3.305   0.696   0.876  0.9982 -0.8377  0.9007
 9937TIP3    H251303   3.245   0.616   0.989 -0.8167  0.4521  0.8704
 9938TIP3   OH251304   4.957   0.861  13.738  0.0068  0.1047  0.4522
 9938TIP3    H151305   4.954   0.915  13.817 -1.4323  2.6258 -1.2554
 9938TIP3    H251306   5.016   0.908  13.679 -0.3805 -0.7800 -0.6519
 9939TIP3   OH251307   4.885   5.417   2.300 -0.0701 -0.1991  0.0647
 9939TIP3    H151308   4.914   5.500   2.262  1.1328 -0.5332  0.2461
 9939TIP3    H251309   4.803   5.439   2.345  0.2933  0.9130  0.2003
 9940TIP3   OH251310   5.612   5.905  12.669 -0.2614 -0.2901  0.0936
 9940TIP3    H151311   5.620   5.810  12.662  0.3475 -0.1676 -0.9677
 9940TIP3    H251312   5.663   5.928  12.747  1.1978 -0.6365 -0.7431
 9941TIP3   OH251313   0.660   4.830   0.194 -0.3798  0.4060 -0.3561
 9941TIP3    H151314   0.736   4.806   0.140  0.6725  1.9536  0.4125
 9941TIP3    H251315   0.594   4.859   0.130 -1.1352 -2.9169 -1.1867
 9942TIP3   OH251316   0.329   5.059   0.477  0.4551  0.2474  0.1740
 9942TIP3    H151317   0.306   4.966   0.476  1.1438  0.0594  1.1721
 9942TIP3    H251318   0.299   5.092   0.392 -1.3139 -0.5129  0.4697
 9943TIP3   OH251319   5.168   6.647  16.907  0.0048 -0.1326 -0.0318
 9943TIP3    H151320   5.238   6.679  16.850 -1.2104  1.9287 -0.4139
 9943TIP3    H251321   5.172   6.552  16.898  1.0545  0.0709 -2.0895
 9944TIP3   OH251322   3.325   3.988   0.125 -0.5393  0.6582 -0.0687
 9944TIP3    H151323   3.231   3.974   0.123 -0.2065 -2.1013  1.5895
 9944TIP3    H251324   3.354   3.975   0.035 -1.2763 -2.2560  0.0715
 9945TIP3   OH251325   2.090   3.145   6.128  0.4055  0.1076 -0.1643
 9945TIP3    H151326   2.032   3.135   6.204  0.1630  3.5203  0.2035
 9945TIP3    H251327   2.166   3.092   6.149 -0.0211  0.3420  2.1114
 9946TIP3   OH251328   6.145   0.953   2.079  0.0993  0.2403 -0.0978
 9946TIP3    H151329   6.076   0.941   2.144 -0.3276 -3.3454 -1.1324
 9946TIP3    H251330   6.226   0.933   2.125  0.3253  2.5338  0.5841
 9947TIP3   OH251331   0.264   3.247  16.837 -0.0697 -0.2543  0.6482
 9947TIP3    H151332   0.316   3.284  16.765 -1.1105  0.0974  0.0634
 9947TIP3    H251333   0.321   3.254  16.914  0.7766  0.0443  0.0076
 9948TIP3   OH251334   1.686   6.711   1.371 -0.2499 -0.1526  0.0419
 9948TIP3    H151335   1.637   6.790   1.347  1.2266  0.0889 -2.3607
 9948TIP3    H251336   1.627   6.639   1.349  0.4230  0.1373 -2.9108
 9949TIP3   OH251337   1.250   2.178   3.427  0.1776 -0.1794  0.2285
 9949TIP3    H151338   1.271   2.271   3.415 -1.9494  0.1821 -1.1639
 9949TIP3    H251339   1.186   2.160   3.358  1.8072 -3.1332 -0.5772
 9950TIP3   OH251340   3.788   4.574   0.040 -0.7230 -0.3006  0.3376
 9950TIP3    H151341   3.827   4.529  -0.034  0.8598  0.5129  0.6621
 9950TIP3    H251342   3.700   4.537   0.047 -0.2532 -1.6641 -0.8150
 9951TIP3   OH251343   6.399   2.179  15.528 -0.1648 -0.2127 -0.0339
 9951TIP3    H151344   6.374   2.211  15.615  0.3491 -1.3116  0.5311
 9951TIP3    H251345   6.448   2.251  15.489 -1.5161  0.7806  0.0729
 9952TIP3   OH251346   5.162   0.163  15.690  0.5665 -0.1706 -0.4904
 9952TIP3    H151347   5.221   0.158  15.614  0.2949  0.6365 -0.7582
 9952TIP3    H251348   5.076   0.144  15.654  0.6249 -1.1289 -0.1385
 9953TIP3   OH251349   2.919   4.733  11.297 -0.3482 -0.2133 -0.2728
 9953TIP3    H151350   2.867   4.720  11.217  0.3508  0.7783 -0.8964
 9953TIP3    H251351   2.867   4.691  11.366 -1.3520 -0.3694 -1.1064
 9954TIP3   OH251352   6.176   6.079   4.837  0.1676 -0.3257  0.0945
 9954TIP3    H151353   6.208   6.137   4.906 -0.9776  0.2011  0.2041
 9954TIP3    H251354   6.081   6.094   4.836  0.1634 -0.4065 -1.5217
 9955TIP3   OH251355   1.423   2.993  11.415 -0.1500  0.1335  0.4086
 9955TIP3    H151356   1.464   2.968  11.332 -2.1186 -1.8451 -0.0315
 9955TIP3    H251357   1.398   2.910  11.455  1.3755  1.0288  3.3339
 9956TIP3   OH251358   3.734   3.139   5.741 -0.1114  0.0223 -0.4861
 9956TIP3    H151359   3.670   3.076   5.708 -1.1322  1.0425 -0.4973
 9956TIP3    H251360   3.698   3.167   5.826  0.4760  0.3728 -0.3485
 9957TIP3   OH251361   5.528   6.344   3.141  0.0469 -0.4911 -0.1173
 9957TIP3    H151362   5.495   6.256   3.158 -1.2237  0.4394  2.6297
 9957TIP3    H251363   5.478   6.400   3.201  1.3561  1.9904 -1.2691
 9958TIP3   OH251364   1.717   3.240  15.302  0.4149  0.0581 -0.3527
 9958TIP3    H151365   1.650   3.242  15.370  0.6391 -2.3050 -0.0119
 9958TIP3    H251366   1.743   3.331  15.291 -0.7813  0.6578  1.5818
 9959TIP3   OH251367   5.907   5.547  14.943  0.1849  0.4368 -0.6537
 9959TIP3    H151368   5.870   5.581  15.024  0.3223 -0.3820 -0.2358
 9959TIP3    H251369   5.838   5.559  14.878  0.3707  1.8364 -0.6005
 9960TIP3   OH251370   1.821   6.333  14.199  0.9849  0.0918  0.1129
 9960TIP3    H151371   1.847   6.290  14.117 -2.2559 -1.3082 -0.2575
 9960TIP3    H251372   1.799   6.422  14.173 -0.8779 -0.5862 -0.7660
 9961TIP3   OH251373   3.340   0.286   5.906 -0.2127  1.2240 -0.0679
 9961TIP3    H151374   3.418   0.280   5.852 -0.5649 -1.7764 -0.3246
 9961TIP3    H251375   3.372   0.309   5.993  1.2655 -2.1417  0.3697
 9962TIP3   OH251376   1.475   3.838  11.811  0.4993  0.6304 -0.1536
 9962TIP3    H151377   1.484   3.768  11.745  1.6298 -0.0018  0.6556
 9962TIP3    H251378   1.565   3.862  11.832  0.1229  1.4134  0.5612
 9963TIP3   OH251379   5.465   2.437   2.428 -0.2506 -0.3309 -0.3474
 9963TIP3    H151380   5.450   2.343   2.417 -2.4894  0.1149 -1.5832
 9963TIP3    H251381   5.416   2.460   2.507  0.1179 -0.1614 -0.1677
 9964TIP3   OH251382   6.807   3.027  11.359  0.5054 -0.0448 -0.0125
 9964TIP3    H151383   6.890   2.998  11.321  0.5582 -0.9409  0.7765
 9964TIP3    H251384   6.819   3.018  11.453 -0.5251 -0.2683  0.1062
 9965TIP3   OH251385   4.556   2.892  17.138  0.2176 -0.5456  0.0987
 9965TIP3    H151386   4.612   2.835  17.085  0.2490  0.2059 -0.6998
 9965TIP3    H251387   4.564   2.978  17.097 -1.1246 -0.3218  0.2736
 9966TIP3   OH251388   2.723   2.706   0.783  0.6203 -0.1678 -0.4023
 9966TIP3    H151389   2.786   2.763   0.826  0.6640 -0.1582 -0.4784
 9966TIP3    H251390   2.764   2.682   0.700  0.9540 -0.9984  0.0071
 9967TIP3   OH251391   4.858   2.458  12.961 -0.2923 -0.2000 -0.9837
 9967TIP3    H151392   4.853   2.496  12.873 -1.9032 -0.0664 -0.8551
 9967TIP3    H251393   4.944   2.483  12.993 -0.2863  1.0687 -1.9304
 9968TIP3   OH251394   1.756   1.850  15.885  0.0159 -0.1413  0.3448
 9968TIP3    H151395   1.727   1.785  15.821  0.5862  0.1473 -0.2085
 9968TIP3    H251396   1.827   1.807  15.932  0.4838  0.1143 -0.1109
 9969TIP3   OH251397   3.144   2.254  17.154  0.0351 -0.0503  0.0589
 9969TIP3    H151398   3.109   2.177  17.198 -1.6132  0.4124 -0.3845
 9969TIP3    H251399   3.134   2.235  17.061 -0.2093  0.6114 -0.0565
 9970TIP3   OH251400   1.740   2.963   3.045  0.3435  0.7418  0.2835
 9970TIP3    H151401   1.649   2.937   3.032  0.3174  0.6346  0.6652
 9970TIP3    H251402   1.735   3.050   3.085  0.3703  0.0041  1.9302
 9971TIP3   OH251403   6.782   3.371  16.488 -0.7772  0.5468 -0.0732
 9971TIP3    H151404   6.697   3.414  16.498 -0.3915  0.9399  1.6596
 9971TIP3    H251405   6.821   3.375  16.576  0.6869 -0.3423 -0.6767
 9972TIP3   OH251406   3.100   0.339  16.878  0.0276  0.2679 -0.4700
 9972TIP3    H151407   3.164   0.403  16.845 -0.9929  1.3188 -0.4368
 9972TIP3    H251408   3.122   0.258  16.833  2.7978  0.0303  1.1767
 9973TIP3   OH251409   5.210   0.034  15.923 -0.5518  0.4496 -0.1081
 9973TIP3    H151410   5.137   0.023  15.985  0.0654  0.9796  0.7157
 9973TIP3    H251411   5.174   0.092  15.856 -1.5375 -0.8936 -0.7741
 9974TIP3   OH251412   6.343   4.479   2.977  0.5124 -0.1310 -0.1568
 9974TIP3    H151413   6.296   4.547   3.025  1.6832 -0.2556  1.1826
 9974TIP3    H251414   6.333   4.400   3.031 -1.6038 -1.2896 -2.1229
 9975TIP3   OH251415   1.633   0.239  11.354 -0.3088  0.0829  0.4835
 9975TIP3    H151416   1.616   0.201  11.268 -0.4300 -0.5291  0.7732
 9975TIP3    H251417   1.570   0.196  11.412  1.3140 -1.1902  1.3163
 9976TIP3   OH251418   3.974   3.872   0.268  0.0437  0.1619  0.1599
 9976TIP3    H151419   3.969   3.803   0.203 -3.3849  0.0269  0.4729
 9976TIP3    H251420   3.993   3.951   0.218 -0.2595 -0.3219 -0.7300
 9977TIP3   OH251421   6.625   2.554   1.645 -0.1976 -0.4676  0.4028
 9977TIP3    H151422   6.647   2.516   1.560  0.5919  0.4184  0.2029
 9977TIP3    H251423   6.700   2.533   1.701  0.0706  0.4693  0.3940
 9978TIP3   OH251424   5.204   5.072  17.256 -0.2489 -0.2690  0.6984
 9978TIP3    H151425   5.126   5.066  17.311 -0.0154 -1.0384  0.9459
 9978TIP3    H251426   5.178   5.030  17.174  0.3498 -1.8099  1.2867
 9979TIP3   OH251427   2.981   6.325  16.004  0.2922  0.2389 -0.3151
 9979TIP3    H151428   3.020   6.411  16.019  1.4334 -0.6474  2.0211
 9979TIP3    H251429   2.961   6.292  16.092 -4.1876 -0.0560 -1.3350
 9980TIP3   OH251430   6.241   3.527   0.959 -0.2396 -0.1596  0.6859
 9980TIP3    H151431   6.262   3.537   0.866 -0.7719 -1.3195  0.4421
 9980TIP3    H251432   6.222   3.617   0.988 -3.0796 -0.1354 -1.0380
 9981TIP3   OH251433   6.794   2.475   2.215  0.3228  0.1671 -0.1202
 9981TIP3    H151434   6.764   2.550   2.265 -0.2631  1.4792 -2.3846
 9981TIP3    H251435   6.713   2.430   2.188  0.5435  0.5949 -1.5439
 9982TIP3   OH251436   4.930   6.265  13.981 -0.2408 -0.1664  0.1014
 9982TIP3    H151437   4.993   6.236  13.914  1.4521 -1.2589  2.1103
 9982TIP3    H251438   4.895   6.184  14.017 -0.4702  0.4097  1.1660
 9983TIP3   OH251439   5.663   2.310   3.957 -0.3943 -0.3368  0.1365
 9983TIP3    H151440   5.631   2.397   3.934  0.1960  0.6227  2.8362
 9983TIP3    H251441   5.613   2.285   4.034  0.2607 -1.9209  0.0765
 9984TIP3   OH251442   1.452   6.203   3.566  0.4069  0.1238  0.1585
 9984TIP3    H151443   1.393   6.155   3.508  0.0363  2.9838 -1.9684
 9984TIP3    H251444   1.537   6.162   3.554 -0.3480 -1.4703  0.1800
 9985TIP3   OH251445   5.162   3.886   0.876  0.3675  0.9372 -0.1822
 9985TIP3    H151446   5.160   3.832   0.797  0.2392  0.4241  0.1699
 9985TIP3    H251447   5.123   3.969   0.849 -1.9877 -0.0835 -0.0189
 9986TIP3   OH251448   3.967   4.465  13.443 -0.1529 -0.7598 -0.0294
 9986TIP3    H151449   3.905   4.406  13.400 -0.1078 -0.7069 -0.1668
 9986TIP3    H251450   3.944   4.552  13.410  2.6279 -1.1698 -3.2718
 9987TIP3   OH251451   2.314   5.242  15.221  0.1691 -0.2213  0.6804
 9987TIP3    H151452   2.257   5.277  15.152 -1.3548 -2.6711  0.6251
 9987TIP3    H251453   2.380   5.190  15.175 -0.9584 -2.0112  1.0218
 9988TIP3   OH251454   5.819   2.681   2.844 -0.2096  0.7075  0.3390
 9988TIP3    H151455   5.779   2.595   2.835  0.8279  0.1619  0.8112
 9988TIP3    H251456   5.752   2.743   2.815 -1.1519 -0.2265  0.5194
 9989TIP3   OH251457   4.669   5.111   3.696  0.1079  0.4003 -0.4216
 9989TIP3    H151458   4.696   5.128   3.786  0.7825  0.1101 -0.5689
 9989TIP3    H251459   4.592   5.167   3.683 -0.9789 -0.7389  0.8577
 9990TIP3   OH251460   2.995   5.391   1.604  0.3046  0.0017  0.2652
 9990TIP3    H151461   3.034   5.329   1.665  1.7735  0.4694 -0.1842
 9990TIP3    H251462   3.039   5.474   1.622  0.5648  0.2064 -1.2398
 9991TIP3   OH251463   4.439   2.180   1.199  0.2112  0.1869  0.5675
 9991TIP3    H151464   4.437   2.264   1.245  0.1146 -0.8161  2.4513
 9991TIP3    H251465   4.383   2.123   1.252 -1.4909 -0.4723 -1.9019
 9992TIP3   OH251466   0.503   4.090  13.018 -0.5726  0.0436  0.2121
 9992TIP3    H151467   0.535   4.047  12.939  0.7634 -0.0874  0.8118
 9992TIP3    H251468   0.492   4.019  13.081 -2.3371  0.0457 -0.0552
 9993TIP3   OH251469   2.444   6.125   1.300  0.3468  0.3324 -0.0064
 9993TIP3    H151470   2.497   6.190   1.346  0.4459 -0.8661  1.6329
 9993TIP3    H251471   2.450   6.046   1.354 -0.7986 -0.6711 -1.2884
 9994TIP3   OH251472   4.003   1.314  11.969  0.8069 -0.5008 -0.3128
 9994TIP3    H151473   4.044   1.356  11.894  0.1638  0.4206 -0.1578
 9994TIP3    H251474   4.006   1.380  12.038  0.2315 -0.8812  0.0775
 9995TIP3   OH251475   1.970   3.963  13.340  0.2118 -0.0382 -0.1222
 9995TIP3    H151476   2.025   3.903  13.290  1.0876  0.6168  0.0499
 9995TIP3    H251477   2.031   4.020  13.386 -0.5965  0.1105  0.8012
 9996TIP3   OH251478   5.983   2.838   2.559 -0.0810  0.2296 -0.9136
 9996TIP3    H151479   6.027   2.884   2.631  0.5381  0.0941 -1.1957
 9996TIP3    H251480   5.933   2.906   2.514  0.1853  0.4749 -0.8441
 9997TIP3   OH251481   5.167   6.598   2.150 -0.7954 -0.8847 -0.1282
 9997TIP3    H151482   5.095   6.659   2.135 -0.7920 -1.0867 -0.9954
 9997TIP3    H251483   5.136   6.540   2.220 -1.3356 -0.7542 -0.2596
 9998TIP3   OH251484   6.103   1.994   3.623  0.0684  0.2501 -0.4072
 9998TIP3    H151485   6.152   1.962   3.547 -2.2609 -2.1183 -1.0025
 9998TIP3    H251486   6.133   1.938   3.695 -1.8562 -1.3797 -0.8268
 9999TIP3   OH251487   6.523   5.913   6.040 -0.1628 -0.3455  0.0131
 9999TIP3    H151488   6.557   5.977   5.978  0.5158  0.8695  1.6226
 9999TIP3    H251489   6.453   5.959   6.086  1.0563 -0.3837  1.9379
10000TIP3   OH251490   1.166   5.865   4.800 -0.4914 -0.2106  0.0566
10000TIP3    H151491   1.254   5.900   4.811 -0.2057 -1.1075  0.6902
10000TIP3    H251492   1.153   5.861   4.705  0.1290 -0.0146 -0.0366
10001TIP3   OH251493   1.241   3.986  14.701 -0.5318  0.4230 -0.3751
10001TIP3    H151494   1.296   3.910  14.684 -0.5229  0.3685 -0.0975
10001TIP3    H251495   1.166   3.974  14.643 -0.0315  0.7383 -1.1033
10002TIP3   OH251496   0.276   6.092   4.288  0.6432 -0.1283 -0.3228
10002TIP3    H151497   0.185   6.100   4.317  0.5853 -0.7297 -0.3225
10002TIP3    H251498   0.326   6.147   4.348  0.1864  0.8291 -0.8034
10003TIP3   OH251499   5.655   2.947   4.163  0.0887 -0.0584 -0.5361
10003TIP3    H151500   5.637   3.027   4.114  0.8215  2.0859  2.5486
10003TIP3    H251501   5.580   2.890   4.146 -1.1733  1.8838 -1.5489
10004TIP3   OH251502   6.035   0.787   2.267 -0.4537 -0.7489 -0.1299
10004TIP3    H151503   6.005   0.837   2.343 -0.3152 -0.1210 -0.4770
10004TIP3    H251504   6.109   0.735   2.299 -0.9736 -1.1784  0.3761
10005TIP3   OH251505   4.252   5.131  12.221  0.1296 -0.0082  0.2957
10005TIP3    H151506   4.195   5.139  12.144  0.3926 -2.9258 -0.2226
10005TIP3    H251507   4.204   5.073  12.280  0.9078  0.5134  1.4562
10006TIP3   OH251508   1.623   0.685  14.867  0.4781 -0.7140 -0.5272
10006TIP3    H151509   1.703   0.644  14.899  0.5892  1.6802  2.4105
10006TIP3    H251510   1.638   0.779  14.875 -1.7961 -0.1624 -2.0407
10007TIP3   OH251511   5.224   2.379   2.050 -0.2366  0.3428  0.0403
10007TIP3    H151512   5.192   2.469   2.049 -1.4396 -0.0648  0.5466
10007TIP3    H251513   5.149   2.327   2.078  0.4853 -0.8076 -0.1002
10008TIP3   OH251514   0.265   3.050   1.880 -0.2095  0.1229 -0.0459
10008TIP3    H151515   0.201   3.104   1.927 -0.1341  1.0509 -0.9763
10008TIP3    H251516   0.220   2.968   1.863 -0.4875  0.0520  0.9910
10009TIP3   OH251517   5.115   6.389  11.273 -0.4811 -0.2898 -1.1490
10009TIP3    H151518   5.210   6.375  11.279 -0.6958 -0.7862  1.3373
10009TIP3    H251519   5.106   6.483  11.260  0.2651  0.2562  1.9269
10010TIP3   OH251520   2.065   0.470  12.253  0.0450 -0.3913  0.0203
10010TIP3    H151521   2.050   0.375  12.250 -1.2408 -0.1944 -0.1095
10010TIP3    H251522   2.088   0.494  12.163 -0.0931 -0.5063 -0.0457
10011TIP3   OH251523   3.660   5.999  16.095 -0.2016  0.0611 -0.0661
10011TIP3    H151524   3.583   5.992  16.039 -0.8381  0.8846  0.6930
10011TIP3    H251525   3.625   6.017  16.182  0.8278 -0.0454  0.3814
10012TIP3   OH251526   2.173   1.075   5.082  0.4284  0.6688 -0.5981
10012TIP3    H151527   2.162   1.058   4.989 -1.2697 -0.4045 -0.2258
10012TIP3    H251528   2.167   0.989   5.124  0.8628  1.1657  0.5246
10013TIP3   OH251529   1.991   4.619  16.847 -0.3318 -0.1689  0.1136
10013TIP3    H151530   2.078   4.596  16.881  1.3095  2.1188 -2.3200
10013TIP3    H251531   1.954   4.675  16.915  1.1891  0.9314  0.0750
10014TIP3   OH251532   3.921   2.309   6.115 -0.3819 -0.0148  0.2423
10014TIP3    H151533   3.921   2.214   6.103  2.4617 -0.0028 -0.3448
10014TIP3    H251534   3.957   2.321   6.203  0.5289  0.5301 -0.1964
10015TIP3   OH251535   1.686   1.685   1.197 -0.7520  0.5891 -0.6477
10015TIP3    H151536   1.715   1.745   1.265 -0.3012 -1.7216  1.2509
10015TIP3    H251537   1.594   1.669   1.216 -0.2718 -1.1509  0.2755
10016TIP3   OH251538   4.342   1.468   6.018  0.0905 -0.2401  0.8977
10016TIP3    H151539   4.329   1.514   6.101  0.7272 -0.1564  0.9549
10016TIP3    H251540   4.346   1.376   6.042  0.1748 -0.2233  0.9473
10017TIP3   OH251541   0.984   5.654   0.768  0.4723  0.5639 -0.3570
10017TIP3    H151542   1.069   5.697   0.757  0.7977 -0.3856 -1.5924
10017TIP3    H251543   0.930   5.720   0.811  1.9171  1.0684  0.7265
10018TIP3   OH251544   2.323   3.159   0.345 -0.0483  0.7191  0.0346
10018TIP3    H151545   2.297   3.067   0.347 -0.4296  0.8153 -0.6063
10018TIP3    H251546   2.268   3.198   0.278 -0.0339  1.4617  0.4510
10019TIP3   OH251547   1.366   6.474  15.573  0.6496  0.4196  0.7071
10019TIP3    H151548   1.325   6.441  15.653  0.7934 -0.2935  0.4990
10019TIP3    H251549   1.426   6.541  15.602 -2.8308  3.6780  0.7813
10020TIP3   OH251550   1.772   1.175  15.579  0.1119  0.4150  0.9413
10020TIP3    H151551   1.686   1.202  15.612  0.0996  1.5328  0.0633
10020TIP3    H251552   1.834   1.232  15.625  0.2582  0.5805  0.5435
10021TIP3   OH251553   2.460   0.968  13.172  0.2464  0.3699 -0.5193
10021TIP3    H151554   2.487   0.930  13.089 -2.8355  0.7032 -1.7465
10021TIP3    H251555   2.395   0.906  13.207  0.4910  0.9212  0.9802
10022TIP3   OH251556   4.286   2.507   3.735 -0.3127 -0.1789  0.4199
10022TIP3    H151557   4.302   2.583   3.678 -0.6146 -1.5581 -1.5192
10022TIP3    H251558   4.366   2.455   3.728 -0.6144 -0.6860  0.7665
10023TIP3   OH251559   1.957   3.675   5.428  0.3663  0.2000 -0.6030
10023TIP3    H151560   2.019   3.633   5.487  1.2852  0.1062 -1.6104
10023TIP3    H251561   2.003   3.752   5.396 -1.1177  1.7031  0.8305
10024TIP3   OH251562   2.021   6.075   6.297  1.1101  0.5469  0.2341
10024TIP3    H151563   2.044   6.057   6.206 -0.2547 -0.2141  0.0161
10024TIP3    H251564   1.944   6.020   6.313  0.9019  1.2271  1.6221
10025TIP3   OH251565   5.952   5.089   2.385  0.1442 -0.6394  0.3529
10025TIP3    H151566   5.882   5.035   2.422 -1.3920  0.5288 -0.7654
10025TIP3    H251567   6.009   5.028   2.339 -1.0585 -1.4154 -0.1193
10026TIP3   OH251568   3.815   5.721   4.792  0.0292 -0.0908  0.0424
10026TIP3    H151569   3.882   5.783   4.761 -0.5343 -0.1955 -1.4478
10026TIP3    H251570   3.785   5.758   4.875  2.2266 -0.2693  0.9482
10027TIP3   OH251571   1.729   6.124  12.319  0.3706 -0.1872 -0.6445
10027TIP3    H151572   1.650   6.071  12.309  0.0875  0.4899 -2.2716
10027TIP3    H251573   1.700   6.201  12.369  0.4568 -0.8736  0.4718
10028TIP3   OH251574   1.068   6.287  13.914  0.9140 -0.1246  0.5866
10028TIP3    H151575   1.140   6.245  13.866  0.3151 -0.0623 -0.3782
10028TIP3    H251576   1.016   6.330  13.846  0.2719  0.2911  1.3400
10029TIP3   OH251577   5.698   6.279  12.765 -0.6327  0.5138  0.4555
10029TIP3    H151578   5.744   6.335  12.702 -2.1687 -0.6479 -1.7756
10029TIP3    H251579   5.768   6.238  12.816  0.6997  0.9600 -0.9663
10030TIP3   OH251580   0.820   2.766  16.440  0.4243  0.6779 -0.2462
10030TIP3    H151581   0.880   2.749  16.513  0.4266  0.1419 -0.3669
10030TIP3    H251582   0.810   2.681  16.397 -0.7676  0.6605  0.0364
10031TIP3   OH251583   6.161   3.442  12.628  0.2084  0.1218  0.0047
10031TIP3    H151584   6.116   3.390  12.562  0.6495 -1.0347  0.6147
10031TIP3    H251585   6.248   3.402  12.636 -0.2974 -0.5871  2.2595
10032TIP3   OH251586   1.011   0.853  15.797  0.2239  0.3007 -0.8105
10032TIP3    H151587   1.039   0.762  15.808  1.0420  0.7833  1.4456
10032TIP3    H251588   0.920   0.853  15.826  0.4414  0.3297 -0.1185
10033TIP3   OH251589   1.133   3.677   4.245 -0.0246  0.1528 -0.0561
10033TIP3    H151590   1.090   3.762   4.246  0.6511  0.4869  0.5411
10033TIP3    H251591   1.114   3.639   4.331  0.8698  0.2977  0.2065
10034TIP3   OH251592   4.995   2.890  12.987 -0.0279 -0.1987 -0.4513
10034TIP3    H151593   4.971   2.825  13.053 -0.2904  0.8121  0.4827
10034TIP3    H251594   5.076   2.929  13.020 -0.3957  0.6145 -0.4971
10035TIP3   OH251595   1.006   6.369   3.713 -0.0992 -0.2790 -0.4259
10035TIP3    H151596   0.919   6.395   3.682 -0.6969 -0.7929  0.7666
10035TIP3    H251597   1.025   6.430   3.784  1.1177  0.6965 -1.5716
10036TIP3   OH251598   5.582   2.237  16.173  0.8326 -0.2917  0.4999
10036TIP3    H151599   5.535   2.263  16.094 -0.2404  0.1820  1.2772
10036TIP3    H251600   5.546   2.151  16.195  0.0670  0.2219  1.2873
10037TIP3   OH251601   5.445   6.346  17.082 -0.1452  0.6550  0.1954
10037TIP3    H151602   5.492   6.345  16.998 -0.2029  0.3980  0.1669
10037TIP3    H251603   5.384   6.419  17.075  1.4341  2.0982  0.8790
10038TIP3   OH251604   1.758   6.011   2.236 -0.3741 -0.5631 -0.3589
10038TIP3    H151605   1.781   5.919   2.247  0.3759 -0.3362 -0.0315
10038TIP3    H251606   1.786   6.053   2.317  0.3280  0.1575 -0.9738
10039TIP3   OH251607   0.652   6.638   0.599 -0.6000 -0.5661 -0.2360
10039TIP3    H151608   0.671   6.546   0.583 -0.5196 -0.5435 -0.2727
10039TIP3    H251609   0.670   6.651   0.692 -0.7207 -0.6139 -0.2065
10040TIP3   OH251610   1.293   1.319   0.552 -0.1148 -0.4586  0.2720
10040TIP3    H151611   1.215   1.324   0.608  0.2638  1.6055  0.6675
10040TIP3    H251612   1.350   1.388   0.585  1.3661 -1.1454 -0.8088
10041TIP3   OH251613   1.339   2.385   3.092  0.0126  0.2292 -0.2830
10041TIP3    H151614   1.340   2.291   3.072  2.2179  0.4004 -1.1031
10041TIP3    H251615   1.300   2.425   3.014 -2.2370 -0.0930  0.6376
10042TIP3   OH251616   6.470   3.129  16.706  0.4770 -0.5710  0.4202
10042TIP3    H151617   6.543   3.114  16.646  0.8592  0.5821  0.5786
10042TIP3    H251618   6.424   3.204  16.669 -0.1109 -0.7408  0.8049
10043TIP3   OH251619   5.345   6.129   3.282  0.4975 -0.4784  0.2438
10043TIP3    H151620   5.360   6.075   3.360  0.1718  0.6459  1.0939
10043TIP3    H251621   5.296   6.204   3.314  0.7861  0.2360 -0.9688
10044TIP3   OH251622   5.869   5.450   1.981 -0.6098  0.4765  0.2467
10044TIP3    H151623   5.963   5.438   1.976 -0.9913 -2.4973 -0.7091
10044TIP3    H251624   5.837   5.377   2.034 -2.3936  1.3839  0.4841
10045TIP3   OH251625   3.545   0.476   5.746 -0.2186  0.8527  0.0246
10045TIP3    H151626   3.476   0.527   5.790  0.2565  1.8064 -0.3117
10045TIP3    H251627   3.624   0.495   5.796 -0.7141 -2.7255  2.3538
10046TIP3   OH251628   3.103   5.392   2.247  0.2150 -0.7979  0.5804
10046TIP3    H151629   3.135   5.390   2.157  0.3985 -0.6945  0.6431
10046TIP3    H251630   3.009   5.412   2.239 -0.2521 -3.0406  0.2998
10047TIP3   OH251631   3.429   3.614  12.445 -0.0844 -0.1448  0.3994
10047TIP3    H151632   3.447   3.528  12.483  0.8155 -0.6167 -1.0395
10047TIP3    H251633   3.469   3.676  12.505  1.0131 -0.8584  0.4212
10048TIP3   OH251634   5.600   5.981  13.448 -0.2954 -0.0017  0.0774
10048TIP3    H151635   5.587   5.889  13.468 -1.0595  0.4062  1.5299
10048TIP3    H251636   5.662   6.012  13.514 -0.3262  0.6089 -0.1737
10049TIP3   OH251637   0.413   1.457  16.707 -0.1600  0.0312  0.2517
10049TIP3    H151638   0.503   1.461  16.675 -0.5928 -0.5822 -1.0801
10049TIP3    H251639   0.361   1.495  16.636 -0.6851  3.1694  2.2055
10050TIP3   OH251640   5.272   2.820  13.086  0.5659 -0.0121 -0.6939
10050TIP3    H151641   5.346   2.812  13.026  0.4324  1.3214 -1.0432
10050TIP3    H251642   5.311   2.847  13.169  0.5071  0.4574 -0.8160
10051TIP3   OH251643   3.177   3.940  10.990 -0.2758 -0.5159 -0.5799
10051TIP3    H151644   3.163   3.922  10.897 -0.5507  1.1951 -0.8894
10051TIP3    H251645   3.228   4.021  10.991 -0.9536 -0.0977  0.7663
10052TIP3   OH251646   0.987   5.883  17.140 -0.7906 -0.8122 -0.0684
10052TIP3    H151647   1.082   5.893  17.141 -0.8911  0.2846 -0.3676
10052TIP3    H251648   0.971   5.800  17.186  0.2614 -0.5942  0.7208
10053TIP3   OH251649   5.336   4.419   2.539 -0.6706  0.0938 -0.0978
10053TIP3    H151650   5.407   4.429   2.603 -1.8497 -1.1005  1.4194
10053TIP3    H251651   5.362   4.344   2.487 -0.3494  0.2636 -0.1879
10054TIP3   OH251652   4.218   6.193   4.691  0.0911  0.1044 -0.4011
10054TIP3    H151653   4.155   6.154   4.631 -1.0013  1.4534 -0.1429
10054TIP3    H251654   4.228   6.128   4.761 -1.8397  0.3502  0.1167
10055TIP3   OH251655   2.176   5.843  15.918  0.5295 -0.2715 -0.5576
10055TIP3    H151656   2.145   5.763  15.874 -0.5746 -0.8230  1.1567
10055TIP3    H251657   2.111   5.909  15.894  0.5800 -0.2788 -0.7156
10056TIP3   OH251658   0.459   0.193   1.230 -0.2072 -0.2879  0.6638
10056TIP3    H151659   0.409   0.213   1.309  1.7046  1.0689  1.5777
10056TIP3    H251660   0.550   0.208   1.255  0.3872  0.7430 -1.9731
10057TIP3   OH251661   5.647   1.883   5.079  0.2188 -0.2880 -0.4824
10057TIP3    H151662   5.682   1.929   5.155  1.6477 -0.2134 -1.1630
10057TIP3    H251663   5.624   1.796   5.112 -0.4221  0.1747  0.3170
10058TIP3   OH251664   0.752   5.441  11.636  0.5315  0.3197  0.3211
10058TIP3    H151665   0.844   5.456  11.616  0.1242 -0.3877 -2.3105
10058TIP3    H251666   0.743   5.346  11.638 -0.1575  0.3835  0.3780
10059TIP3   OH251667   2.895   1.144   5.442  0.0491 -0.0389 -0.0817
10059TIP3    H151668   2.978   1.097   5.432 -0.0213 -0.3720  0.9135
10059TIP3    H251669   2.867   1.161   5.352  1.0075 -0.2585 -0.4256
10060TIP3   OH251670   2.535   0.932  16.139 -0.8530 -0.1864 -0.2190
10060TIP3    H151671   2.550   0.955  16.231  0.6397 -2.1573  0.0633
10060TIP3    H251672   2.621   0.945  16.098 -1.1550 -0.7495 -1.0228
10061TIP3   OH251673   0.377   5.676   6.796  0.3264  0.3628 -0.2920
10061TIP3    H151674   0.426   5.602   6.760  4.0964  0.4985  4.2112
10061TIP3    H251675   0.310   5.636   6.851  1.7484  0.2533  1.3786
10062TIP3   OH251676   2.877   0.280   1.733 -0.0584  0.5424 -0.4382
10062TIP3    H151677   2.909   0.361   1.773  2.9018 -1.6537  1.8567
10062TIP3    H251678   2.876   0.216   1.805 -0.5211 -1.9597 -2.5742
10063TIP3   OH251679   4.026   1.019   2.704  0.1451 -0.3273  0.0958
10063TIP3    H151680   3.997   0.928   2.696 -0.9712  0.0658 -0.4899
10063TIP3    H251681   3.957   1.061   2.756  0.5619  0.2257  0.2041
10064TIP3   OH251682   2.371   3.429  10.372 -0.2715  0.4683 -0.4822
10064TIP3    H151683   2.389   3.496  10.306 -1.2231  0.2999 -0.9281
10064TIP3    H251684   2.401   3.467  10.454 -0.5708  1.3424 -0.7729
10065TIP3   OH251685   2.015   6.506   5.320 -0.6214 -0.0841 -0.5557
10065TIP3    H151686   1.971   6.440   5.267 -0.8156 -0.9221  0.6166
10065TIP3    H251687   2.082   6.542   5.263 -0.3329 -1.5039 -1.1419
10066TIP3   OH251688   1.640   2.056  14.235 -0.1645  0.5142 -0.1497
10066TIP3    H151689   1.549   2.031  14.252 -0.1706  0.2682 -0.5209
10066TIP3    H251690   1.652   2.139  14.281 -0.8248  0.9689 -0.7761
10067TIP3   OH251691   4.400   1.135  15.070  0.8158  0.2315 -0.3196
10067TIP3    H151692   4.440   1.051  15.090  1.5092  0.3321 -1.2618
10067TIP3    H251693   4.462   1.179  15.012  0.3804  1.3216  0.0185
10068TIP3   OH251694   2.853   5.143  13.147  0.1985  0.2610  0.1796
10068TIP3    H151695   2.833   5.060  13.190  1.9470  0.0526  0.6242
10068TIP3    H251696   2.879   5.201  13.219 -0.4307  1.0345 -0.1980
10069TIP3   OH251697   1.768   4.791   6.122  0.0486 -0.7856  0.0505
10069TIP3    H151698   1.840   4.728   6.126  0.8380  0.1506  0.5136
10069TIP3    H251699   1.791   4.859   6.185 -1.2890 -0.5255  0.2735
10070TIP3   OH251700   4.267   6.309  12.148 -0.3134 -0.2267  0.0194
10070TIP3    H151701   4.249   6.226  12.192  1.2233 -0.8804 -0.5148
10070TIP3    H251702   4.220   6.375  12.198  1.1524 -0.9871  2.4597
10071TIP3   OH251703   0.506   2.485   0.958 -0.0196 -0.8219  0.5356
10071TIP3    H151704   0.559   2.509   1.034 -0.8236 -0.3163  0.9377
10071TIP3    H251705   0.531   2.395   0.939  0.1457 -0.9691  1.4276
10072TIP3   OH251706   4.908   1.176   3.408  0.3840  0.7769 -0.3411
10072TIP3    H151707   4.880   1.189   3.318  1.6117 -1.9312 -1.1755
10072TIP3    H251708   4.833   1.131   3.449 -0.9736  3.7523  0.5916
10073TIP3   OH251709   4.232   4.395   3.050  0.1290 -0.4413 -0.8693
10073TIP3    H151710   4.150   4.403   3.000 -0.5660  1.1627  0.4725
10073TIP3    H251711   4.275   4.480   3.038  0.0304 -0.0989  1.1253
10074TIP3   OH251712   4.023   3.665   2.454  0.1371 -0.3180 -0.0201
10074TIP3    H151713   4.010   3.584   2.503 -2.6989 -0.2100 -0.4674
10074TIP3    H251714   4.031   3.637   2.362 -0.9501 -0.1091 -0.1876
10075TIP3   OH251715   6.382   6.194  16.940 -0.7237  0.1646 -0.3238
10075TIP3    H151716   6.400   6.259  17.008 -0.4898 -0.3128  0.0729
10075TIP3    H251717   6.322   6.133  16.982 -0.1969 -0.3997 -0.3944
10076TIP3   OH251718   1.783   3.680  13.612  0.3925 -0.0756 -0.4900
10076TIP3    H151719   1.728   3.634  13.548 -0.5984 -1.0957  1.0517
10076TIP3    H251720   1.781   3.771  13.583  0.6076 -0.6435 -2.3552
10077TIP3   OH251721   0.370   1.540  14.124 -0.0327 -0.6152 -0.2559
10077TIP3    H151722   0.392   1.486  14.049 -0.4582 -1.9624  0.5804
10077TIP3    H251723   0.274   1.536  14.130 -0.1116  0.6444 -0.4911
10078TIP3   OH251724   3.667   5.671   2.121  0.1225 -0.2286 -0.4585
10078TIP3    H151725   3.697   5.583   2.099 -1.1492 -0.4115 -1.4896
10078TIP3    H251726   3.695   5.725   2.047  0.0075  0.0503 -0.3007
10079TIP3   OH251727   1.425   5.496   0.324  0.3782 -0.1234 -0.1999
10079TIP3    H151728   1.450   5.536   0.241  1.3259 -1.4571 -0.5838
10079TIP3    H251729   1.432   5.567   0.388 -1.0335  1.0797 -1.3518
10080TIP3   OH251730   5.057   0.221  13.564 -0.3553 -0.6362 -0.5882
10080TIP3    H151731   5.133   0.189  13.612 -0.1175  0.0473 -0.5020
10080TIP3    H251732   5.093   0.283  13.501 -0.9139  0.2093 -0.0858
10081TIP3   OH251733   4.054   1.889   2.508 -0.1287  0.0022 -0.1364
10081TIP3    H151734   4.145   1.867   2.488 -0.5037 -0.9244 -0.7874
10081TIP3    H251735   4.002   1.827   2.458 -1.1551  1.3608 -0.7840
10082TIP3   OH251736   2.802   0.759   1.693  0.5167  0.0569 -0.3198
10082TIP3    H151737   2.796   0.686   1.754 -0.5045  0.2424 -0.1882
10082TIP3    H251738   2.888   0.750   1.652  1.4673  0.2594  1.5731
10083TIP3   OH251739   3.940   0.966  13.069  0.0835 -0.2981  0.3397
10083TIP3    H151740   4.005   1.023  13.029 -0.3470 -0.7605 -1.0620
10083TIP3    H251741   3.989   0.909  13.128  0.6257  0.9261  1.0880
10084TIP3   OH251742   6.514   4.893  10.702  0.2064  0.4092 -0.0549
10084TIP3    H151743   6.500   4.893  10.608  0.5008 -0.3564 -0.1082
10084TIP3    H251744   6.442   4.944  10.738  0.2486  0.9384 -0.7155
10085TIP3   OH251745   2.732   2.312  11.238 -0.3044  0.8757 -0.6709
10085TIP3    H151746   2.728   2.218  11.221 -0.7473  0.6157  0.8509
10085TIP3    H251747   2.695   2.323  11.325  2.3327  2.1596  0.3269
10086TIP3   OH251748   4.804   1.561  14.748  0.7072  0.2221 -0.1832
10086TIP3    H151749   4.786   1.552  14.842  0.8115  0.4117 -0.1429
10086TIP3    H251750   4.884   1.613  14.744  0.6923  0.2305 -0.3786
10087TIP3   OH251751   4.294   0.483  12.936 -0.5277 -0.3981  0.2220
10087TIP3    H151752   4.219   0.427  12.917 -1.9506  1.4853  0.1886
10087TIP3    H251753   4.330   0.448  13.018 -1.9729 -0.7900  0.6987
10088TIP3   OH251754   1.485   3.203   1.526  0.0670 -0.5243  0.1455
10088TIP3    H151755   1.578   3.200   1.546  0.0062  0.6075  0.6208
10088TIP3    H251756   1.455   3.287   1.560 -0.5652  0.3630 -2.5057
10089TIP3   OH251757   5.668   4.235  13.316 -0.0066  0.4601  0.3993
10089TIP3    H151758   5.703   4.232  13.405  0.1883 -2.9057  0.2765
10089TIP3    H251759   5.737   4.198  13.261 -0.9406  0.5370 -0.8550
10090TIP3   OH251760   2.964   6.097   3.231 -0.3590  0.3146 -0.3024
10090TIP3    H151761   2.879   6.087   3.274 -0.3433 -0.5688 -0.4566
10090TIP3    H251762   2.972   6.191   3.214  0.3150  0.9051  2.9590
10091TIP3   OH251763   3.498   5.879  13.089 -0.2009 -0.5199 -0.0917
10091TIP3    H151764   3.480   5.789  13.063 -0.0876 -0.4102 -0.5539
10091TIP3    H251765   3.468   5.932  13.016  1.1326 -0.2830 -0.4925
10092TIP3   OH251766   0.572   6.407  15.292  0.9997  0.6143  0.3331
10092TIP3    H151767   0.489   6.424  15.249  1.6017  0.7336 -0.8050
10092TIP3    H251768   0.549   6.380  15.381 -0.2189  1.3600  0.2515
10093TIP3   OH251769   1.213   1.897   3.124 -0.1181  0.1917 -0.1074
10093TIP3    H151770   1.179   1.847   3.198  2.0103  0.7113  1.2557
10093TIP3    H251771   1.231   1.830   3.057  2.2621 -0.8823  1.5348
10094TIP3   OH251772   0.696   1.070  13.361 -0.2257  0.2012  0.4417
10094TIP3    H151773   0.711   1.104  13.449  1.4831  0.4324  0.0933
10094TIP3    H251774   0.730   0.981  13.363 -0.6760  0.0216  0.1638
10095TIP3   OH251775   3.765   0.701  12.421  0.8049  0.4523 -0.0434
10095TIP3    H151776   3.691   0.639  12.423 -0.3855  1.8640  1.0518
10095TIP3    H251777   3.734   0.773  12.367  1.5682  0.8403  0.0342
10096TIP3   OH251778   0.219   5.293  13.268  0.4330  0.1699  0.1576
10096TIP3    H151779   0.203   5.286  13.362 -0.1388 -2.5422 -0.1125
10096TIP3    H251780   0.313   5.278  13.258 -0.0207 -2.8513  0.0358
10097TIP3   OH251781   3.510   4.019  16.854  0.3417  0.3117 -0.3886
10097TIP3    H151782   3.447   3.948  16.868 -0.2535  1.1226  1.1358
10097TIP3    H251783   3.552   3.997  16.771  0.1157 -1.7904  0.0148
10098TIP3   OH251784   6.031   4.292   4.452  0.3389  0.1550 -0.2193
10098TIP3    H151785   6.103   4.241   4.489  0.2311  0.7483  0.8007
10098TIP3    H251786   5.999   4.238   4.380  1.3189 -0.4518 -0.2109
10099TIP3   OH251787   4.923   2.543  14.245  0.0767 -0.4270 -0.6509
10099TIP3    H151788   5.019   2.537  14.249  0.0029 -1.3798 -0.1185
10099TIP3    H251789   4.898   2.578  14.331  0.1314  2.5413 -1.8177
10100TIP3   OH251790   3.323   5.356   4.970 -0.4223  0.0067  0.3030
10100TIP3    H151791   3.379   5.300   4.916 -0.5616  0.9424 -0.8378
10100TIP3    H251792   3.379   5.430   4.993 -1.0961  0.7964 -0.5849
10101TIP3   OH251793   6.688   5.602  16.057  0.3141 -0.2796  0.1613
10101TIP3    H151794   6.635   5.590  16.135 -2.6999  2.1255 -1.4155
10101TIP3    H251795   6.749   5.673  16.079 -0.3398  0.1988  0.4249
10102TIP3   OH251796   2.076   2.426  16.526 -0.1943  0.2514 -0.1622
10102TIP3    H151797   2.097   2.335  16.546  0.5976  0.3515 -0.5373
10102TIP3    H251798   1.982   2.425  16.505 -0.3370 -0.3630  0.4832
10103TIP3   OH251799   2.781   4.023  13.641  0.3019  0.5162 -0.3695
10103TIP3    H151800   2.730   3.985  13.570  1.5420 -0.5842 -0.6867
10103TIP3    H251801   2.838   3.952  13.670  0.0435  1.0513  1.5103
10104TIP3   OH251802   4.784   1.341  16.765 -0.3882 -0.2495  0.3141
10104TIP3    H151803   4.692   1.368  16.764 -0.8493 -1.7852 -0.1553
10104TIP3    H251804   4.833   1.423  16.757 -1.7426  0.4444 -1.0826
10105TIP3   OH251805   0.988   6.805  10.902  0.4928  0.1461 -0.1193
10105TIP3    H151806   1.035   6.888  10.913 -2.1273  1.5733  0.8188
10105TIP3    H251807   1.013   6.752  10.978 -1.6961  2.0824  2.0483
10106TIP3   OH251808   3.411   6.768  13.306 -0.0207 -0.6211 -0.1402
10106TIP3    H151809   3.494   6.734  13.338 -0.4068 -2.0024 -0.5600
10106TIP3    H251810   3.386   6.835  13.370  0.8672 -0.9673  0.5771
10107TIP3   OH251811   0.677   2.899   2.281  0.4287  0.3016 -0.0442
10107TIP3    H151812   0.709   2.860   2.199  1.9510  0.7217  0.3237
10107TIP3    H251813   0.725   2.982   2.288 -1.6049  1.5217 -0.0273
10108TIP3   OH251814   1.775   5.565   5.320 -0.4522  0.0377 -0.0654
10108TIP3    H151815   1.721   5.642   5.304  2.4336  1.6952 -2.3797
10108TIP3    H251816   1.855   5.598   5.362  0.0793 -1.9327  0.5755
10109TIP3   OH251817   5.402   0.575  12.991  0.5973 -0.8056 -0.1506
10109TIP3    H151818   5.384   0.516  13.065 -1.2259 -1.1720 -0.8604
10109TIP3    H251819   5.327   0.563  12.932  2.9640 -2.0353 -3.0267
10110TIP3   OH251820   0.647   5.216   1.949 -0.7407  0.0513  0.7392
10110TIP3    H151821   0.553   5.198   1.945 -0.3868 -1.7784 -0.1504
10110TIP3    H251822   0.664   5.274   1.874 -1.5739  2.5852  2.4534
10111TIP3   OH251823   6.529   3.491   4.250  0.4851 -0.1186 -0.6105
10111TIP3    H151824   6.531   3.565   4.311  1.3736  0.7564 -1.6721
10111TIP3    H251825   6.482   3.422   4.297 -0.5464  1.1910  0.3190
10112TIP3   OH251826   2.267   5.446   2.263  0.4669  0.6233  0.0492
10112TIP3    H151827   2.185   5.416   2.222  0.8723 -0.9812  0.3886
10112TIP3    H251828   2.335   5.427   2.199  0.8757 -0.2491  0.7301
10113TIP3   OH251829   0.119   2.058  13.757 -0.4817 -0.1948 -0.0627
10113TIP3    H151830   0.103   2.152  13.759  1.2213  0.0769  1.8657
10113TIP3    H251831   0.122   2.036  13.664  1.6005  2.1155 -0.5835
10114TIP3   OH251832   3.650   0.050   6.471 -0.1242  0.6380 -0.1959
10114TIP3    H151833   3.688  -0.033   6.442 -1.7686 -0.1644 -0.1645
10114TIP3    H251834   3.560   0.027   6.495  0.0001  2.0552  1.7390
10115TIP3   OH251835   1.539   6.769  14.277 -0.0414 -0.1715  0.2609
10115TIP3    H151836   1.571   6.793  14.363 -0.0872  1.3918 -0.1418
10115TIP3    H251837   1.561   6.844  14.221  0.5842 -1.4453 -1.2299
10116TIP3   OH251838   4.247   1.627  13.373 -0.2656  0.1993 -0.1016
10116TIP3    H151839   4.171   1.633  13.315 -0.7425  1.1782  0.6009
10116TIP3    H251840   4.321   1.650  13.318 -0.9771  3.4967  0.1858
10117TIP3   OH251841   6.641   3.645  11.233 -0.1409 -0.1365 -0.0285
10117TIP3    H151842   6.623   3.688  11.149 -2.9195 -1.0208  0.0359
10117TIP3    H251843   6.570   3.675  11.290  1.4133  0.0284  1.8392
10118TIP3   OH251844   5.729   1.102   2.541  0.1223 -0.1395 -0.0632
10118TIP3    H151845   5.724   1.047   2.620  3.3534  0.2286  0.4413
10118TIP3    H251846   5.788   1.173   2.565  1.3616 -0.1463 -2.9050
10119TIP3   OH251847   2.331   4.067   2.922  0.2353 -0.6877  0.4810
10119TIP3    H151848   2.324   4.013   2.843 -1.6851  0.6970 -0.3229
10119TIP3    H251849   2.287   4.016   2.990 -2.8626  0.4119 -0.6027
10120TIP3   OH251850   1.292   4.272   0.506  0.1728 -0.5604  0.1561
10120TIP3    H151851   1.260   4.304   0.590  0.6122  0.8964 -0.2152
10120TIP3    H251852   1.238   4.317   0.441  2.7759  1.8224 -0.4793
10121TIP3   OH251853   0.883   3.481  11.949 -0.2799  0.0506 -0.7296
10121TIP3    H151854   0.957   3.477  11.888  1.0174 -2.8301  0.8829
10121TIP3    H251855   0.806   3.471  11.894  0.6315  1.1843 -2.2589
10122TIP3   OH251856   6.567   3.855   3.705 -0.3392  0.0632 -0.2822
10122TIP3    H151857   6.536   3.766   3.718  1.6965 -0.6208  0.0501
10122TIP3    H251858   6.647   3.861   3.757 -1.1727  2.5229  0.8116
10123TIP3   OH251859   4.931   3.176   5.546  0.4888 -0.2209  0.6143
10123TIP3    H151860   4.863   3.184   5.612 -1.5642  0.4992 -1.5256
10123TIP3    H251861   4.967   3.264   5.537  1.5015 -0.5344  1.5115
10124TIP3   OH251862   5.301   2.814  16.795  0.3695 -0.1222 -0.0038
10124TIP3    H151863   5.223   2.774  16.835  0.4725  0.9410  1.3068
10124TIP3    H251864   5.351   2.740  16.760 -1.0047 -0.8566 -0.4582
10125TIP3   OH251865   4.222   2.569   6.527 -0.0704 -0.5649 -0.3021
10125TIP3    H151866   4.180   2.645   6.486 -0.6162  0.0839  1.4086
10125TIP3    H251867   4.309   2.599   6.553 -0.6382 -0.1955  1.2610
10126TIP3   OH251868   0.090   1.847   1.063 -0.0666 -0.9312  0.0719
10126TIP3    H151869   0.185   1.849   1.056 -0.0087  0.1251  0.9109
10126TIP3    H251870   0.074   1.813   1.152 -0.4190  0.7292  0.6632
10127TIP3   OH251871   4.106   1.219  12.498 -0.4244 -0.2119 -0.1210
10127TIP3    H151872   4.043   1.152  12.472  0.2246 -0.2211 -1.7255
10127TIP3    H251873   4.190   1.174  12.499  0.3609  1.0525 -3.4200
10128TIP3   OH251874   4.504   0.259  13.428 -0.1469 -0.4997 -0.4541
10128TIP3    H151875   4.507   0.303  13.513 -0.2327 -0.6042 -0.3960
10128TIP3    H251876   4.557   0.180  13.440  1.4320  0.4429 -1.0733
10129TIP3   OH251877   1.269   0.545   0.843  0.5492  0.4299  0.4705
10129TIP3    H151878   1.328   0.598   0.897  0.2436  2.6032 -1.2563
10129TIP3    H251879   1.279   0.580   0.755  0.2896 -2.4001 -0.7365
10130TIP3   OH251880   1.756   3.382   2.601  0.1060  0.2669  0.5658
10130TIP3    H151881   1.661   3.382   2.611 -0.0984  0.0476 -1.2613
10130TIP3    H251882   1.780   3.289   2.604  0.0560  0.2071 -0.7662
10131TIP3   OH251883   5.566   4.465   2.719 -1.0809 -0.1821  0.0157
10131TIP3    H151884   5.583   4.517   2.797  0.3510  0.3013 -0.5784
10131TIP3    H251885   5.637   4.401   2.717 -1.0488 -0.1351 -0.9129
10132TIP3   OH251886   2.606   2.168   3.874 -0.5411  0.0473  0.2024
10132TIP3    H151887   2.634   2.164   3.782 -0.7710  0.0140  0.1335
10132TIP3    H251888   2.614   2.260   3.898  1.5345 -0.2514  0.7763
10133TIP3   OH251889   0.489   3.527  15.223  0.7517  0.1051  0.0731
10133TIP3    H151890   0.580   3.509  15.200  0.6224  0.4536 -0.7222
10133TIP3    H251891   0.487   3.621  15.241  0.3747  0.2510 -0.7291
10134TIP3   OH251892   6.796   3.491   1.511 -0.0055 -0.0333 -0.2472
10134TIP3    H151893   6.848   3.494   1.431  0.0049  0.9986 -0.2055
10134TIP3    H251894   6.852   3.446   1.575  0.1555 -0.4631 -0.6856
10135TIP3   OH251895   6.245   0.679  12.982 -0.1194 -0.1189  0.3158
10135TIP3    H151896   6.166   0.648  13.026 -0.6532 -2.0978 -1.9434
10135TIP3    H251897   6.315   0.624  13.016 -0.1235 -0.0010  0.5132
10136TIP3   OH251898   2.482   3.929  17.131 -0.0408 -0.2001 -0.1847
10136TIP3    H151899   2.395   3.921  17.170 -0.1281  1.1151 -0.0687
10136TIP3    H251900   2.530   3.852  17.161 -0.7657 -0.2695  0.8139
10137TIP3   OH251901   0.543   1.627  12.298 -0.7591 -0.2838 -0.3953
10137TIP3    H151902   0.450   1.644  12.310 -0.3263  0.7360  1.8134
10137TIP3    H251903   0.553   1.534  12.316 -1.1099 -0.0531  1.0403
10138TIP3   OH251904   2.787   4.300   1.585  0.2029  0.1809  0.7516
10138TIP3    H151905   2.844   4.263   1.653 -2.6861 -2.0090  2.1021
10138TIP3    H251906   2.737   4.368   1.630  0.2645  0.6665  0.0937
10139TIP3   OH251907   1.728   2.857   4.559 -0.3639 -0.1142  0.9726
10139TIP3    H151908   1.742   2.916   4.485  1.1367 -0.3268  1.0839
10139TIP3    H251909   1.639   2.824   4.547 -0.4954  0.6560 -0.1659
10140TIP3   OH251910   5.693   0.205   6.501  0.3010 -0.2173 -0.3329
10140TIP3    H151911   5.666   0.287   6.542  1.2565  0.9380 -1.9508
10140TIP3    H251912   5.611   0.157   6.486 -0.5172  1.5271 -1.5911
10141TIP3   OH251913   6.312   2.696   5.544  0.2283 -0.4141 -0.7140
10141TIP3    H151914   6.394   2.659   5.511  0.8021  0.8197 -0.6895
10141TIP3    H251915   6.324   2.790   5.538 -0.7035 -0.2042  0.5119
10142TIP3   OH251916   2.207   2.889   4.875 -0.3362 -0.1986 -0.3857
10142TIP3    H151917   2.165   2.908   4.959 -1.5615  1.1458 -1.2777
10142TIP3    H251918   2.212   2.794   4.872  2.2496 -0.2169  2.4270
10143TIP3   OH251919   4.521   2.690   0.138 -0.4540 -0.3888 -0.1098
10143TIP3    H151920   4.438   2.643   0.143 -1.7804  1.8367 -0.2521
10143TIP3    H251921   4.502   2.763   0.078  1.7178 -0.0681 -0.4258
10144TIP3   OH251922   4.986   4.853   5.778  0.1860 -0.1301  0.1248
10144TIP3    H151923   4.926   4.849   5.704  0.7085 -0.9043 -0.2606
10144TIP3    H251924   5.033   4.770   5.776  0.5176  0.0211  1.0653
10145TIP3   OH251925   4.056   1.445  12.893 -0.4748  0.4128 -0.4775
10145TIP3    H151926   4.098   1.491  12.965 -0.2773 -0.7816  0.1838
10145TIP3    H251927   4.004   1.512  12.849  2.4215  2.0613 -1.5946
10146TIP3   OH251928   6.141   4.376  13.710 -0.7371 -0.3112  0.6620
10146TIP3    H151929   6.146   4.471  13.716 -1.4054 -0.3068  1.2631
10146TIP3    H251930   6.084   4.360  13.635 -0.0690 -0.2516  0.1369
10147TIP3   OH251931   3.599   2.214  10.914  0.3284  0.3973  0.0584
10147TIP3    H151932   3.539   2.268  10.862 -1.2621  1.1552  2.5712
10147TIP3    H251933   3.597   2.128  10.871 -0.8031  1.0410 -1.2202
10148TIP3   OH251934   2.593   4.404  13.880 -0.1880  0.1024 -0.0909
10148TIP3    H151935   2.592   4.386  13.974  1.5784 -0.7289 -0.2122
10148TIP3    H251936   2.641   4.331  13.841  0.1130  1.0271 -1.5160
10149TIP3   OH251937   1.130   5.802   3.941  0.5679  0.0223 -0.1608
10149TIP3    H151938   1.123   5.781   3.848 -0.5362  2.2164 -0.5980
10149TIP3    H251939   1.117   5.718   3.985 -2.0460 -0.5620 -1.9060
10150TIP3   OH251940   0.356   4.509   0.210 -0.0364  0.4961 -0.4142
10150TIP3    H151941   0.322   4.471   0.129  2.7699 -0.2203 -1.3177
10150TIP3    H251942   0.443   4.469   0.221 -0.6238  0.0127  3.3461
10151TIP3   OH251943   1.203   2.982   1.466  0.2105 -0.0197  0.0415
10151TIP3    H151944   1.213   2.887   1.473 -0.8336 -0.2396 -1.1442
10151TIP3    H251945   1.130   3.003   1.524 -0.8218 -0.2153 -1.1807
10152TIP3   OH251946   2.773   3.970  12.534  0.1256 -0.0458  0.2219
10152TIP3    H151947   2.750   4.057  12.502  1.0783  0.4048  0.7255
10152TIP3    H251948   2.718   3.910  12.484 -1.0907  0.8922  0.4129
10153TIP3   OH251949   0.871   4.999   5.281  0.1970 -0.2688 -0.2986
10153TIP3    H151950   0.921   4.946   5.218  2.7073  3.0594 -1.2535
10153TIP3    H251951   0.901   4.970   5.367  0.5767 -1.2644 -0.7664
10154TIP3   OH251952   3.024   5.728   5.122 -0.3409 -0.2417  0.3367
10154TIP3    H151953   3.112   5.691   5.137 -0.8029 -0.5753  2.3647
10154TIP3    H251954   2.967   5.678   5.180 -1.8127  0.3020 -0.6170
10155TIP3   OH251955   3.026   2.977  16.427  0.1785 -0.4018  0.3811
10155TIP3    H151956   3.018   3.068  16.452  2.9051  0.4929 -1.7269
10155TIP3    H251957   2.937   2.941  16.435 -1.0195  2.5496  0.7181
10156TIP3   OH251958   5.671   3.463   6.229  0.3940 -0.4262 -0.4248
10156TIP3    H151959   5.716   3.527   6.284  1.1147 -1.4199  0.1757
10156TIP3    H251960   5.578   3.476   6.248  0.5492  0.2718 -0.1329
10157TIP3   OH251961   0.116   4.189   3.855  0.0440  0.0682 -0.2409
10157TIP3    H151962   0.100   4.279   3.882  1.4394  0.0153  0.7445
10157TIP3    H251963   0.066   4.180   3.773 -0.1266  1.7085 -0.3271
10158TIP3   OH251964   1.954   2.103  15.367 -0.2217  0.1666 -0.4366
10158TIP3    H151965   1.884   2.056  15.322 -1.1091  0.8368  0.2217
10158TIP3    H251966   1.919   2.191  15.380  0.2558  0.1534  1.0389
10159TIP3   OH251967   5.538   0.426  13.511  0.0633  0.2381  0.5918
10159TIP3    H151968   5.464   0.396  13.459  1.8028 -1.9832 -0.6553
10159TIP3    H251969   5.536   0.371  13.590  0.3304  0.2538  0.6083
10160TIP3   OH251970   3.668   0.900  12.249  0.5988  0.1460 -0.5046
10160TIP3    H151971   3.611   0.906  12.172 -3.2790  0.8643  2.2605
10160TIP3    H251972   3.698   0.990  12.264 -0.0669  0.3139 -0.1695
10161TIP3   OH251973   0.876   4.125   3.782  0.0739  0.0546 -0.0562
10161TIP3    H151974   0.944   4.187   3.756 -0.6082  0.0060 -2.0555
10161TIP3    H251975   0.919   4.069   3.847  2.1117 -0.3061 -1.6489
10162TIP3   OH251976   3.742   2.549   0.789 -0.0467 -0.1789 -0.2640
10162TIP3    H151977   3.671   2.591   0.741 -1.4353 -0.7074  1.2797
10162TIP3    H251978   3.761   2.607   0.862 -0.5759 -1.2171  0.7183
10163TIP3   OH251979   0.713   2.480  13.259 -0.1648 -0.6366  0.0611
10163TIP3    H151980   0.709   2.569  13.223 -1.4480 -1.0280 -0.8061
10163TIP3    H251981   0.757   2.429  13.191 -0.0454 -0.8038  0.2633
10164TIP3   OH251982   0.618   5.237   2.268  0.3613 -0.1160  0.5278
10164TIP3    H151983   0.666   5.317   2.244 -0.1810  0.0765  0.0694
10164TIP3    H251984   0.572   5.261   2.349 -1.3618  0.6933 -0.6453
10165TIP3   OH251985   4.439   2.280  14.423  0.4683 -0.3187 -0.1222
10165TIP3    H151986   4.362   2.272  14.480  0.0936  1.9207 -0.2560
10165TIP3    H251987   4.411   2.243  14.339 -0.2654 -0.0485  0.0035
10166TIP3   OH251988   6.673   1.341   4.568  0.4372  0.8982 -0.4880
10166TIP3    H151989   6.641   1.304   4.485 -1.2775 -1.1068  1.0072
10166TIP3    H251990   6.768   1.326   4.566  0.0114 -2.1431 -0.6974
10167TIP3   OH251991   6.775   4.790  14.350  0.4258 -0.1416 -0.6071
10167TIP3    H151992   6.861   4.805  14.391  0.7455 -1.6548 -0.6837
10167TIP3    H251993   6.769   4.695  14.341 -0.2627  0.0722 -2.7702
10168TIP3   OH251994   5.939   3.498  15.409  0.1102 -0.3019 -0.1407
10168TIP3    H151995   5.994   3.529  15.337 -1.5485  2.0315 -0.4594
10168TIP3    H251996   5.978   3.537  15.488 -0.2551  0.1989 -0.2054
10169TIP3   OH251997   2.456   0.562   6.541 -0.4604 -0.4050  0.1762
10169TIP3    H151998   2.513   0.637   6.523 -0.6852 -1.1729 -4.1851
10169TIP3    H251999   2.516   0.492   6.565  0.2889 -0.4543 -1.7272
10170TIP3   OH252000   0.418   2.739   3.335  0.3789  0.2376 -0.1798
10170TIP3    H152001   0.439   2.816   3.387  2.6578 -0.9110  0.6930
10170TIP3    H252002   0.488   2.733   3.270 -2.0831  1.2672 -2.9887
10171TIP3   OH252003   0.958   1.081  14.737 -0.3723 -0.1168 -0.0934
10171TIP3    H152004   0.971   1.087  14.642 -0.2446 -1.0012 -0.1361
10171TIP3    H252005   0.970   0.989  14.757 -1.2145 -0.0629  0.6719
10172TIP3   OH252006   4.099   0.495   3.709  0.0973 -0.5481  0.1338
10172TIP3    H152007   4.193   0.491   3.726 -0.1865 -0.2093  1.8339
10172TIP3    H252008   4.059   0.510   3.794 -1.5697 -1.4128 -0.4644
10173TIP3   OH252009   4.816   1.779   1.754  0.0184  0.0121  0.1411
10173TIP3    H152010   4.799   1.764   1.847 -0.2905  0.8217  0.2250
10173TIP3    H252011   4.738   1.824   1.723 -0.0819 -0.6818 -0.6254
10174TIP3   OH252012   4.798   4.461   5.158  0.2130  0.1530 -0.1858
10174TIP3    H152013   4.852   4.398   5.205 -0.7093 -0.5191 -0.0201
10174TIP3    H252014   4.832   4.459   5.069  1.2312  0.6069  0.1790
10175TIP3   OH252015   3.603   2.300  14.049  0.4409  0.5062  0.2356
10175TIP3    H152016   3.605   2.369  14.116  0.7461  0.3511  0.3850
10175TIP3    H252017   3.610   2.219  14.099  3.8527  0.4727 -0.1834
10176TIP3   OH252018   2.220   0.187  16.833 -0.4393  0.1304 -0.1046
10176TIP3    H152019   2.300   0.149  16.869 -0.9157 -0.1202  0.7085
10176TIP3    H252020   2.203   0.264  16.887 -0.7427  0.1881 -0.2825
10177TIP3   OH252021   0.794   4.549   1.990 -0.4067 -0.0576  0.5792
10177TIP3    H152022   0.720   4.611   1.996  0.9632  1.7833 -0.8316
10177TIP3    H252023   0.859   4.584   2.052 -0.0776 -0.7521  0.6220
10178TIP3   OH252024   3.034   5.304  13.930  0.0888 -0.7091  0.0937
10178TIP3    H152025   3.058   5.389  13.967  1.4890 -0.1078 -2.0941
10178TIP3    H252026   2.938   5.304  13.932 -0.0476  2.0377 -2.1241
10179TIP3   OH252027   1.598   0.019  14.516  0.1855  0.2138  0.1852
10179TIP3    H152028   1.523  -0.028  14.553 -0.4298  0.2005 -1.0790
10179TIP3    H252029   1.596   0.104  14.560 -0.7205  0.3087 -0.0358
10180TIP3   OH252030   4.596   3.459  16.903 -0.3380 -0.7869 -0.4772
10180TIP3    H152031   4.596   3.452  16.999 -2.6230  0.2664 -0.3591
10180TIP3    H252032   4.679   3.502  16.883  0.3382 -1.3518  0.9963
10181TIP3   OH252033   4.508   4.908   2.762 -0.8012 -0.4918 -0.5210
10181TIP3    H152034   4.419   4.941   2.754  0.0457  2.4192  1.1216
10181TIP3    H252035   4.515   4.878   2.852 -0.6211 -2.3873 -1.1411
10182TIP3   OH252036   3.326   3.408   4.312 -0.1253 -0.4075  0.2317
10182TIP3    H152037   3.345   3.403   4.219 -0.5754 -1.1216  0.1783
10182TIP3    H252038   3.286   3.324   4.334 -2.9507  0.9165  0.4225
10183TIP3   OH252039   5.403   4.678   2.193  0.3343  0.0605 -0.3552
10183TIP3    H152040   5.428   4.760   2.150 -1.6960  1.2941  0.7670
10183TIP3    H252041   5.377   4.704   2.282 -4.3104 -1.1819 -1.2265
10184TIP3   OH252042   2.014   0.269   2.258 -0.4773  0.0320  0.3715
10184TIP3    H152043   2.049   0.325   2.189  0.5549 -0.4849  0.4615
10184TIP3    H252044   2.064   0.187   2.250 -0.8791 -0.3054  1.2328
10185TIP3   OH252045   2.166   6.316  12.688 -0.4408  0.1798  0.2525
10185TIP3    H152046   2.161   6.248  12.755 -0.1008  2.1856  2.3647
10185TIP3    H252047   2.258   6.316  12.660 -0.7547 -1.2019 -0.8170
10186TIP3   OH252048   0.785   4.242  14.902 -0.0188 -0.0217  0.2679
10186TIP3    H152049   0.821   4.163  14.862 -0.5821 -0.0820 -0.1197
10186TIP3    H252050   0.827   4.246  14.988  1.0637  0.0220 -0.2562
10187TIP3   OH252051   6.716   3.016   4.093  0.6192  0.6699 -0.4173
10187TIP3    H152052   6.728   3.078   4.164  2.1396 -1.3987  1.1976
10187TIP3    H252053   6.747   3.063   4.015 -0.2019  2.6360  0.4058
10188TIP3   OH252054   6.495   5.415  12.506  0.0152 -0.2786  0.5776
10188TIP3    H152055   6.452   5.345  12.456  0.0339  0.8598 -1.0505
10188TIP3    H252056   6.553   5.369  12.567  0.0571 -1.6878 -0.5047
10189TIP3   OH252057   6.114   1.261  15.604 -0.7338  0.1805  0.5628
10189TIP3    H152058   6.058   1.275  15.680 -0.1776 -0.3445  1.0645
10189TIP3    H252059   6.199   1.237  15.640 -0.5293 -0.2938 -0.2275
10190TIP3   OH252060   6.413   5.612   5.625  0.0832  0.0053 -0.3420
10190TIP3    H152061   6.386   5.525   5.655  0.2821 -0.6503 -1.9915
10190TIP3    H252062   6.495   5.629   5.672 -0.8590  0.0708  1.3121
10191TIP3   OH252063   1.106   3.679  16.988  0.1325 -0.1995 -0.3989
10191TIP3    H152064   1.039   3.731  17.033  0.7809  0.0757  0.2666
10191TIP3    H252065   1.096   3.701  16.896 -0.1207  0.5072 -0.2067
10192TIP3   OH252066   1.546   0.209   2.735 -0.0689 -0.3250 -0.2393
10192TIP3    H152067   1.471   0.208   2.795 -0.0134  0.7350 -0.1397
10192TIP3    H252068   1.515   0.262   2.661  0.4150 -0.2869 -0.4116
10193TIP3   OH252069   3.932   4.880   1.511  0.6171 -0.4048  0.0922
10193TIP3    H152070   4.006   4.938   1.493 -0.5727  0.7608 -1.1638
10193TIP3    H252071   3.883   4.924   1.580  0.2225 -0.3692 -0.2079
10194TIP3   OH252072   2.126   6.501   0.485 -0.0125 -0.3192  0.3672
10194TIP3    H152073   2.197   6.563   0.505 -1.2113  1.1747  0.0300
10194TIP3    H252074   2.058   6.520   0.550 -0.4646 -1.1772  0.1500
10195TIP3   OH252075   3.246   4.764  14.911 -0.3875  0.1755  0.2344
10195TIP3    H152076   3.199   4.789  14.831 -0.0797 -0.1160 -0.0397
10195TIP3    H252077   3.280   4.676  14.892 -0.0957  0.2114  0.5919
10196TIP3   OH252078   0.248   3.673   2.803 -0.1730  0.5489 -0.2067
10196TIP3    H152079   0.160   3.675   2.840 -0.5729  1.9090 -1.1910
10196TIP3    H252080   0.306   3.674   2.879 -1.0021  0.0075  0.4395
10197TIP3   OH252081   3.929   0.821  14.509  0.6765  0.2352 -0.3211
10197TIP3    H152082   3.971   0.769  14.441  1.1048  0.8556 -0.5338
10197TIP3    H252083   3.987   0.815  14.584  0.1409 -0.5529  0.0361
10198TIP3   OH252084   5.461   5.776   1.488 -0.0009 -0.2633 -0.4732
10198TIP3    H152085   5.395   5.844   1.504  0.8143  0.3420  0.3553
10198TIP3    H252086   5.523   5.786   1.560  0.3151 -1.6601 -0.5486
10199TIP3   OH252087   1.256   0.886   1.633  0.1393  0.1217  0.1517
10199TIP3    H152088   1.236   0.966   1.586  0.6909 -0.3267 -0.8530
10199TIP3    H252089   1.170   0.853   1.661 -0.0710  1.1270  0.6832
10200TIP3   OH252090   2.717   3.659   4.620  0.2007  0.4876  0.0013
10200TIP3    H152091   2.628   3.692   4.612  0.2280  0.5056 -0.2301
10200TIP3    H252092   2.765   3.703   4.551  0.6110  1.2313  0.7488
10201TIP3   OH252093   5.587   6.012  15.938 -0.5385  0.9237  0.4853
10201TIP3    H152094   5.640   6.027  16.016  1.9941  1.8203 -1.3485
10201TIP3    H252095   5.542   5.929  15.956  1.9665 -0.1922  1.8383
10202TIP3   OH252096   3.549   4.318  15.124 -0.0135  0.2316 -0.4890
10202TIP3    H152097   3.469   4.267  15.137 -0.7440  1.5225  0.1095
10202TIP3    H252098   3.534   4.365  15.042  0.4051 -0.0098 -0.7092
10203TIP3   OH252099   1.632   2.851  12.535 -0.0922  0.2430  0.0208
10203TIP3    H152100   1.682   2.770  12.544 -1.9270 -0.9671 -0.4037
10203TIP3    H252101   1.652   2.900  12.615 -0.7448 -1.6516  1.3955
10204TIP3   OH252102   4.404   5.227   0.607  0.7559  0.0527 -0.2786
10204TIP3    H152103   4.416   5.181   0.524 -0.2819  0.7624 -0.8333
10204TIP3    H252104   4.318   5.198   0.638  1.0447 -0.0390  0.4432
10205TIP3   OH252105   1.218   6.513   1.699 -0.3814 -0.2541  0.4149
10205TIP3    H152106   1.269   6.475   1.628  0.4140  1.2128  0.1816
10205TIP3    H252107   1.223   6.449   1.770 -1.1607 -1.7185 -0.8370
10206TIP3   OH252108   3.448   4.873   2.527  0.5527  0.3932  0.3737
10206TIP3    H152109   3.525   4.906   2.573  0.0720  1.5133  0.3968
10206TIP3    H252110   3.376   4.929   2.558 -0.7958 -2.3463  2.4473
10207TIP3   OH252111   2.944   3.575   5.039 -0.4676  0.3092  0.1357
10207TIP3    H152112   3.028   3.598   5.080 -0.2069  0.1348 -0.2971
10207TIP3    H252113   2.940   3.630   4.961  0.0808 -0.9634 -0.8166
10208TIP3   OH252114   6.445   4.658   0.954  0.2016  0.1843 -0.1461
10208TIP3    H152115   6.479   4.708   1.028  0.8064 -1.4455  0.7000
10208TIP3    H252116   6.460   4.715   0.878  0.5870  1.4058  0.8212
10209TIP3   OH252117   5.863   1.656  13.944  0.1791  0.1248  0.2156
10209TIP3    H152118   5.840   1.669  13.852  1.3648  0.3912 -0.0538
10209TIP3    H252119   5.944   1.705  13.955 -0.2680  0.5879  1.5546
10210TIP3   OH252120   6.155   1.522   5.445  0.1911  0.1278 -0.1332
10210TIP3    H152121   6.085   1.581   5.472 -0.1927 -0.8387  0.9931
10210TIP3    H252122   6.183   1.557   5.360  0.1596  2.0805  0.6300
10211TIP3   OH252123   5.227   5.598   1.572  0.0218  0.4300  0.2204
10211TIP3    H152124   5.189   5.669   1.624  1.2893  1.2289  0.0999
10211TIP3    H252125   5.311   5.634   1.542 -1.2562  0.5446 -3.5481
10212TIP3   OH252126   2.887   6.058  12.280  0.0862  0.1309 -0.2729
10212TIP3    H152127   2.899   5.971  12.318  1.4416 -0.2316 -1.4951
10212TIP3    H252128   2.801   6.054  12.238 -0.2597 -0.3074  0.4541
10213TIP3   OH252129   2.588   2.660   2.128  0.2842 -0.1988  0.9319
10213TIP3    H152130   2.593   2.752   2.155  1.9090 -0.6497  2.2327
10213TIP3    H252131   2.662   2.649   2.068 -1.4854 -0.0088 -1.3773
10214TIP3   OH252132   6.415   4.496  10.762  0.2597 -0.5916 -0.1295
10214TIP3    H152133   6.471   4.438  10.711 -0.2218  1.0833 -2.7019
10214TIP3    H252134   6.327   4.481  10.727 -0.3646 -0.6601  1.4405
10215TIP3   OH252135   1.164   0.003   2.856 -0.6392 -0.5547  0.2656
10215TIP3    H152136   1.140  -0.067   2.794 -0.6575  0.4854 -0.9175
10215TIP3    H252137   1.221  -0.041   2.919  0.7054 -1.3003 -1.4039
10216TIP3   OH252138   0.422   5.672   1.908 -0.4345  0.2441  0.5137
10216TIP3    H152139   0.358   5.656   1.839  0.2086 -0.8731  0.1573
10216TIP3    H252140   0.507   5.671   1.863 -0.1754  1.9759  0.9332
10217TIP3   OH252141   3.320   1.429   3.748  0.4718 -1.0382 -0.5511
10217TIP3    H152142   3.307   1.447   3.655  3.9667 -2.1808 -1.3597
10217TIP3    H252143   3.375   1.501   3.779 -0.0412 -1.0633  0.4303
10218TIP3   OH252144   2.430   5.946   6.572 -0.1988 -0.1685 -0.4025
10218TIP3    H152145   2.345   5.980   6.602 -0.0783 -0.4354  0.2537
10218TIP3    H252146   2.485   5.950   6.650  0.7896  1.2426 -1.1519
10219TIP3   OH252147   4.309   3.733  16.244  0.3804 -0.3898  0.2103
10219TIP3    H152148   4.372   3.669  16.278  1.1213 -0.6898 -1.6945
10219TIP3    H252149   4.242   3.679  16.202  0.7537  0.0707 -0.9751
10220TIP3   OH252150   1.383   2.014  14.314 -0.3451 -0.5367 -0.4928
10220TIP3    H152151   1.385   1.921  14.338 -2.3392 -0.3108  0.7255
10220TIP3    H252152   1.292   2.030  14.287  0.0844  0.9583 -1.1264
10221TIP3   OH252153   5.429   0.823  10.176  0.0992  0.0558 -0.8950
10221TIP3    H152154   5.461   0.751  10.229  2.9086  1.8582 -0.0292
10221TIP3    H252155   5.380   0.782  10.104  1.3825 -2.6362 -0.2480
10222TIP3   OH252156   0.845   0.814  12.285  0.0043 -0.3845 -0.1538
10222TIP3    H152157   0.802   0.803  12.200 -0.2979  1.0585 -0.2045
10222TIP3    H252158   0.891   0.897  12.277  0.4722 -0.5406  0.8926
10223TIP3   OH252159   0.328   4.029   0.480  0.3796 -0.1422 -0.4636
10223TIP3    H152160   0.250   3.975   0.485  1.1894 -1.0990  3.4123
10223TIP3    H252161   0.370   4.004   0.397 -0.6435 -3.5245 -0.0183
10224TIP3   OH252162   3.841   3.185   0.213  0.1321 -0.4686  0.2918
10224TIP3    H152163   3.861   3.143   0.297  1.1751 -1.4464 -0.4307
10224TIP3    H252164   3.746   3.197   0.215  0.3073  0.8661  2.2265
10225TIP3   OH252165   6.579   4.772   1.175 -0.3291 -0.0137 -0.3330
10225TIP3    H152166   6.626   4.689   1.180 -0.1978  0.0383 -0.6578
10225TIP3    H252167   6.628   4.832   1.231 -2.1490 -0.9573  2.3389
10226TIP3   OH252168   0.783   5.778  14.398 -0.7299  0.1760 -0.1386
10226TIP3    H152169   0.740   5.721  14.334 -1.3120  0.0324  0.3744
10226TIP3    H252170   0.874   5.748  14.399 -0.7685  0.0337 -0.7369
10227TIP3   OH252171   5.451   5.595  11.063 -0.0888  0.0301 -0.4049
10227TIP3    H152172   5.484   5.536  11.130  1.5239 -1.1868 -2.2022
10227TIP3    H252173   5.358   5.575  11.056 -0.1799 -0.1040  1.1783
10228TIP3   OH252174   2.357   0.411   3.855  0.0762  0.6694  0.3728
10228TIP3    H152175   2.394   0.494   3.825 -0.8643  1.0130  0.1746
10228TIP3    H252176   2.386   0.403   3.946 -0.5547  1.6174  0.6494
10229TIP3   OH252177   1.073   0.630   5.494  0.3671 -0.2460  0.6264
10229TIP3    H152178   1.025   0.711   5.511 -1.4231 -0.7476 -1.7061
10229TIP3    H252179   1.154   0.659   5.452 -1.0153  0.2952 -1.7517
10230TIP3   OH252180   2.679   1.008   6.414 -0.0817 -0.0194 -0.2253
10230TIP3    H152181   2.591   1.024   6.447  0.1970  0.8289  0.1262
10230TIP3    H252182   2.718   1.095   6.405  0.4191 -0.3437 -1.2219
10231TIP3   OH252183   3.767   0.453  16.087 -0.5065 -0.1177 -0.0128
10231TIP3    H152184   3.763   0.499  16.004 -0.5464  1.5360  0.8854
10231TIP3    H252185   3.860   0.453  16.111 -0.4938 -0.5971 -0.0424
10232TIP3   OH252186   2.353   1.906  12.766 -0.0187  0.2323  0.3731
10232TIP3    H152187   2.370   1.981  12.709  0.5254  0.3426  0.6765
10232TIP3    H252188   2.433   1.853  12.760 -0.5574 -0.5528 -0.1766
10233TIP3   OH252189   6.336   3.992  13.079 -0.3140 -0.3405  0.1553
10233TIP3    H152190   6.399   3.938  13.030 -0.0731  0.0315  0.0561
10233TIP3    H252191   6.385   4.020  13.156 -0.7548 -1.1009  0.7269
10234TIP3   OH252192   2.157   4.961   4.785 -0.3006  0.2442  0.6268
10234TIP3    H152193   2.177   4.923   4.700 -1.0263 -0.6800  0.8624
10234TIP3    H252194   2.061   4.953   4.793 -0.1226 -0.7348  2.0073
10235TIP3   OH252195   1.420   6.616   5.844  1.0403 -0.5139  0.0510
10235TIP3    H152196   1.431   6.616   5.749  0.6983 -1.3812  0.0114
10235TIP3    H252197   1.478   6.686   5.874 -1.2427  1.9098 -1.0535
10236TIP3   OH252198   3.414   0.939   2.692 -0.0130  0.4207 -0.3952
10236TIP3    H152199   3.483   0.917   2.754 -0.3686  0.8820  0.1647
10236TIP3    H252200   3.424   0.875   2.621  0.6345  0.1395 -0.0509
10237TIP3   OH252201   2.053   2.722   5.888 -0.2841  0.5065 -0.3436
10237TIP3    H152202   2.111   2.786   5.847 -0.6164 -0.2359 -2.0426
10237TIP3    H252203   2.101   2.692   5.965  0.6098  1.5456 -0.4773
10238TIP3   OH252204   6.554   5.687  11.703  0.0735  0.3746  0.0180
10238TIP3    H152205   6.625   5.625  11.692 -0.8394 -0.6936  0.0161
10238TIP3    H252206   6.554   5.708  11.797  1.1178  1.2729 -0.1804
10239TIP3   OH252207   1.037   2.159  13.230  0.0786 -0.5497  0.0235
10239TIP3    H152208   1.132   2.172  13.239  0.1433 -0.6717 -0.4809
10239TIP3    H252209   1.010   2.127  13.316  0.4536 -0.2738  0.2479
10240TIP3   OH252210   0.822   2.342   0.669  0.0468 -0.5831  0.3105
10240TIP3    H152211   0.847   2.280   0.601  1.6372  3.3114 -2.8344
10240TIP3    H252212   0.737   2.376   0.641 -0.1070 -0.1869  1.2085
10241TIP3   OH252213   6.805   2.445  16.431 -0.2987  0.7745  0.0980
10241TIP3    H152214   6.718   2.426  16.395 -0.7598  0.5177  1.3248
10241TIP3    H252215   6.802   2.538  16.452 -0.5346  0.5999  0.8366
10242TIP3   OH252216   5.260   0.510   2.262 -0.1246 -0.5186  0.1110
10242TIP3    H152217   5.206   0.434   2.241 -1.7733  1.1631 -2.0112
10242TIP3    H252218   5.345   0.492   2.223 -0.3882 -1.4401 -0.0439
10243TIP3   OH252219   2.891   6.711  14.990  0.2289 -0.3694 -0.0838
10243TIP3    H152220   2.804   6.727  14.953  0.4654 -0.7200 -0.7936
10243TIP3    H252221   2.878   6.717  15.085 -0.6011 -0.5967 -0.1786
10244TIP3   OH252222   1.917   0.018   6.137 -0.1670  0.8134  0.1195
10244TIP3    H152223   1.925   0.083   6.068 -2.0545 -1.4563 -2.3301
10244TIP3    H252224   1.845   0.049   6.192 -0.4014  1.2976 -0.4633
10245TIP3   OH252225   0.638   3.828   3.015  0.4673  0.0987  0.1625
10245TIP3    H152226   0.594   3.779   3.084  1.0541  1.3437  1.4578
10245TIP3    H252227   0.731   3.815   3.032  0.6135  0.0282 -0.6771
10246TIP3   OH252228   2.880   2.593  14.889 -0.1023 -0.2431  0.6148
10246TIP3    H152229   2.927   2.627  14.813 -0.3121 -1.2051  0.0512
10246TIP3    H252230   2.941   2.532  14.930 -0.3138 -0.3877  0.7156
10247TIP3   OH252231   2.694   5.820  15.947 -0.2114 -0.4502 -0.5150
10247TIP3    H152232   2.611   5.864  15.929 -0.6934 -1.9188 -1.8569
10247TIP3    H252233   2.699   5.749  15.884  2.2472 -0.1562 -0.6908
10248TIP3   OH252234   3.157   5.112   4.774 -0.1640  0.0907  0.3244
10248TIP3    H152235   3.185   5.027   4.807 -0.2806  0.4568  1.3724
10248TIP3    H252236   3.236   5.151   4.737  1.0424  1.6137  4.3249
10249TIP3   OH252237   3.590   3.911  11.818 -0.8730  0.0418 -0.4264
10249TIP3    H152238   3.668   3.959  11.788 -1.0185  0.4351 -0.1813
10249TIP3    H252239   3.573   3.849  11.747 -0.0210 -0.4157 -0.2432
10250TIP3   OH252240   4.764   1.485  14.009  0.1543  0.5397 -0.4410
10250TIP3    H152241   4.807   1.524  14.085  1.2620 -0.2001 -0.6631
10250TIP3    H252242   4.685   1.537  13.996  0.4782  1.3051  0.5986
10251TIP3   OH252243   6.746   4.622  12.136  0.2538  0.2678  0.1826
10251TIP3    H152244   6.759   4.629  12.231  0.5196 -1.0499  0.2649
10251TIP3    H252245   6.797   4.693  12.099  2.1493 -0.6910  0.9028
10252TIP3   OH252246   4.624   5.423   6.432 -0.2966 -0.3255 -0.3350
10252TIP3    H152247   4.713   5.456   6.445 -0.7165  1.4371 -1.8354
10252TIP3    H252248   4.572   5.464   6.501 -0.5636  1.1835 -1.4156
10253TIP3   OH252249   4.798   2.801  10.631  0.2828  0.7280  0.5367
10253TIP3    H152250   4.773   2.755  10.711 -0.3477  0.0136 -0.0635
10253TIP3    H252251   4.894   2.804  10.634  0.2251  1.6966  1.8534
10254TIP3   OH252252   1.455   4.369  13.099  0.5005  0.3734  0.0816
10254TIP3    H152253   1.375   4.417  13.075 -0.3889 -0.9526  0.3586
10254TIP3    H252254   1.445   4.284  13.057  1.6956  0.1328  0.2817
10255TIP3   OH252255   0.533   2.105  13.233  0.4631  0.1453  0.2377
10255TIP3    H152256   0.486   2.061  13.304  2.7383 -1.5228  0.7726
10255TIP3    H252257   0.590   2.167  13.277  0.0400  0.9305 -0.3063
10256TIP3   OH252258   4.218   0.285   5.763 -0.0257  0.1095  0.2131
10256TIP3    H152259   4.182   0.366   5.800 -2.5008 -1.6698  1.8033
10256TIP3    H252260   4.283   0.256   5.826  0.1720  0.3204  0.1104
10257TIP3   OH252261   2.157   3.513   3.845 -0.1034  0.3266 -0.3306
10257TIP3    H152262   2.084   3.507   3.784 -0.6431 -0.8504  0.4055
10257TIP3    H252263   2.216   3.443   3.819 -0.6108 -0.5559  0.8224
10258TIP3   OH252264   0.800   1.176  13.612 -0.0975  0.1047  0.2028
10258TIP3    H152265   0.748   1.251  13.641 -1.2721 -1.6013  2.6747
10258TIP3    H252266   0.880   1.181  13.664 -0.0103 -0.1499  0.0903
10259TIP3   OH252267   4.996   5.672  13.930  0.3265  0.1082  0.0479
10259TIP3    H152268   4.907   5.706  13.922 -0.3356 -0.7909  2.9298
10259TIP3    H252269   4.984   5.577  13.936  1.4782 -0.0272  0.2822
10260TIP3   OH252270   4.252   2.350   1.831  0.0135  0.1613 -0.4006
10260TIP3    H152271   4.236   2.439   1.863 -0.8613  0.6857 -2.2475
10260TIP3    H252272   4.327   2.320   1.883 -1.3791  0.9341  2.1740
10261TIP3   OH252273   0.544   2.062  15.152 -0.0457  0.0667  0.1150
10261TIP3    H152274   0.567   2.017  15.233  0.2074 -2.4192 -1.2996
10261TIP3    H252275   0.454   2.035  15.135 -0.0131  0.3911 -0.5579
10262TIP3   OH252276   5.848   1.070   1.282  0.5556  0.2811  0.4487
10262TIP3    H152277   5.799   1.086   1.201  0.1829  1.3746  0.8896
10262TIP3    H252278   5.846   1.153   1.329 -1.7867 -1.1324  2.9798
10263TIP3   OH252279   4.945   4.366  12.922 -0.7037  0.2745  0.3552
10263TIP3    H152280   4.935   4.458  12.948 -1.1207 -0.3720  2.5739
10263TIP3    H252281   4.981   4.323  12.999  1.1181 -1.1193 -1.2365
10264TIP3   OH252282   6.299   3.360  16.657 -0.1061 -0.2911 -0.0973
10264TIP3    H152283   6.275   3.366  16.565 -1.2290  0.6737  0.2447
10264TIP3    H252284   6.217   3.377  16.705  0.9113  1.5694  1.0815
10265TIP3   OH252285   4.410   5.030  14.131 -0.0666  0.1892  0.9992
10265TIP3    H152286   4.377   5.105  14.081  2.2753  0.5421 -0.0634
10265TIP3    H252287   4.492   5.006  14.088  0.3704 -1.5599  2.7268
10266TIP3   OH252288   3.814   6.384   1.406  0.0400  0.1146 -0.6780
10266TIP3    H152289   3.783   6.460   1.457 -2.2301 -0.6853 -0.8095
10266TIP3    H252290   3.741   6.322   1.409  1.3997 -1.5621 -1.6242
10267TIP3   OH252291   0.531   4.452   3.266 -0.2052  0.2726 -0.2466
10267TIP3    H152292   0.473   4.403   3.208 -1.2454 -0.4459  1.3938
10267TIP3    H252293   0.476   4.521   3.302  0.1461  0.0226  0.7732
10268TIP3   OH252294   0.503   0.071  11.922 -0.7937  0.2318 -0.1124
10268TIP3    H152295   0.410   0.051  11.909 -0.7798  1.1690 -1.6779
10268TIP3    H252296   0.549   0.007  11.868 -0.4194 -1.8060  2.5348
10269TIP3   OH252297   2.316   5.341  11.901 -0.1037 -0.3052  0.4782
10269TIP3    H152298   2.407   5.322  11.879  0.1385  0.0753  1.1152
10269TIP3    H252299   2.320   5.420  11.955 -0.7535 -0.6583  1.0591
10270TIP3   OH252300   4.916   2.499   0.021  0.1231  0.2254 -0.7100
10270TIP3    H152301   4.842   2.556   0.000 -0.6337 -1.2083 -2.0486
10270TIP3    H252302   4.990   2.559   0.034 -1.1709  1.6354  0.2427
10271TIP3   OH252303   5.080   3.956   0.242 -0.6701 -0.3834 -0.3183
10271TIP3    H152304   5.127   4.028   0.198 -0.1328 -0.5825 -0.0801
10271TIP3    H252305   5.121   3.877   0.207 -0.4919 -0.5516  0.2644
10272TIP3   OH252306   2.116   4.457  15.380 -0.0073 -0.3692 -0.0726
10272TIP3    H152307   2.180   4.439  15.449 -0.9999  0.1157  0.9939
10272TIP3    H252308   2.098   4.371  15.341  0.4171 -0.6779  0.4045
10273TIP3   OH252309   6.667   0.579   0.594 -0.0484 -0.3626  0.2033
10273TIP3    H152310   6.757   0.583   0.562 -0.0711 -2.6313 -0.2041
10273TIP3    H252311   6.669   0.512   0.662 -1.1258  0.6571  1.2582
10274TIP3   OH252312   0.072   6.410   4.962 -0.0604  0.0676 -0.1732
10274TIP3    H152313   0.001   6.349   4.983  0.8562 -0.3797  1.7943
10274TIP3    H252314   0.040   6.495   4.993 -0.0353 -0.0144  0.0857
10275TIP3   OH252315   6.614   1.757  14.172 -0.0969  0.0470  0.1768
10275TIP3    H152316   6.580   1.677  14.132  1.0391  0.3907 -1.5250
10275TIP3    H252317   6.689   1.781  14.118  2.3531 -0.2163  3.3381
10276TIP3   OH252318   2.660   0.700   4.567 -0.1530  0.3876  0.1008
10276TIP3    H152319   2.729   0.667   4.624  0.5229 -0.5082 -1.2045
10276TIP3    H252320   2.705   0.725   4.487 -1.1263  1.3357 -0.1636
10277TIP3   OH252321   5.661   2.200  12.246  0.1975  0.1943  0.1524
10277TIP3    H152322   5.618   2.194  12.161  2.8596  2.3347 -1.4017
10277TIP3    H252323   5.701   2.114  12.259 -0.6701 -0.3141 -0.4829
10278TIP3   OH252324   3.100   6.417   5.304 -0.3384  0.8389  0.6611
10278TIP3    H152325   3.005   6.431   5.305 -0.3635  0.8791 -0.8069
10278TIP3    H252326   3.115   6.365   5.225  0.9870  1.7467  0.3078
10279TIP3   OH252327   1.113   0.698  14.606  0.7139  0.0730 -0.3723
10279TIP3    H152328   1.064   0.619  14.584  2.0847 -0.4636 -1.5878
10279TIP3    H252329   1.077   0.765  14.549 -1.3737  0.6694  1.6074
10280TIP3   OH252330   2.441   3.452  14.924 -0.4659 -0.3873  0.3503
10280TIP3    H152331   2.422   3.366  14.961 -0.0205  0.0910  1.7220
10280TIP3    H252332   2.529   3.473  14.955 -0.1579  0.1110 -0.8314
10281TIP3   OH252333   1.416   5.936   2.463 -0.5265 -0.3119 -0.6697
10281TIP3    H152334   1.402   5.968   2.374 -3.9917  0.6730  0.1756
10281TIP3    H252335   1.483   5.994   2.499 -1.3543  1.2717 -1.6248
10282TIP3   OH252336   5.065   1.655  15.778  0.2743 -0.0895 -0.3056
10282TIP3    H152337   5.019   1.622  15.855 -0.8341  2.7591  0.2925
10282TIP3    H252338   5.005   1.636  15.705 -0.0149 -0.0735 -0.0725
10283TIP3   OH252339   0.148   1.935   3.411 -0.6137 -0.5385  0.3392
10283TIP3    H152340   0.139   1.982   3.494  0.7887 -1.7823  1.2222
10283TIP3    H252341   0.237   1.901   3.412 -0.2518  0.2151 -2.1143
10284TIP3   OH252342   4.583   0.139  15.491 -0.1049  0.4522  0.3145
10284TIP3    H152343   4.673   0.173  15.491  0.0134  0.1886 -1.0984
10284TIP3    H252344   4.537   0.193  15.555  1.3249 -0.1359  1.8694
10285TIP3   OH252345   5.569   3.745   2.308  0.2943 -0.1775 -0.1069
10285TIP3    H152346   5.657   3.711   2.327  0.0631 -2.2358 -2.4275
10285TIP3    H252347   5.580   3.799   2.231 -0.1564  1.2631  0.8244
10286TIP3   OH252348   3.066   4.557  16.541  0.4558 -0.4311  0.0527
10286TIP3    H152349   3.086   4.599  16.457 -0.9141 -1.8331 -1.0209
10286TIP3    H252350   2.978   4.522  16.528  0.1654 -0.5012  2.1642
10287TIP3   OH252351   2.049   1.069  14.930  0.0072 -0.5426 -0.3707
10287TIP3    H152352   1.977   1.125  14.959 -0.0323 -1.6606  1.7685
10287TIP3    H252353   2.124   1.129  14.924 -0.8948  0.4730 -1.8833
10288TIP3   OH252354   0.991   1.588   1.857  0.1734  0.2146  0.6512
10288TIP3    H152355   0.913   1.535   1.847 -0.0093  0.6932 -0.5925
10288TIP3    H252356   1.011   1.586   1.951 -0.7402 -0.7308  0.8231
10289TIP3   OH252357   0.474   5.902  15.528 -0.2852  0.0057 -0.2161
10289TIP3    H152358   0.464   5.829  15.590 -0.7010  1.0892  1.0170
10289TIP3    H252359   0.567   5.923  15.531 -0.1386 -0.5568 -0.6829
10290TIP3   OH252360   6.226   6.820   4.454 -0.4753  0.2155 -0.2442
10290TIP3    H152361   6.265   6.797   4.370  1.8036 -0.7876  1.0196
10290TIP3    H252362   6.300   6.826   4.514 -2.0466  0.9289  1.7009
10291TIP3   OH252363   4.754   3.365  11.898 -0.5535  0.1577 -0.0020
10291TIP3    H152364   4.678   3.369  11.956 -0.7690  0.5617 -0.3063
10291TIP3    H252365   4.754   3.449  11.852  0.4372  0.4081  0.4465
10292TIP3   OH252366   0.690   5.700   5.504 -0.0642  0.1262 -0.0545
10292TIP3    H152367   0.694   5.796   5.508  1.9361  0.0984 -0.9404
10292TIP3    H252368   0.606   5.682   5.462 -0.9228  1.4421  1.0115
10293TIP3   OH252369   1.344   2.737  12.103 -0.3253 -0.1684  0.2490
10293TIP3    H152370   1.292   2.811  12.071  0.3257 -0.6846 -2.0981
10293TIP3    H252371   1.420   2.777  12.145 -1.6533  0.5405  2.0984
10294TIP3   OH252372   3.367   5.403  14.197  0.0116 -0.3301 -0.4752
10294TIP3    H152373   3.339   5.427  14.285 -0.4491  1.7941 -1.1487
10294TIP3    H252374   3.462   5.408  14.200 -0.0093 -0.1162 -0.1328
10295TIP3   OH252375   3.669   3.764  12.539 -0.0779 -0.3362 -0.3617
10295TIP3    H152376   3.631   3.808  12.614 -0.1875  1.2329 -1.3178
10295TIP3    H252377   3.676   3.672  12.566 -2.5561 -0.2827  0.5919
10296TIP3   OH252378   4.308   4.840   0.911  0.8178 -0.5110 -0.4290
10296TIP3    H152379   4.223   4.824   0.870  0.5025 -1.1694  0.4603
10296TIP3    H252380   4.287   4.875   0.998  1.4190 -1.3598  0.0756
10297TIP3   OH252381   1.255   0.710   3.396  0.5463 -0.1583 -0.3257
10297TIP3    H152382   1.179   0.678   3.445 -0.2346  1.1040 -0.6873
10297TIP3    H252383   1.328   0.701   3.457  0.5262 -3.3912 -0.6968
10298TIP3   OH252384   0.159   4.373  12.656  0.0111 -0.5669  0.1486
10298TIP3    H152385   0.154   4.468  12.666 -1.0228 -0.6892  0.8868
10298TIP3    H252386   0.159   4.359  12.562  2.1850  0.2547 -0.0109
10299TIP3   OH252387   2.241   3.920  13.273  0.4685 -0.0978  0.1928
10299TIP3    H152388   2.285   3.888  13.352 -0.3719 -0.4381  0.5318
10299TIP3    H252389   2.277   4.007  13.259  0.7697 -0.1138  0.8324
10300TIP3   OH252390   0.355   3.605   3.036 -0.2134 -0.1825  0.4709
10300TIP3    H152391   0.333   3.513   3.052 -2.0184  0.3019  0.8071
10300TIP3    H252392   0.395   3.635   3.118  1.5729 -0.9977 -0.0694
10301TIP3   OH252393   5.153   5.571   0.475  0.5446 -0.2072 -0.8078
10301TIP3    H152394   5.123   5.659   0.450 -0.5066 -0.5599 -0.7974
10301TIP3    H252395   5.234   5.587   0.524  0.2843  0.7657 -0.6724
10302TIP3   OH252396   0.075   1.051   3.336 -0.2819 -0.6361 -0.5478
10302TIP3    H152397   0.025   1.044   3.418  1.5199  3.7639  1.0927
10302TIP3    H252398   0.157   1.005   3.354  0.3342  0.7823  0.3712
10303TIP3   OH252399   4.357   0.884   2.294 -0.7785  0.2118 -0.1037
10303TIP3    H152400   4.314   0.800   2.279 -0.3151 -0.2933  1.3644
10303TIP3    H252401   4.408   0.899   2.214 -0.3741 -1.2057 -0.1254
10304TIP3   OH252402   4.125   2.629  12.464  0.5560 -0.0506 -0.5589
10304TIP3    H152403   4.067   2.674  12.403 -1.2704 -1.2244  0.2745
10304TIP3    H252404   4.179   2.572  12.409  0.2790  0.3580 -1.2522
10305TIP3   OH252405   1.950   2.677  13.218  0.0306  0.0026 -1.2416
10305TIP3    H152406   1.949   2.581  13.217  0.2098 -0.0119 -0.3062
10305TIP3    H252407   2.014   2.701  13.151  0.9328 -0.5561 -0.5880
10306TIP3   OH252408   0.093   2.908   2.581 -0.0458  0.0218  0.8650
10306TIP3    H152409   0.182   2.934   2.554 -0.4893 -0.1716 -0.8730
10306TIP3    H252410   0.036   2.975   2.543 -0.8728 -1.4182 -0.4684
10307TIP3   OH252411   5.241   1.157  14.241  0.6183 -0.5924  0.6258
10307TIP3    H152412   5.212   1.182  14.329  0.3961 -1.9478  0.9446
10307TIP3    H252413   5.186   1.209  14.182 -1.0401 -1.5864  1.2554
10308TIP3   OH252414   4.170   3.737  15.858 -0.4716 -0.4381  0.2324
10308TIP3    H152415   4.097   3.796  15.879 -2.7857 -2.3209 -2.1116
10308TIP3    H252416   4.219   3.782  15.790 -0.4279  0.1168  0.6276
10309TIP3   OH252417   5.449   4.183  14.127  0.8032  0.0491  0.3416
10309TIP3    H152418   5.414   4.136  14.052  1.2151 -1.0346  0.8277
10309TIP3    H252419   5.410   4.141  14.203  1.7961 -0.0337  0.8157
10310TIP3   OH252420   0.146   3.329   3.596 -1.1297  0.5037  0.1047
10310TIP3    H152421   0.154   3.249   3.544 -0.8924 -1.3649  2.8878
10310TIP3    H252422   0.236   3.355   3.615 -1.2232 -0.6935  2.2832
10311TIP3   OH252423   0.871   1.721  10.560 -0.0006 -0.1491  0.3851
10311TIP3    H152424   0.910   1.778  10.626 -1.1686  0.4868  0.5473
10311TIP3    H252425   0.910   1.635  10.576  1.2084  0.4359  0.6253
10312TIP3   OH252426   0.948   6.547  13.352  0.4775 -0.3791 -0.6728
10312TIP3    H152427   0.878   6.504  13.303 -0.7034  0.0691  0.5783
10312TIP3    H252428   0.989   6.607  13.289 -0.6675 -0.2018 -1.2549
10313TIP3   OH252429   0.909   4.106  17.004  0.0236 -0.2684 -0.3686
10313TIP3    H152430   0.890   4.193  17.039 -2.0271 -0.8953  0.1659
10313TIP3    H252431   1.000   4.089  17.029  0.1005  1.2635  0.4553
10314TIP3   OH252432   3.849   4.771  14.631  0.5204  0.4208  0.0242
10314TIP3    H152433   3.854   4.863  14.658  1.0257  1.4784 -3.4078
10314TIP3    H252434   3.894   4.723  14.700  0.3994  2.7799  1.7984
10315TIP3   OH252435   6.589   4.646   3.429  0.2630  0.0788 -0.6394
10315TIP3    H152436   6.607   4.586   3.501 -1.1120 -1.6761 -1.6987
10315TIP3    H252437   6.530   4.712   3.466  2.5406  1.3761  0.7872
10316TIP3   OH252438   0.114   5.001  14.195 -0.4900  0.4534 -0.0126
10316TIP3    H152439   0.054   4.953  14.252 -0.3522 -0.5929 -0.7543
10316TIP3    H252440   0.099   5.093  14.217 -1.9870  0.1662  0.1769
10317TIP3   OH252441   2.237   4.796  13.862 -0.2396 -0.2738 -0.2616
10317TIP3    H152442   2.296   4.720  13.857 -1.2220 -0.9487 -1.6330
10317TIP3    H252443   2.154   4.760  13.891 -0.9723  0.1251 -1.8271
10318TIP3   OH252444   2.856   3.875  15.746  0.0668 -0.0622 -0.0752
10318TIP3    H152445   2.860   3.830  15.662  1.1730 -0.7667  0.3496
10318TIP3    H252446   2.923   3.833  15.799 -1.1239 -0.1200  1.4116
10319TIP3   OH252447   4.470   0.401   5.568 -0.0853  0.7869 -0.2128
10319TIP3    H152448   4.544   0.462   5.568  1.6350 -1.2009  2.5652
10319TIP3    H252449   4.428   0.415   5.653 -1.7182  0.5131 -0.9703
10320TIP3   OH252450   1.386   6.145   4.867 -0.0278 -0.0781 -0.3257
10320TIP3    H152451   1.329   6.173   4.938  0.8818 -0.6824  0.6514
10320TIP3    H252452   1.427   6.226   4.836 -0.0496  0.1183  0.1592
10321TIP3   OH252453   3.297   6.808   0.706  0.3203  0.5016  0.0386
10321TIP3    H152454   3.230   6.768   0.650  0.5518 -0.5174  0.4713
10321TIP3    H252455   3.253   6.882   0.746 -0.3658  0.2181 -0.1708
10322TIP3   OH252456   5.363   6.666   1.205 -0.1594  0.0880  0.0438
10322TIP3    H152457   5.372   6.744   1.260  1.8509 -0.1225  0.0612
10322TIP3    H252458   5.355   6.701   1.116 -0.3952  0.3508  0.1667
10323TIP3   OH252459   2.650   5.658  15.133 -0.4898 -0.3884  0.0080
10323TIP3    H152460   2.719   5.706  15.088 -0.8886 -0.4835 -0.7210
10323TIP3    H252461   2.677   5.655  15.225 -1.3825  2.8500  0.4298
10324TIP3   OH252462   1.303   4.083   1.930 -0.7711  0.0073  0.4601
10324TIP3    H152463   1.214   4.052   1.945 -0.6772 -0.2723  0.4372
10324TIP3    H252464   1.338   4.024   1.864  0.3812 -1.6488  2.4849
10325TIP3   OH252465   4.033   1.611  13.203 -0.6044  0.2408 -0.3760
10325TIP3    H152466   3.954   1.571  13.166  0.9095 -1.1993 -2.1857
10325TIP3    H252467   4.042   1.694  13.156 -0.0273 -0.4809 -1.5915
10326TIP3   OH252468   0.823   0.461   2.216  0.2824 -0.2875 -0.1288
10326TIP3    H152469   0.752   0.436   2.275  0.4260  0.5705  0.4224
10326TIP3    H252470   0.901   0.463   2.272  0.3505  0.9078 -0.2517
10327TIP3   OH252471   3.872   5.297   1.469  0.2706  0.2942 -0.1252
10327TIP3    H152472   3.801   5.287   1.406  0.9578 -0.2398 -0.8224
10327TIP3    H252473   3.948   5.259   1.426  0.8979  0.5156  0.7687
10328TIP3   OH252474   6.138   2.379   1.931  0.2518 -0.5208 -0.3750
10328TIP3    H152475   6.110   2.469   1.914  0.8566 -0.2562  0.0092
10328TIP3    H252476   6.183   2.383   2.016  0.8355 -1.0609 -0.6504
10329TIP3   OH252477   2.089   3.554  16.765  0.5751 -0.3089  0.4639
10329TIP3    H152478   2.028   3.544  16.838 -1.6601  0.6897 -1.1759
10329TIP3    H252479   2.039   3.523  16.689  3.0776 -1.9658 -0.5458
10330TIP3   OH252480   1.363   3.546   6.559 -0.0692 -0.2567 -0.1910
10330TIP3    H152481   1.412   3.465   6.546 -1.7095 -1.1507 -0.9618
10330TIP3    H252482   1.355   3.584   6.472 -2.4873 -1.1769 -0.4080
10331TIP3   OH252483   4.397   4.263  13.618  0.5263 -0.1291  0.1048
10331TIP3    H152484   4.392   4.222  13.531  2.2547 -0.3927  0.1124
10331TIP3    H252485   4.479   4.313  13.616 -0.4489  1.5420  0.8766
10332TIP3   OH252486   2.971   1.375  11.236  0.6157  0.0262  0.1791
10332TIP3    H152487   2.919   1.435  11.181 -0.4832 -2.5148 -1.6932
10332TIP3    H252488   3.042   1.347  11.179 -1.9536 -4.6322 -1.0036
10333TIP3   OH252489   0.313   6.227  16.920  0.3844 -0.4768 -0.1956
10333TIP3    H152490   0.249   6.230  16.991  1.3773  0.1850  0.6903
10333TIP3    H252491   0.366   6.149  16.938 -0.0984 -0.9587 -0.8599
10334TIP3   OH252492   2.142   3.202  17.240  0.2632  0.3564  0.2987
10334TIP3    H152493   2.063   3.192  17.186 -1.2993  2.4019  2.1628
10334TIP3    H252494   2.210   3.227  17.178 -0.7261 -0.6115 -1.2150
10335TIP3   OH252495   1.162   6.164  11.771 -0.4381  0.5423 -0.5439
10335TIP3    H152496   1.091   6.224  11.793 -0.5906 -0.1992  1.0683
10335TIP3    H252497   1.194   6.133  11.856  0.8723 -0.2241 -1.2992
10336TIP3   OH252498   1.675   2.967   4.097 -0.2525  0.0624  0.1736
10336TIP3    H152499   1.698   2.876   4.081 -0.3606  0.1672 -0.5864
10336TIP3    H252500   1.662   3.005   4.010 -1.0868  0.5777  0.5151
10337TIP3   OH252501   5.913   6.140   5.192  0.1230  0.2017  0.3021
10337TIP3    H152502   5.893   6.060   5.240  0.0026 -0.7086 -1.2528
10337TIP3    H252503   6.008   6.142   5.187  0.2387  1.3244  2.2634
10338TIP3   OH252504   1.313   4.263   5.703  0.1633 -0.3787  0.2410
10338TIP3    H152505   1.340   4.234   5.790  0.5904 -2.8539 -0.6828
10338TIP3    H252506   1.228   4.223   5.689 -0.7753  1.5550  0.2418
10339TIP3   OH252507   3.695   1.607   2.183 -0.3958  0.1508 -0.6054
10339TIP3    H152508   3.744   1.527   2.203 -1.0296  0.3462  1.8691
10339TIP3    H252509   3.732   1.637   2.100  3.6672  0.2168  1.0653
10340TIP3   OH252510   0.676   3.916   3.375  0.3438 -0.0085  0.0662
10340TIP3    H152511   0.684   3.887   3.466  1.7871  0.6520  0.1648
10340TIP3    H252512   0.680   4.012   3.380 -1.4873  0.1258 -0.5291
10341TIP3   OH252513   3.749   5.480  14.755 -0.5407 -0.4781  0.0628
10341TIP3    H152514   3.770   5.416  14.823 -2.7349 -0.9725  0.3112
10341TIP3    H252515   3.664   5.516  14.781 -0.9167  0.0981 -1.8536
10342TIP3   OH252516   3.427   0.593   5.953 -0.0765 -0.0455 -0.6962
10342TIP3    H152517   3.469   0.531   6.013  0.2986 -0.8118 -1.7331
10342TIP3    H252518   3.355   0.630   6.003  0.8035  0.0068  0.5336
10343TIP3   OH252519   2.275   0.291   5.912  0.0002 -0.1785  0.3185
10343TIP3    H152520   2.259   0.199   5.930  0.9577 -0.9343 -2.3942
10343TIP3    H252521   2.252   0.301   5.819  0.1121  2.2483  0.5270
10344TIP3   OH252522   2.563   2.933   2.252  0.3156 -0.4509  0.4529
10344TIP3    H152523   2.491   2.993   2.232  2.5751  2.2618  0.1866
10344TIP3    H252524   2.579   2.946   2.345 -0.4182 -2.0685  0.8118
10345TIP3   OH252525   3.715   4.862   4.092 -0.2613 -0.6475 -0.1028
10345TIP3    H152526   3.783   4.795   4.084 -0.6330 -1.1491  0.7516
10345TIP3    H252527   3.634   4.816   4.068 -0.4542 -0.3841  0.0355
10346TIP3   OH252528   5.511   5.363   4.360  0.3017 -0.1296  0.6729
10346TIP3    H152529   5.595   5.319   4.348 -0.2027 -1.0627  0.5865
10346TIP3    H252530   5.535   5.453   4.383  1.3169 -0.2024 -0.0704
10347TIP3   OH252531   5.399   3.753  11.397 -0.5229  0.0202 -0.0293
10347TIP3    H152532   5.492   3.731  11.405 -0.2339  1.8455  2.1627
10347TIP3    H252533   5.397   3.821  11.328 -0.3604 -0.6980 -0.7458
10348TIP3   OH252534   3.435   4.773  15.973  0.8602  0.3050 -0.9267
10348TIP3    H152535   3.429   4.861  15.935  1.2351 -0.2727 -2.3918
10348TIP3    H252536   3.527   4.763  15.996  0.7415  0.4437 -0.3949
10349TIP3   OH252537   1.462   1.409  13.820 -0.0592 -0.6757 -0.1092
10349TIP3    H152538   1.521   1.364  13.759  1.5768 -1.0299  1.6693
10349TIP3    H252539   1.515   1.422  13.898 -1.5842  1.3411  0.6124
10350TIP3   OH252540   4.321   3.382  12.250 -0.6633 -0.5020 -0.5578
10350TIP3    H152541   4.349   3.402  12.340  1.1552 -1.5936 -0.8488
10350TIP3    H252542   4.278   3.297  12.258  0.9016 -1.3572 -0.9333
10351TIP3   OH252543   6.062   2.184  17.056 -0.0244  0.1650 -0.1467
10351TIP3    H152544   5.988   2.174  17.116  0.7609 -0.1442  0.7862
10351TIP3    H252545   6.132   2.133  17.096  1.0559  1.4228 -0.3798
10352TIP3   OH252546   0.015   5.485  15.231  0.1745  0.0270 -0.4428
10352TIP3    H152547  -0.007   5.448  15.146 -0.7065  1.5557 -0.9016
10352TIP3    H252548   0.110   5.483  15.235  0.1493 -2.2006 -0.4784
10353TIP3   OH252549   1.434   2.444   0.354  0.5780  0.4901 -0.2054
10353TIP3    H152550   1.492   2.519   0.369  0.3993  0.5292  0.3082
10353TIP3    H252551   1.370   2.449   0.426  3.4148 -2.8860  2.7539
10354TIP3   OH252552   6.551   4.487   2.803 -0.3038 -0.1492  0.1414
10354TIP3    H152553   6.546   4.392   2.793 -0.6765 -0.4059  2.4276
10354TIP3    H252554   6.477   4.509   2.860 -0.1661  1.4986 -0.3063
10355TIP3   OH252555   4.448   6.751  10.711 -0.6932 -0.0099  0.4693
10355TIP3    H152556   4.542   6.734  10.718 -0.8169 -0.7879  0.2911
10355TIP3    H252557   4.409   6.665  10.699 -1.3212  0.4145 -0.6810
10356TIP3   OH252558   4.997   3.386  17.010 -0.9277 -0.1621  0.4830
10356TIP3    H152559   4.933   3.457  17.020 -0.3612  0.4113  0.0837
10356TIP3    H252560   4.965   3.337  16.934  1.2353  2.4625 -2.2800
10357TIP3   OH252561   2.980   1.798   0.133  0.1095 -0.0517 -0.3035
10357TIP3    H152562   2.973   1.756   0.219  0.4628 -1.1075 -0.7810
10357TIP3    H252563   2.908   1.862   0.132 -0.9643 -1.2171  0.1203
10358TIP3   OH252564   0.261   3.581   0.514 -0.2566 -0.2685  0.0287
10358TIP3    H152565   0.199   3.641   0.472  2.2236  0.8236 -2.2319
10358TIP3    H252566   0.319   3.554   0.444  0.7623 -2.6789  1.7413
10359TIP3   OH252567   3.973   2.481   6.355  0.2913 -0.2247 -0.2344
10359TIP3    H152568   4.050   2.531   6.329 -0.1930  1.1672  0.9723
10359TIP3    H252569   4.009   2.400   6.391  1.1514  0.0254 -0.5208
10360TIP3   OH252570   6.660   0.171   2.361 -0.2029 -0.0403  0.6111
10360TIP3    H152571   6.656   0.075   2.365 -3.2222  0.0022 -0.1071
10360TIP3    H252572   6.744   0.190   2.319 -0.4621 -2.4635 -1.0992
10361TIP3   OH252573   3.762   6.358  15.799 -0.5667  0.4764 -0.2917
10361TIP3    H152574   3.690   6.366  15.860 -0.3618 -0.0385  0.0208
10361TIP3    H252575   3.782   6.448  15.773 -0.5567  0.7097  0.5116
10362TIP3   OH252576   5.606   5.477   0.673  0.1825  0.7215 -0.0326
10362TIP3    H152577   5.686   5.472   0.622  0.5151 -0.2075  0.5598
10362TIP3    H252578   5.630   5.445   0.760 -0.5751  1.4686  0.4680
10363TIP3   OH252579   4.795   1.509  13.737 -0.1272 -0.9126  0.1900
10363TIP3    H152580   4.753   1.584  13.695  1.4498  0.0828  0.3431
10363TIP3    H252581   4.774   1.519  13.830  0.6367 -0.2767  0.3000
10364TIP3   OH252582   0.075   2.675  13.524 -0.2047 -0.3493  0.4540
10364TIP3    H152583   0.024   2.594  13.515  0.8906 -1.0960  0.8719
10364TIP3    H252584   0.118   2.667  13.609 -0.3916  0.8538  0.6725
10365TIP3   OH252585   0.457   3.900  12.079  0.1171  0.0235 -0.3986
10365TIP3    H152586   0.498   3.874  11.997 -0.0737 -1.4223 -0.0364
10365TIP3    H252587   0.499   3.848  12.146  1.4973  2.4403  0.6892
10366TIP3   OH252588   6.239   5.641   4.374  0.5451 -0.1804 -0.0107
10366TIP3    H152589   6.265   5.727   4.407  2.9371 -0.6227 -0.6262
10366TIP3    H252590   6.180   5.659   4.301 -0.5824  0.8808  1.1364
10367TIP3   OH252591   3.314   6.768   4.494 -0.1365 -0.2864  0.1705
10367TIP3    H152592   3.243   6.823   4.461 -0.0989 -0.6276 -0.4908
10367TIP3    H252593   3.284   6.678   4.478  0.1453 -0.4459  0.5259
10368TIP3   OH252594   6.276   3.335  13.698  0.1063 -0.1531  0.1873
10368TIP3    H152595   6.243   3.272  13.762  0.4280 -1.5392 -1.0002
10368TIP3    H252596   6.371   3.334  13.709  0.1362 -0.1292 -0.0478
10369TIP3   OH252597   4.451   5.901  16.063  0.3699 -0.0211  0.1416
10369TIP3    H152598   4.372   5.855  16.033  1.6549 -2.4293  0.3208
10369TIP3    H252599   4.429   5.929  16.152 -0.4995 -0.1448 -0.0256
10370TIP3   OH252600   5.302   3.424  10.643  0.0534  0.5908 -0.5660
10370TIP3    H152601   5.339   3.341  10.675  0.1836  0.8636 -0.0027
10370TIP3    H252602   5.365   3.490  10.670 -1.1999  1.1567  1.0587
10371TIP3   OH252603   5.434   2.222  14.594 -0.1770 -0.1879 -0.3782
10371TIP3    H152604   5.461   2.313  14.580  0.4039 -0.4344 -0.8603
10371TIP3    H252605   5.351   2.229  14.642  0.3246  0.5790  0.3893
10372TIP3   OH252606   3.185   5.658  11.339 -0.2505 -0.3824  0.1282
10372TIP3    H152607   3.097   5.694  11.334 -0.2435 -0.6023 -1.9840
10372TIP3    H252608   3.231   5.696  11.264  1.2244 -0.8594  0.7702
10373TIP3   OH252609   0.548   1.935  13.703  0.7122  0.4968  0.4966
10373TIP3    H152610   0.578   2.026  13.710  0.5064  0.6694 -0.8085
10373TIP3    H252611   0.517   1.913  13.791  0.2174  1.8857  0.6804
10374TIP3   OH252612   3.917   4.916   2.646 -0.5817  0.2483  0.5395
10374TIP3    H152613   3.997   4.885   2.603 -0.4150  2.2319 -0.6728
10374TIP3    H252614   3.945   4.993   2.696 -1.5647  0.4422  0.8018
10375TIP3   OH252615   6.417   2.234  17.085 -0.4401  0.2576 -0.3909
10375TIP3    H152616   6.375   2.155  17.119 -1.4167  0.9046 -0.0665
10375TIP3    H252617   6.462   2.271  17.161 -0.0390  0.0515 -0.5261
10376TIP3   OH252618   5.578   3.841   1.742  0.0542  0.2566 -0.6583
10376TIP3    H152619   5.552   3.752   1.767 -0.5637  0.8475  0.8283
10376TIP3    H252620   5.672   3.834   1.723  0.0751 -0.6486 -0.2430
10377TIP3   OH252621   6.657   1.994   2.932  0.2196  0.1221  0.4873
10377TIP3    H152622   6.715   2.018   3.004 -1.8504 -0.7648  2.5269
10377TIP3    H252623   6.606   1.921   2.966 -1.8965  0.7031 -1.3078
10378TIP3   OH252624   2.461   3.747   1.665 -0.3927  0.3686 -0.0981
10378TIP3    H152625   2.420   3.767   1.749 -0.3997  0.6613 -0.1727
10378TIP3    H252626   2.555   3.756   1.682 -0.3424 -0.5320  0.1353
10379TIP3   OH252627   2.494   3.083  12.720 -1.3452  0.0042 -0.8166
10379TIP3    H152628   2.561   3.020  12.696 -1.8124 -1.1598  0.8407
10379TIP3    H252629   2.521   3.165  12.678  0.0830 -0.9179 -1.7182
10380TIP3   OH252630   3.761   5.705  14.188 -0.3126 -0.3257 -0.0970
10380TIP3    H152631   3.803   5.758  14.256  1.9018 -0.1302 -1.5717
10380TIP3    H252632   3.774   5.755  14.107 -2.4229 -0.8177 -0.7869
10381TIP3   OH252633   5.542   6.682   3.063  0.1210 -0.5162  0.0333
10381TIP3    H152634   5.633   6.673   3.091  0.3181  0.8038 -0.1750
10381TIP3    H252635   5.547   6.733   2.982 -0.7230 -1.3763 -0.5812
10382TIP3   OH252636   2.897   1.188   5.144  0.0753  0.4158 -0.1562
10382TIP3    H152637   2.975   1.242   5.160  1.3864 -1.3579 -0.4242
10382TIP3    H252638   2.847   1.237   5.079  0.6275  1.8996  0.5067
10383TIP3   OH252639   0.137   6.047  16.016 -1.0804 -0.1506 -0.0634
10383TIP3    H152640   0.043   6.052  16.032 -1.1119 -0.4740 -0.1470
10383TIP3    H252641   0.153   5.955  15.995 -0.5170 -0.3867  1.3258
10384TIP3   OH252642   1.658   1.227  12.961  0.4834 -0.0857  0.0062
10384TIP3    H152643   1.572   1.261  12.939  0.5250  0.0484  0.0528
10384TIP3    H252644   1.715   1.303  12.963  0.5484 -0.1382  0.2507
10385TIP3   OH252645   1.067   0.655   4.880  0.4772 -0.1719  0.2253
10385TIP3    H152646   1.007   0.668   4.806  0.2043 -0.4759  0.3928
10385TIP3    H252647   1.020   0.689   4.956  0.9481  0.5779  0.1854
10386TIP3   OH252648   1.984   2.817  17.029 -0.5072 -0.1713  0.0082
10386TIP3    H152649   2.018   2.821  16.940  0.7582  0.6860  0.5248
10386TIP3    H252650   2.060   2.830  17.085 -1.6502  1.7708  1.1762
10387TIP3   OH252651   3.090   5.508   0.132  0.3481  0.4316  0.1425
10387TIP3    H152652   3.178   5.483   0.105  0.1764  0.9537 -0.9176
10387TIP3    H252653   3.079   5.468   0.219  1.2302 -0.5205 -0.1797
10388TIP3   OH252654   1.743   5.889  12.019 -0.6659 -1.0512 -0.4129
10388TIP3    H152655   1.706   5.906  12.106  2.1523 -0.7010  0.7801
10388TIP3    H252656   1.696   5.812  11.988 -1.4632 -1.4229  1.6161
10389TIP3   OH252657   4.472   4.658   4.607 -0.5059  0.2206  0.3549
10389TIP3    H152658   4.495   4.660   4.700 -1.2636  0.9339  0.5375
10389TIP3    H252659   4.451   4.566   4.589 -1.5207  0.2742  1.1933
10390TIP3   OH252660   5.081   5.831  14.543 -0.0819 -0.3286  0.5688
10390TIP3    H152661   5.143   5.774  14.499 -0.8374 -0.4283 -0.3876
10390TIP3    H252662   5.031   5.773  14.600  0.8583 -0.2077  1.5444
10391TIP3   OH252663   4.898   3.740   2.982 -0.3288  0.9126  0.0920
10391TIP3    H152664   4.927   3.746   3.073 -0.3466 -1.1968  0.2788
10391TIP3    H252665   4.916   3.826   2.945 -0.5298  1.8706  2.1461
10392TIP3   OH252666   6.716   1.160   1.368 -0.4023 -0.0663 -0.0409
10392TIP3    H152667   6.787   1.097   1.353 -0.3085 -0.0176  0.1924
10392TIP3    H252668   6.740   1.204   1.450 -0.4126  0.3532 -0.2634
10393TIP3   OH252669   1.017   5.642  14.434 -0.0148  0.1101  0.2622
10393TIP3    H152670   0.980   5.566  14.478  1.6607 -1.4774 -1.0297
10393TIP3    H252671   1.082   5.677  14.495  0.6089 -0.6619  0.0385
10394TIP3   OH252672   0.569   5.283   6.288 -0.1845 -0.3249  0.0969
10394TIP3    H152673   0.631   5.356   6.292 -0.6387 -0.0222  1.6267
10394TIP3    H252674   0.623   5.205   6.301  0.7371 -0.5574 -4.1231
10395TIP3   OH252675   5.261   0.608   1.944  0.1544 -0.1902  0.0193
10395TIP3    H152676   5.239   0.575   1.857 -0.4112  1.6077 -0.5287
10395TIP3    H252677   5.341   0.561   1.967  1.5752  0.9478 -2.4079
10396TIP3   OH252678   3.310   5.243  15.353 -0.4212  0.5762  0.2252
10396TIP3    H152679   3.372   5.201  15.412  0.6625  0.9520 -0.6427
10396TIP3    H252680   3.329   5.337  15.361 -1.2734  0.7429  0.3989
10397TIP3   OH252681   2.043   4.422   5.477 -0.1259 -0.1670  0.6156
10397TIP3    H152682   1.954   4.435   5.511 -0.4710 -0.3556 -0.2255
10397TIP3    H252683   2.047   4.476   5.399 -0.2412 -1.8844 -0.6148
10398TIP3   OH252684   3.526   1.503   2.361  0.1211 -0.7319 -0.1773
10398TIP3    H152685   3.596   1.556   2.321 -0.4472 -0.2103 -0.4896
10398TIP3    H252686   3.486   1.561   2.425 -0.6246 -0.7212 -0.6520
10399TIP3   OH252687   3.984   1.124   0.902 -0.1403  0.1503  0.5617
10399TIP3    H152688   3.924   1.173   0.957  0.2034  0.7052  0.4472
10399TIP3    H252689   3.968   1.032   0.923  1.2491  0.4114  2.9114
10400TIP3   OH252690   1.601   4.350   0.001  0.1351  0.8378  0.5057
10400TIP3    H152691   1.657   4.272   0.000 -0.0431  0.7145 -0.6316
10400TIP3    H252692   1.589   4.372  -0.091  1.4470  3.1350  0.8600
10401TIP3   OH252693   1.736   1.795  14.016  0.7124 -0.4098  0.5180
10401TIP3    H152694   1.756   1.846  14.095 -0.7636  0.8093  0.1265
10401TIP3    H252695   1.771   1.848  13.944 -2.1647  0.8288 -0.0151
10402TIP3   OH252696   2.459   2.154  15.063  0.1259  0.2844 -0.4760
10402TIP3    H152697   2.412   2.080  15.102  0.4427 -0.7659 -2.0608
10402TIP3    H252698   2.418   2.167  14.978  0.3730  1.6521 -0.3967
10403TIP3   OH252699   3.486   1.624  10.137  0.3816 -0.5703 -0.2463
10403TIP3    H152700   3.394   1.600  10.132  0.3095 -0.4677  0.5229
10403TIP3    H252701   3.527   1.553  10.186  0.6591 -0.4623 -0.3198
10404TIP3   OH252702   1.325   3.783  16.591  0.0100 -0.2362  0.6449
10404TIP3    H152703   1.395   3.845  16.570 -0.7640  1.3548  2.5557
10404TIP3    H252704   1.370   3.700  16.606  1.2253  0.2081 -0.4298
10405TIP3   OH252705   6.600   5.587   5.805 -0.2638 -0.5282  0.1803
10405TIP3    H152706   6.661   5.656   5.830 -0.0308 -0.3772 -0.7903
10405TIP3    H252707   6.552   5.567   5.886 -0.2490  0.6857  0.4999
10406TIP3   OH252708   5.488   3.417  13.246  0.0912 -0.3216 -0.0614
10406TIP3    H152709   5.399   3.438  13.219 -0.4621 -0.0081  1.9663
10406TIP3    H252710   5.478   3.351  13.315  1.4777 -1.1613 -0.6302
10407TIP3   OH252711   0.662   5.819   6.423 -0.4000  0.9323  0.2303
10407TIP3    H152712   0.581   5.850   6.463 -0.3660  1.5206 -0.1530
10407TIP3    H252713   0.689   5.890   6.366 -1.4089 -0.5995 -2.2339
10408TIP3   OH252714   5.923   5.268  11.632  0.0164 -0.6132  0.2899
10408TIP3    H152715   5.976   5.345  11.610 -0.1165 -0.7327 -0.4723
10408TIP3    H252716   5.871   5.296  11.707  1.5973 -0.6906  1.4404
10409TIP3   OH252717   4.106   2.550  14.018  0.1356  0.9305 -0.0788
10409TIP3    H152718   4.056   2.610  13.963 -1.5793 -0.3337  0.0412
10409TIP3    H252719   4.085   2.463  13.984  1.6540  0.3257  0.4837
10410TIP3   OH252720   1.694   1.006  15.886 -0.2361  0.1646  0.3785
10410TIP3    H152721   1.626   0.947  15.854  0.7895  0.0794 -1.7217
10410TIP3    H252722   1.646   1.076  15.930 -1.6975  0.0634 -1.0089
10411TIP3   OH252723   5.614   6.014  12.232 -0.1742 -0.4004  0.2963
10411TIP3    H152724   5.663   5.998  12.151  1.2117  0.2073  0.9958
10411TIP3    H252725   5.546   6.077  12.207  0.4864  0.0845 -0.3105
10412TIP3   OH252726   2.224   6.193   1.500 -0.2445 -0.3503 -0.0063
10412TIP3    H152727   2.316   6.205   1.477  0.4598 -1.1443  2.3048
10412TIP3    H252728   2.214   6.098   1.510 -1.4075 -0.3056 -0.5842
10413TIP3   OH252729   4.799   3.367  13.667  0.3680  0.3974  0.5493
10413TIP3    H152730   4.831   3.415  13.743  0.1973  2.1002 -0.4243
10413TIP3    H252731   4.776   3.435  13.604 -1.2298 -0.9320 -0.3370
10414TIP3   OH252732   5.552   0.182  12.874 -0.0455 -0.5565 -0.5936
10414TIP3    H152733   5.597   0.263  12.851  0.3492 -1.0026 -1.3898
10414TIP3    H252734   5.460   0.199  12.855 -0.1655  0.2005  0.6153
10415TIP3   OH252735   1.644   2.860  15.857  0.5220  0.3610  0.3656
10415TIP3    H152736   1.704   2.933  15.845  0.9035 -0.1830 -1.0858
10415TIP3    H252737   1.699   2.786  15.880  0.1528  0.4585  1.6291
10416TIP3   OH252738   4.743   3.101  11.231  0.1473 -0.5503 -0.5376
10416TIP3    H152739   4.663   3.071  11.188  0.3135  0.2355 -1.4356
10416TIP3    H252740   4.811   3.088  11.165  0.5769 -0.2510 -0.1503
10417TIP3   OH252741   6.085   2.609  12.335 -0.2799 -0.0711  0.3727
10417TIP3    H152742   6.088   2.686  12.393  0.9618 -0.3208  0.6576
10417TIP3    H252743   6.062   2.645  12.249 -1.9478  0.3276  0.9538
10418TIP3   OH252744   4.624   1.398  14.258 -0.0930 -0.2617 -0.3143
10418TIP3    H152745   4.609   1.332  14.190 -0.1151 -0.8790  0.2843
10418TIP3    H252746   4.540   1.405  14.303  0.2253 -0.6557  0.3462
10419TIP3   OH252747   1.796   4.212  16.713  0.0517 -0.3722 -0.5400
10419TIP3    H152748   1.797   4.277  16.782 -2.3129 -0.9596  0.1107
10419TIP3    H252749   1.788   4.128  16.758 -1.5707 -0.7613 -1.4673
10420TIP3   OH252750   4.453   5.510  16.560 -0.0201 -0.4540 -0.0862
10420TIP3    H152751   4.498   5.587  16.593  0.0742 -0.3002 -0.5789
10420TIP3    H252752   4.513   5.473  16.495  0.3304 -1.4417  0.7903
10421TIP3   OH252753   1.096   3.573   5.342 -0.1487 -0.6087  0.1829
10421TIP3    H152754   1.179   3.617   5.364 -0.3094 -0.9878  1.6514
10421TIP3    H252755   1.049   3.635   5.287  0.2616  0.4452  1.0041
10422TIP3   OH252756   1.738   1.385   0.455  0.6303 -0.3848 -0.0910
10422TIP3    H152757   1.774   1.472   0.437  1.6430 -0.4706  1.4307
10422TIP3    H252758   1.652   1.401   0.493 -0.2809 -0.1375 -2.1478
10423TIP3   OH252759   4.725   1.619   4.956 -0.1062  0.1280  0.3561
10423TIP3    H152760   4.741   1.709   4.929  0.4349  0.5462  2.0337
10423TIP3    H252761   4.729   1.568   4.875 -1.1360  1.7040 -0.6856
10424TIP3   OH252762   1.056   4.393   6.167 -0.1212  0.1553  0.1670
10424TIP3    H152763   1.003   4.368   6.091 -0.8751  0.6081  0.5419
10424TIP3    H252764   1.080   4.310   6.207 -2.1595 -0.0057  1.0947
10425TIP3   OH252765   4.580   2.246  15.681 -0.4441  0.3642 -0.3592
10425TIP3    H152766   4.625   2.252  15.765 -0.2324  0.8666 -0.5091
10425TIP3    H252767   4.635   2.188  15.628 -0.7327 -0.1923 -0.0546
10426TIP3   OH252768   6.348   5.689   3.730  0.0760  0.1243  0.1662
10426TIP3    H152769   6.325   5.618   3.671 -0.6666  0.5020 -0.0068
10426TIP3    H252770   6.282   5.756   3.715 -0.2244  0.1615  1.5366
10427TIP3   OH252771   1.861   0.003  17.130 -0.0482  0.0322  0.0556
10427TIP3    H152772   1.953  -0.005  17.107  0.0281 -0.6140  0.5721
10427TIP3    H252773   1.831  -0.087  17.141 -0.4405  0.2838  1.0673
10428TIP3   OH252774   4.930   5.011   0.629 -0.3210 -0.3052  0.2503
10428TIP3    H152775   4.851   5.048   0.589 -0.3030 -1.2001 -0.6389
10428TIP3    H252776   4.899   4.934   0.676  0.0310 -0.6665 -0.1110
10429TIP3   OH252777   0.744   1.837   2.155 -0.4194  0.6026  0.4191
10429TIP3    H152778   0.790   1.799   2.229 -0.7236 -0.8106 -0.1072
10429TIP3    H252779   0.706   1.762   2.109  1.3755  1.2327 -2.2484
10430TIP3   OH252780   2.881   3.418  13.622  0.2871 -0.0375 -0.3342
10430TIP3    H152781   2.891   3.509  13.594 -1.6016 -0.1773 -1.5938
10430TIP3    H252782   2.918   3.416  13.710  0.1854  2.0028 -0.2045
10431TIP3   OH252783   3.904   0.856  13.891 -0.5910  0.5893 -0.1506
10431TIP3    H152784   3.815   0.834  13.920 -0.1472 -0.2836  0.5823
10431TIP3    H252785   3.891   0.907  13.811 -1.7480  0.1813 -0.2357
10432TIP3   OH252786   4.721   2.240  17.069  1.0302 -0.5562 -0.5321
10432TIP3    H152787   4.687   2.195  17.147  0.7831  0.1944 -0.2055
10432TIP3    H252788   4.704   2.180  16.997  0.7530 -1.0131 -0.0886
10433TIP3   OH252789   2.741   3.964   3.560 -0.1990 -0.5601  0.3485
10433TIP3    H152790   2.726   4.055   3.586  0.9879 -1.0769  2.9888
10433TIP3    H252791   2.740   3.916   3.642 -0.7983 -2.9619 -1.0249
10434TIP3   OH252792   1.804   0.514   5.070 -0.0772  0.5007 -0.2534
10434TIP3    H152793   1.788   0.436   5.016  0.2999  0.9364 -1.0027
10434TIP3    H252794   1.884   0.552   5.034  2.3217 -1.2313  2.9988
10435TIP3   OH252795   0.509   4.182  16.910  0.3150 -0.4599  0.4912
10435TIP3    H152796   0.581   4.240  16.883  0.5882 -1.0213  0.0184
10435TIP3    H252797   0.430   4.227  16.882  0.6611 -2.0737 -3.2734
10436TIP3   OH252798   0.620   5.741  15.715 -0.5846  0.2105 -0.2247
10436TIP3    H152799   0.644   5.657  15.678  0.1036  1.3136 -2.3683
10436TIP3    H252800   0.703   5.784  15.736 -0.8740  1.0028 -0.6628
10437TIP3   OH252801   1.565   1.613  17.228 -0.1724  0.3506  0.1403
10437TIP3    H152802   1.470   1.611  17.240  0.0009  0.9332  1.7050
10437TIP3    H252803   1.598   1.550  17.291  0.5553  0.9657  0.3763
10438TIP3   OH252804   0.849   2.941  14.871  0.5222 -0.1257  0.2777
10438TIP3    H152805   0.865   2.892  14.791  0.2249  0.2253  0.0017
10438TIP3    H252806   0.825   2.874  14.936  0.8772 -0.4177  0.1066
10439TIP3   OH252807   0.092   3.643   3.521 -0.7241 -0.0998 -0.3863
10439TIP3    H152808   0.085   3.548   3.527 -0.7848 -0.4109 -4.1553
10439TIP3    H252809   0.043   3.666   3.442  3.5925  2.4949 -2.5044
10440TIP3   OH252810   1.858   3.192   3.505  0.4903  0.0807  0.1100
10440TIP3    H152811   1.789   3.171   3.568 -0.4801 -0.4047 -1.1030
10440TIP3    H252812   1.914   3.115   3.504 -0.4128 -0.5690 -0.8258
10441TIP3   OH252813   2.661   1.572  11.869 -0.4226 -0.1262 -0.1335
10441TIP3    H152814   2.724   1.640  11.893 -0.4938  0.1828 -0.8137
10441TIP3    H252815   2.658   1.514  11.945 -1.1182  1.1928  0.8538
10442TIP3   OH252816   2.956   5.809   2.506  0.0501 -0.0188  0.1084
10442TIP3    H152817   2.934   5.812   2.413 -0.6075 -0.4650  0.2447
10442TIP3    H252818   2.998   5.893   2.524  0.3285  0.0012 -0.6289
10443TIP3   OH252819   5.161   3.705   5.901  0.1418  0.1325 -0.5073
10443TIP3    H152820   5.195   3.622   5.935  0.2850 -0.3118 -1.7145
10443TIP3    H252821   5.160   3.764   5.977  2.7603 -0.1082 -0.2625
10444TIP3   OH252822   3.099   4.803  13.914 -0.7798 -0.2822 -0.1308
10444TIP3    H152823   3.183   4.774  13.949 -0.1369  1.0111 -0.5452
10444TIP3    H252824   3.074   4.876  13.970 -0.6467  0.6099 -1.2202
10445TIP3   OH252825   4.995   1.568   1.498 -0.3916  0.1929 -0.0002
10445TIP3    H152826   5.049   1.533   1.570  1.3820  0.7816 -1.0231
10445TIP3    H252827   4.957   1.648   1.534  0.9637  0.8043  0.1233
10446TIP3   OH252828   6.558   2.320   2.202  0.2735 -0.3016 -0.2546
10446TIP3    H152829   6.598   2.259   2.264  1.4911  0.3666 -0.3592
10446TIP3    H252830   6.482   2.273   2.169  0.8235 -1.5186  0.1399
10447TIP3   OH252831   1.968   3.373   5.410  0.0232  0.0658 -0.4739
10447TIP3    H152832   2.001   3.384   5.321  1.5576 -0.4651  0.0208
10447TIP3    H252833   1.915   3.451   5.425  0.1278  0.3842 -1.6884
10448TIP3   OH252834   4.435   0.167  14.136 -0.4939  0.1427 -0.1261
10448TIP3    H152835   4.527   0.142  14.128  0.1466  2.3470  0.0471
10448TIP3    H252836   4.392   0.090  14.173  0.9786 -1.4764 -1.7411
10449TIP3   OH252837   5.595   0.541  16.837  0.3381  0.0635 -0.5918
10449TIP3    H152838   5.681   0.523  16.799  0.1940 -0.2852 -0.7550
10449TIP3    H252839   5.534   0.531  16.763 -0.0149 -1.2573 -0.1471
10450TIP3   OH252840   0.572   1.659   1.987  0.3017 -0.2842 -0.5015
10450TIP3    H152841   0.483   1.674   2.021 -0.2036 -0.8274 -1.5725
10450TIP3    H252842   0.560   1.648   1.893  1.5041 -0.4332 -0.6400
10451TIP3   OH252843   6.186   5.886  10.385 -0.9452  0.0623 -0.1206
10451TIP3    H152844   6.128   5.846  10.449  0.9283 -2.1301  0.2671
10451TIP3    H252845   6.270   5.841  10.396  0.8946  3.1903 -0.6032
10452TIP3   OH252846   4.994   0.860   1.264  0.3910  0.2216 -1.0380
10452TIP3    H152847   5.038   0.793   1.317  1.6189  2.8329  1.3987
10452TIP3    H252848   4.901   0.849   1.285  0.5017 -1.1565 -1.2057
10453TIP3   OH252849   0.500   3.852  12.561  0.6689 -0.1519  0.4416
10453TIP3    H152850   0.508   3.772  12.509  0.2536 -0.7079  1.2246
10453TIP3    H252851   0.413   3.846  12.601  0.4342  0.9286  0.1206
10454TIP3   OH252852   3.998   0.179  15.493 -0.0041  0.0163 -0.0577
10454TIP3    H152853   3.978   0.128  15.571 -1.5587  0.1825 -0.3313
10454TIP3    H252854   4.080   0.224  15.514 -1.2572  1.3565  2.1000
10455TIP3   OH252855   3.379   0.428   3.439  0.3511  0.3828  0.0170
10455TIP3    H152856   3.336   0.476   3.368 -0.7011  2.6235  2.0975
10455TIP3    H252857   3.471   0.453   3.432  0.3272  0.2923 -0.7605
10456TIP3   OH252858   6.771   0.314  11.826  0.2283  0.0090  0.1201
10456TIP3    H152859   6.779   0.277  11.738  0.6023 -2.1916  1.0231
10456TIP3    H252860   6.728   0.245  11.877  0.3198  1.1079  1.7278
10457TIP3   OH252861   1.414   4.061   2.660 -0.1127  0.2391 -0.1570
10457TIP3    H152862   1.333   4.011   2.664  1.0306 -1.6485 -0.3027
10457TIP3    H252863   1.430   4.089   2.750 -0.1405 -0.6493  0.1251
10458TIP3   OH252864   0.654   2.418  15.747  0.0445 -0.4271 -0.1914
10458TIP3    H152865   0.669   2.326  15.767 -0.4929  0.1737  3.2918
10458TIP3    H252866   0.741   2.454  15.731  0.2017 -1.6458 -2.1950
10459TIP3   OH252867   0.397   5.434  12.654 -0.1879  0.1646 -0.0081
10459TIP3    H152868   0.359   5.520  12.671 -0.2076 -0.0941  1.3007
10459TIP3    H252869   0.393   5.389  12.738  0.5675 -0.8261 -0.4928
10460TIP3   OH252870   0.471   2.858   1.974 -0.7341 -0.7926  0.1477
10460TIP3    H152871   0.439   2.907   1.898  1.3972  0.7484  0.1785
10460TIP3    H252872   0.426   2.898   2.048  0.0471  0.3295  0.0423
10461TIP3   OH252873   3.629   5.782  12.680  0.1114  0.8048  0.1734
10461TIP3    H152874   3.582   5.753  12.758 -0.8461 -0.4007 -0.8267
10461TIP3    H252875   3.649   5.701  12.633 -1.4678  1.6378 -2.0260
10462TIP3   OH252876   2.872   4.373   0.932 -0.8738  0.7399 -0.1955
10462TIP3    H152877   2.806   4.305   0.946 -0.6055  0.8649  1.7879
10462TIP3    H252878   2.953   4.336   0.968 -0.5604  1.7944  0.2172
10463TIP3   OH252879   4.721   6.490   1.865 -0.3109  0.6471  0.0463
10463TIP3    H152880   4.642   6.456   1.908 -0.0061  0.5635  0.5402
10463TIP3    H252881   4.790   6.429   1.890 -0.4922 -0.4814 -2.0860
10464TIP3   OH252882   5.718   0.850  13.390  0.4292  0.1016 -0.5507
10464TIP3    H152883   5.673   0.934  13.391 -0.7041 -0.4936 -1.1674
10464TIP3    H252884   5.675   0.798  13.458  0.2634 -0.4276 -1.0555
10465TIP3   OH252885   0.712   1.663   1.479 -0.3659 -0.2012 -0.0015
10465TIP3    H152886   0.807   1.669   1.495 -0.3238 -0.7933 -0.0428
10465TIP3    H252887   0.674   1.728   1.538  0.1089  0.4200 -0.3715
10466TIP3   OH252888   4.160   2.894  11.254  1.0239 -0.4255 -0.5241
10466TIP3    H152889   4.232   2.923  11.198  0.8882  1.9545  0.4520
10466TIP3    H252890   4.166   2.951  11.331  0.4283 -2.7705  1.3140
10467TIP3   OH252891   3.331   2.031  16.620  0.1063 -0.3363  0.2530
10467TIP3    H152892   3.361   2.078  16.543 -0.1644  0.1132  0.4206
10467TIP3    H252893   3.360   2.085  16.694 -1.0824  0.1064  0.4189
10468TIP3   OH252894   5.450   2.318  15.737  0.2627 -0.0848  0.0131
10468TIP3    H152895   5.454   2.247  15.673  0.6925 -2.1993  2.2840
10468TIP3    H252896   5.412   2.392  15.690 -2.0488 -2.4260 -1.9109
10469TIP3   OH252897   4.934   1.541   0.418 -0.0536 -0.1963 -0.1791
10469TIP3    H152898   4.875   1.482   0.372 -2.6447  1.5756  0.7768
10469TIP3    H252899   4.922   1.626   0.375  2.2141  0.1011 -0.3109
10470TIP3   OH252900   2.001   1.449   4.056  0.1650  0.3707  0.6571
10470TIP3    H152901   1.944   1.376   4.081  0.2962 -0.1772 -0.6273
10470TIP3    H252902   2.055   1.415   3.986 -0.0268  1.8135 -0.2125
10471TIP3   OH252903   4.794   3.051   4.802 -0.0928  0.1410 -0.0254
10471TIP3    H152904   4.846   3.086   4.729 -0.1202  0.1911 -0.0209
10471TIP3    H252905   4.828   3.096   4.879  0.8420 -0.8677  0.1720
10472TIP3   OH252906   0.237   0.547   5.329 -0.2097 -0.0117  0.1239
10472TIP3    H152907   0.332   0.558   5.320 -0.4157  3.1240  1.1763
10472TIP3    H252908   0.200   0.599   5.258 -1.1671  1.8329  1.9038
10473TIP3   OH252909   4.566   3.138  11.465 -0.7529  0.3621 -0.2957
10473TIP3    H152910   4.529   3.225  11.449 -1.7994 -0.1005 -0.4766
10473TIP3    H252911   4.637   3.130  11.401 -2.6717 -0.1280 -2.4348
10474TIP3   OH252912   0.002   1.488   6.067 -0.5367 -0.9027  0.1157
10474TIP3    H152913   0.087   1.492   6.111  0.4520 -1.9367 -1.6694
10474TIP3    H252914   0.009   1.415   6.006 -2.2532 -0.1936 -0.9822
10475TIP3   OH252915   1.118   5.771   1.765  0.0907  0.0553  0.2588
10475TIP3    H152916   1.189   5.777   1.700 -1.9481 -1.2800 -2.1566
10475TIP3    H252917   1.164   5.756   1.848  2.6299 -2.3749 -1.4664
10476TIP3   OH252918   6.391   5.104   2.647 -0.4671 -0.0429 -0.4818
10476TIP3    H152919   6.460   5.059   2.696  0.8894 -0.9593 -3.1736
10476TIP3    H252920   6.322   5.038   2.637 -0.6211  0.0553 -0.0960
10477TIP3   OH252921   2.914   3.392   3.875 -0.0650 -0.1570  0.5268
10477TIP3    H152922   2.922   3.333   3.950  1.1640 -0.6990 -0.0240
10477TIP3    H252923   2.999   3.387   3.831 -0.7368  0.2414 -0.8367
10478TIP3   OH252924   5.042   4.362   1.470 -0.0914  0.5579  0.3202
10478TIP3    H152925   5.114   4.320   1.422 -0.6831 -1.0548  0.8154
10478TIP3    H252926   5.034   4.448   1.429  0.3200 -0.2599 -1.5645
10479TIP3   OH252927   6.512   0.241   0.061  0.6047 -0.6961  0.4274
10479TIP3    H152928   6.450   0.178   0.023  0.3754 -0.1487 -0.1221
10479TIP3    H252929   6.598   0.209   0.034  0.4146 -0.0121 -1.0367
10480TIP3   OH252930   1.916   1.508  14.387  0.2848  0.3707  0.1687
10480TIP3    H152931   1.990   1.539  14.335 -0.4747  2.3156  0.2047
10480TIP3    H252932   1.907   1.416  14.363  2.1581  0.3305 -0.4867
10481TIP3   OH252933   3.761   4.710   2.371  0.2382  0.4092 -0.0995
10481TIP3    H152934   3.701   4.766   2.421  0.5098 -0.4827  1.2278
10481TIP3    H252935   3.814   4.665   2.437  1.0755 -0.2610 -1.2053
10482TIP3   OH252936   5.893   6.255   5.440  0.4465 -0.2814  0.6376
10482TIP3    H152937   5.858   6.178   5.484 -2.2735  0.4166 -0.1900
10482TIP3    H252938   5.896   6.230   5.347 -0.8699  0.7306  0.3085
10483TIP3   OH252939   5.351   2.193   2.332  0.2841  0.0659  0.1306
10483TIP3    H152940   5.284   2.232   2.277  1.0246 -0.2664 -1.0325
10483TIP3    H252941   5.304   2.134   2.392 -0.3980 -0.6400 -1.0914
10484TIP3   OH252942   5.686   6.562   4.447 -0.0598 -0.0229 -0.1313
10484TIP3    H152943   5.723   6.476   4.427 -0.1748 -0.1542  0.2116
10484TIP3    H252944   5.759   6.612   4.483  0.1463  0.2118 -0.8580
10485TIP3   OH252945   3.890   5.123   2.815  0.9737  0.3756 -0.3440
10485TIP3    H152946   3.888   5.086   2.903  0.3894 -1.2162 -0.9939
10485TIP3    H252947   3.848   5.208   2.823  1.8577  0.6824  1.1094
10486TIP3   OH252948   6.594   4.276  12.617  0.2419 -0.4993  0.1474
10486TIP3    H152949   6.500   4.261  12.627  0.3491 -0.8839  0.5864
10486TIP3    H252950   6.635   4.216  12.679  0.6627  1.8629  2.2641
10487TIP3   OH252951   4.752   3.917   1.246 -0.1198 -0.2688 -0.0165
10487TIP3    H152952   4.812   3.849   1.217 -0.8503 -0.7107 -0.4870
10487TIP3    H252953   4.804   3.969   1.308  0.2247 -1.6451  0.8743
10488TIP3   OH252954   5.065   2.003  14.699  0.1559  0.3241  0.5710
10488TIP3    H152955   5.003   2.045  14.638  0.2166  0.7559  0.8079
10488TIP3    H252956   5.118   2.075  14.732  2.2366 -0.3049 -1.2653
10489TIP3   OH252957   4.992   0.828   0.664 -0.0252  0.6668  0.0306
10489TIP3    H152958   4.965   0.845   0.574  0.4412 -1.7284 -0.5940
10489TIP3    H252959   5.081   0.794   0.657 -0.2221 -0.1556  1.3290
10490TIP3   OH252960   4.319   4.616   0.144  0.2689 -0.2358  0.2432
10490TIP3    H152961   4.380   4.564   0.196 -0.3240 -1.0505  0.1193
10490TIP3    H252962   4.236   4.568   0.148 -0.0062  0.1477 -0.7349
10491TIP3   OH252963   1.948   0.676   2.287  0.0399 -0.0479 -0.3082
10491TIP3    H152964   1.940   0.761   2.330  0.4109 -0.2172  0.0873
10491TIP3    H252965   1.997   0.622   2.348 -0.5711 -0.6832 -0.3706
10492TIP3   OH252966   3.248   0.027  16.294 -0.0250  0.3800 -0.1717
10492TIP3    H152967   3.261   0.116  16.261  0.7248  1.6290  3.2120
10492TIP3    H252968   3.336  -0.011  16.295 -0.1527  0.0866 -0.4066
10493TIP3   OH252969   1.214   4.903   3.936 -0.5437 -0.1974  0.2720
10493TIP3    H152970   1.261   4.950   3.867  0.5356 -3.1347 -1.0764
10493TIP3    H252971   1.275   4.899   4.009 -0.1693 -0.5309 -0.0539
10494TIP3   OH252972   2.839   2.402   3.588  0.3202 -0.3773 -0.3108
10494TIP3    H152973   2.774   2.335   3.608 -0.1456  0.6174  1.6278
10494TIP3    H252974   2.839   2.408   3.492 -1.7689 -1.0467 -0.3703
10495TIP3   OH252975   5.264   4.094  16.887  0.0970 -0.0833 -0.6792
10495TIP3    H152976   5.348   4.054  16.908 -0.7128 -0.5745  1.7714
10495TIP3    H252977   5.212   4.022  16.851 -0.3526 -0.5648  0.8986
10496TIP3   OH252978   2.393   6.250  14.458  0.1115  0.8293 -0.2317
10496TIP3    H152979   2.428   6.176  14.508 -1.5630  0.1000 -0.0689
10496TIP3    H252980   2.469   6.298  14.428  1.2646 -1.2865 -0.7978
10497TIP3   OH252981   6.560   6.005   0.915  0.2885  0.2639 -0.4221
10497TIP3    H152982   6.472   6.011   0.878  0.0867 -1.8827 -0.3543
10497TIP3    H252983   6.590   5.917   0.891  2.0310  0.6151  0.4053
10498TIP3   OH252984   5.651   3.386   4.859 -0.3677  0.2002  0.6180
10498TIP3    H152985   5.675   3.340   4.940 -0.0775  0.2475  0.5575
10498TIP3    H252986   5.578   3.443   4.885 -0.9671 -0.5580  0.6157
10499TIP3   OH252987   0.489   3.846   3.719 -1.3735 -0.4510  0.9068
10499TIP3    H152988   0.510   3.802   3.801  1.4779 -1.0272 -0.0943
10499TIP3    H252989   0.450   3.778   3.664 -0.8533 -0.7032  0.8497
10500TIP3   OH252990   5.001   3.308  11.980 -0.6090  0.1752 -0.3708
10500TIP3    H152991   4.906   3.299  11.969 -0.5828  0.2981 -0.6873
10500TIP3    H252992   5.028   3.367  11.911 -0.5691  1.6347  0.8677
10501TIP3   OH252993   6.692   4.129  15.249  0.1674 -0.2874  0.0435
10501TIP3    H152994   6.661   4.209  15.291 -0.8440  0.0266 -1.2618
10501TIP3    H252995   6.620   4.067  15.258 -0.0412 -0.2344 -1.1467
10502TIP3   OH252996   3.277   5.434  12.757  0.4655  0.2506  0.0173
10502TIP3    H152997   3.322   5.518  12.765  1.1468 -0.0379 -0.7550
10502TIP3    H252998   3.200   5.452  12.704  1.2611  0.1543 -1.1973
10503TIP3   OH252999   5.363   3.934   1.892  0.0207  0.5273  0.3713
10503TIP3    H153000   5.452   3.900   1.878 -0.1764 -0.1267  0.6792
10503TIP3    H253001   5.376   4.017   1.937  0.5755  1.5514 -1.6054
10504TIP3   OH253002   6.688   0.679   2.157 -0.4059  0.6429 -0.1992
10504TIP3    H153003   6.691   0.675   2.253  0.1065  1.8172 -0.1504
10504TIP3    H253004   6.734   0.760   2.135  2.6357 -1.3766 -1.6254
10505TIP3   OH253005   0.390   1.451   2.679 -0.4217  0.5859 -0.5670
10505TIP3    H153006   0.438   1.516   2.628  1.1493 -0.2772 -0.2096
10505TIP3    H253007   0.374   1.493   2.763  0.7365  0.4542 -0.2775
10506TIP3   OH253008   6.039   2.828  15.705 -0.1068  0.1509 -0.3132
10506TIP3    H153009   5.955   2.784  15.714  0.6602 -1.1607  0.7359
10506TIP3    H253010   6.052   2.836  15.610 -0.1838 -2.0929 -0.5457
10507TIP3   OH253011   0.070   6.699   4.695 -0.5073  0.2824  0.1617
10507TIP3    H153012   0.056   6.683   4.601 -0.0016 -0.5301  0.2233
10507TIP3    H253013   0.162   6.676   4.710 -1.0266 -1.1612  1.1933
10508TIP3   OH253014   5.964   3.767  15.870  0.0677  0.1382 -0.1057
10508TIP3    H153015   5.878   3.808  15.877 -0.2510 -0.6952  1.0315
10508TIP3    H253016   5.973   3.716  15.950  1.6649  0.2744 -0.1816
10509TIP3   OH253017   0.455   3.052  16.356 -0.1997  0.4371  0.5706
10509TIP3    H153018   0.544   3.074  16.382  0.5564 -0.5593 -1.0594
10509TIP3    H253019   0.442   2.962  16.386 -0.5349  0.4654  0.5175
10510TIP3   OH253020   0.872   0.645   1.359 -0.2326 -0.7536 -0.2004
10510TIP3    H153021   0.949   0.690   1.393 -0.2617  0.0468 -1.1684
10510TIP3    H253022   0.906   0.566   1.317  0.2320  0.3583 -1.9570
10511TIP3   OH253023   5.001   1.186   0.987  0.1358 -0.0944  0.2465
10511TIP3    H153024   4.942   1.118   0.954 -2.1315  0.9726  1.9235
10511TIP3    H253025   4.986   1.260   0.929  2.4947 -0.9293 -1.4863
10512TIP3   OH253026   6.543   1.992   1.509 -0.1676 -0.2924 -0.0591
10512TIP3    H153027   6.461   1.950   1.480 -0.9780 -1.2069  3.3680
10512TIP3    H253028   6.518   2.083   1.527  0.1359  0.0470 -1.3077
10513TIP3   OH253029   3.245   0.308   5.108 -0.3222 -0.1434  0.2257
10513TIP3    H153030   3.306   0.241   5.076 -1.1320 -0.6386 -0.3153
10513TIP3    H253031   3.259   0.310   5.203  0.2541 -0.5280  0.1545
10514TIP3   OH253032   4.591   4.409  13.064  0.7442 -0.8308 -0.3269
10514TIP3    H153033   4.653   4.479  13.084  0.4395  0.1319 -2.5593
10514TIP3    H253034   4.515   4.427  13.119  1.2417 -0.2244  0.1671
10515TIP3   OH253035   5.251   1.161   0.843  0.2636 -0.5808  0.1081
10515TIP3    H153036   5.175   1.147   0.900 -0.8686  0.0726 -1.1991
10515TIP3    H253037   5.301   1.080   0.850 -0.2364 -0.7927  1.4563
10516TIP3   OH253038   3.094   0.581   3.516  0.4661 -0.1352  0.4642
10516TIP3    H153039   3.050   0.665   3.514 -1.2730 -1.0537 -1.4609
10516TIP3    H253040   3.184   0.600   3.492 -0.3286  0.9428 -1.7728
10517TIP3   OH253041   2.604   6.124   5.289 -0.5994 -0.2686 -0.1783
10517TIP3    H153042   2.539   6.194   5.281 -3.3130 -2.7436 -0.6571
10517TIP3    H253043   2.583   6.082   5.373  0.6353 -0.8339 -0.1447
10518TIP3   OH253044   2.809   6.716   1.328 -0.7656 -0.6401 -0.2025
10518TIP3    H153045   2.760   6.637   1.305  0.5728 -1.5066 -0.1133
10518TIP3    H253046   2.787   6.733   1.419 -1.4817 -0.5933 -0.3828
10519TIP3   OH253047   5.084   2.484   3.215  0.2316  0.2251 -0.4394
10519TIP3    H153048   5.067   2.549   3.147 -0.7396  0.8127  0.3551
10519TIP3    H253049   5.017   2.499   3.281 -2.5708 -4.2235 -2.0660
10520TIP3   OH253050   5.174   2.505   1.116  0.0816 -0.0287  0.0438
10520TIP3    H153051   5.262   2.517   1.150 -0.7008  1.2182  1.6972
10520TIP3    H253052   5.187   2.472   1.027  2.1929 -0.1653  0.3722
10521TIP3   OH253053   1.500   1.156   6.242  0.2489 -0.3732  0.0179
10521TIP3    H153054   1.595   1.163   6.254  0.3994 -1.1660 -0.6859
10521TIP3    H253055   1.472   1.245   6.221  0.4320  0.4396  2.9822
10522TIP3   OH253056   1.818   2.010  17.137  0.2959  0.1751  0.0016
10522TIP3    H153057   1.864   2.058  17.069  1.9723 -2.8342 -1.0905
10522TIP3    H253058   1.753   1.957  17.089 -0.7897  0.5300  1.0542
10523TIP3   OH253059   1.836   0.569  15.850  0.0989  0.1679  0.0728
10523TIP3    H153060   1.906   0.522  15.895  1.0161  2.8194  1.5000
10523TIP3    H253061   1.765   0.573  15.914 -0.7091 -0.8590 -0.7179
10524TIP3   OH253062   0.420   0.658   1.627  0.1560 -0.3379  0.4743
10524TIP3    H153063   0.494   0.625   1.575 -0.3172  0.2893 -0.6104
10524TIP3    H253064   0.448   0.745   1.656  0.1712 -0.4392  0.7681
10525TIP3   OH253065   1.661   0.274  14.949 -0.3485 -0.2255 -0.2409
10525TIP3    H153066   1.656   0.202  15.012  1.5525 -1.5104 -1.4783
10525TIP3    H253067   1.731   0.247  14.888  0.5355  2.7497 -0.6127
10526TIP3   OH253068   5.687   3.708   6.367  0.0618  0.1433 -0.1037
10526TIP3    H153069   5.743   3.711   6.445  0.2649  0.5128 -0.2645
10526TIP3    H253070   5.598   3.716   6.402 -0.0216 -2.1682  0.3000
10527TIP3   OH253071   3.504   0.786  10.500 -0.1162  1.0115  0.6597
10527TIP3    H153072   3.479   0.694  10.496 -0.8423  1.2267  0.2889
10527TIP3    H253073   3.577   0.794  10.438  0.4343  0.5372  1.2379
10528TIP3   OH253074   0.793   1.958  16.304 -0.2331  0.2037  0.5697
10528TIP3    H153075   0.844   1.877  16.294  0.0269  0.3659  0.5958
10528TIP3    H253076   0.831   2.000  16.381  0.6978  1.1552 -0.3948
10529TIP3   OH253077   2.806   6.374  12.695 -0.1626 -0.0322 -0.1715
10529TIP3    H153078   2.818   6.280  12.679 -1.6999 -0.3467  0.5100
10529TIP3    H253079   2.789   6.411  12.608 -0.1757 -0.4715 -0.3577
10530TIP3   OH253080   4.016   4.020   3.695 -0.3056 -0.0296  0.3200
10530TIP3    H153081   4.012   4.096   3.636 -0.8175 -0.4356 -0.1761
10530TIP3    H253082   3.925   4.004   3.719 -0.1493 -0.2005  0.7976
10531TIP3   OH253083   1.899   1.981  12.773  0.5428 -1.0612  0.3678
10531TIP3    H153084   1.858   2.038  12.708  0.7682  0.6141  1.6605
10531TIP3    H253085   1.940   2.041  12.835  1.5540 -2.6618  1.2695
10532TIP3   OH253086   2.744   3.255  12.302  0.2931 -0.2140  0.0348
10532TIP3    H153087   2.808   3.320  12.331 -0.5788  0.3370  0.7508
10532TIP3    H253088   2.681   3.305  12.249 -0.5517 -0.4058  0.8477
10533TIP3   OH253089   2.734   2.188   4.138  0.2584 -0.0418 -0.0268
10533TIP3    H153090   2.803   2.231   4.188  1.6317 -2.2420  0.0690
10533TIP3    H253091   2.653   2.222   4.175  1.2816  1.8927  0.4992
10534TIP3   OH253092   0.862   5.400  15.803  0.2225  0.1941  0.1511
10534TIP3    H153093   0.914   5.321  15.795 -0.4518 -0.3746  1.2020
10534TIP3    H253094   0.810   5.403  15.723  1.9683  0.8674 -0.9966
10535TIP3   OH253095   5.381   1.751  16.623  0.0015  0.1096 -0.2760
10535TIP3    H153096   5.300   1.734  16.573 -1.3949 -2.9647  2.7974
10535TIP3    H253097   5.356   1.815  16.688 -0.1514 -1.2154  0.9999
10536TIP3   OH253098   0.346   6.339   5.041 -0.0316 -0.0270 -0.6382
10536TIP3    H153099   0.260   6.368   5.011 -0.1417  1.1208  0.7153
10536TIP3    H253100   0.328   6.292   5.123  0.5973 -0.1227 -0.5530
10537TIP3   OH253101   5.686   6.178   4.744  0.0786 -0.2237  0.9490
10537TIP3    H153102   5.660   6.102   4.796  0.8424 -0.2440  1.3181
10537TIP3    H253103   5.743   6.142   4.675  0.0105 -0.0550  0.8038
10538TIP3   OH253104   6.496   3.573   3.777 -0.0627 -0.2389  0.1066
10538TIP3    H153105   6.556   3.501   3.797 -1.2639 -1.2487  0.1369
10538TIP3    H253106   6.429   3.534   3.721  0.5662  1.4042 -1.8668
10539TIP3   OH253107   1.160   5.057  11.958  0.6726  0.2452  0.7026
10539TIP3    H153108   1.093   5.031  12.022  0.8121  1.4154  1.3435
10539TIP3    H253109   1.199   4.975  11.930 -2.4073 -0.6675 -1.2273
10540TIP3   OH253110   1.498   3.581  12.207 -0.2658 -0.3292 -0.0638
10540TIP3    H153111   1.526   3.563  12.297 -1.2778 -2.2266 -0.1067
10540TIP3    H253112   1.578   3.612  12.163  0.3525  0.1307  1.3521
10541TIP3   OH253113   2.546   0.632  17.118 -0.2296 -0.2970 -0.6651
10541TIP3    H153114   2.581   0.587  17.041 -1.2647 -1.8455 -0.2474
10541TIP3    H253115   2.622   0.667  17.163  0.6705 -2.3712 -0.5360
10542TIP3   OH253116   5.280   1.783  15.725 -0.1517  0.2472  0.1778
10542TIP3    H153117   5.208   1.719  15.721  0.2054 -0.1590  0.1145
10542TIP3    H253118   5.315   1.775  15.813 -0.4570  0.7515  0.3445
10543TIP3   OH253119   4.546   4.759  11.488 -0.5310  0.5680  0.4381
10543TIP3    H153120   4.516   4.748  11.579 -2.3164 -0.0281 -0.1992
10543TIP3    H253121   4.623   4.816  11.495 -0.9976  1.0174  2.2620
10544TIP3   OH253122   0.938   1.890  17.102 -0.1517 -0.2194 -0.1024
10544TIP3    H153123   0.851   1.930  17.104  0.5253  1.3081 -0.6215
10544TIP3    H253124   0.990   1.943  17.162  0.3138 -1.4023  0.5502
10545TIP3   OH253125   3.540   1.225   0.177  0.0082 -0.0947 -0.3067
10545TIP3    H153126   3.562   1.235   0.270  2.0284 -1.2862 -0.6216
10545TIP3    H253127   3.447   1.205   0.177  0.1407 -0.9002  1.5392
10546TIP3   OH253128   3.648   1.885   0.450 -0.1260  0.1687  0.2875
10546TIP3    H153129   3.610   1.951   0.391 -1.2152 -1.1301 -0.4853
10546TIP3    H253130   3.668   1.811   0.393  1.2771 -0.1250  1.1242
10547TIP3   OH253131   2.258   2.439  13.906  0.6019 -0.3034  0.2256
10547TIP3    H153132   2.314   2.411  13.978 -0.4700 -0.0757  1.1570
10547TIP3    H253133   2.193   2.370  13.896  0.7756 -0.3650 -0.5772
10548TIP3   OH253134   5.465   2.908   5.846  0.0225  0.3606 -0.3103
10548TIP3    H153135   5.422   2.929   5.763 -1.6813 -0.8574  0.2497
10548TIP3    H253136   5.427   2.970   5.908  2.2005  2.1068 -0.6434
10549TIP3   OH253137   0.127   1.045   0.269 -0.2065 -0.0267 -0.3590
10549TIP3    H153138   0.075   1.110   0.222 -0.1322  1.3362  1.3885
10549TIP3    H253139   0.099   0.961   0.232 -2.4447  0.7988 -0.6121
10550TIP3   OH253140   5.605   4.890   0.227  0.4076 -0.2879 -0.3762
10550TIP3    H153141   5.545   4.850   0.165 -0.8078 -0.2549  0.7417
10550TIP3    H253142   5.687   4.844   0.215 -0.4992 -1.9690 -0.3042
10551TIP3   OH253143   4.577   3.814  12.683  0.5678 -0.0285  0.0948
10551TIP3    H153144   4.635   3.821  12.759  2.2326 -0.4114 -1.1090
10551TIP3    H253145   4.504   3.760  12.713 -0.7408  2.9435  2.5403
10552TIP3   OH253146   5.776   2.578  12.322  0.1348 -0.1090 -0.4910
10552TIP3    H153147   5.754   2.671  12.314 -0.3878 -0.2385 -0.5712
10552TIP3    H253148   5.830   2.559  12.245  0.1137  0.0883 -0.5535
10553TIP3   OH253149   6.343   2.363   1.249 -0.0780 -0.3571 -0.4378
10553TIP3    H153150   6.432   2.332   1.265  0.5570  0.3249 -2.5444
10553TIP3    H253151   6.331   2.435   1.311  0.2189 -1.5425  1.0186
10554TIP3   OH253152   4.385   4.846  12.381 -0.7805 -0.1655 -0.7383
10554TIP3    H153153   4.444   4.842  12.457 -0.5690 -0.5728 -0.9249
10554TIP3    H253154   4.352   4.757  12.371  0.4235 -0.4681 -2.0944
10555TIP3   OH253155   6.816   5.072   4.773 -0.1678 -0.3543 -0.4006
10555TIP3    H153156   6.869   5.024   4.710 -0.1223  1.0983 -1.4958
10555TIP3    H253157   6.873   5.143   4.803 -1.1290  0.5935 -0.8031
10556TIP3   OH253158   2.040   1.031   1.540 -0.3324  0.0610  0.3115
10556TIP3    H153159   1.993   0.985   1.472 -0.8033 -0.2996  0.8787
10556TIP3    H253160   2.121   1.061   1.498 -1.1364  0.8398 -0.7067
10557TIP3   OH253161   4.757   4.827  12.899  0.0586 -0.0538  0.9445
10557TIP3    H153162   4.731   4.751  12.951 -0.3482 -0.5634  0.0073
10557TIP3    H253163   4.781   4.791  12.814  0.7829  0.7663  0.7958
10558TIP3   OH253164   3.415   3.113  13.128  0.1724 -0.6512 -0.4111
10558TIP3    H153165   3.326   3.112  13.091  0.0439 -1.8398 -0.0677
10558TIP3    H253166   3.469   3.152  13.059 -0.7721  1.0415 -0.2393
10559TIP3   OH253167   4.266   0.022   5.673  1.2241 -0.4278 -0.9413
10559TIP3    H153168   4.248   0.115   5.687 -0.5484 -0.4592 -2.7159
10559TIP3    H253169   4.243  -0.020   5.755  1.3184  0.6118 -0.3719
10560TIP3   OH253170   1.161   3.646  12.674 -0.2475  0.2101  0.5929
10560TIP3    H153171   1.254   3.625  12.659 -0.2697  0.6725 -0.2130
10560TIP3    H253172   1.114   3.568  12.645  0.0178 -0.9807  3.2554
10561TIP3   OH253173   1.885   3.319  15.884 -0.5144 -0.2635 -0.1387
10561TIP3    H153174   1.918   3.385  15.823  0.6412 -0.1329  0.6057
10561TIP3    H253175   1.903   3.354  15.971  1.6518 -2.2275  0.2831
10562TIP3   OH253176   6.380   5.779   1.567 -0.2713 -0.1247  0.8058
10562TIP3    H153177   6.333   5.704   1.604 -1.3673  0.4837  0.6804
10562TIP3    H253178   6.376   5.846   1.636 -1.1240  0.5315  0.1362
10563TIP3   OH253179   1.524   6.345   0.469 -0.6557 -0.2784 -0.3946
10563TIP3    H153180   1.541   6.270   0.526 -1.2754  0.1660  0.3678
10563TIP3    H253181   1.494   6.306   0.386 -2.2021 -0.8344  0.4125
10564TIP3   OH253182   6.038   1.233   3.819  0.0357  0.0507  0.4457
10564TIP3    H153183   6.066   1.264   3.905 -1.0460  1.0055  0.4594
10564TIP3    H253184   6.113   1.249   3.762  0.5055  0.0547  1.0627
10565TIP3   OH253185   1.441   6.174   1.030 -0.4906 -0.1659 -0.1991
10565TIP3    H153186   1.377   6.106   1.048  1.2502 -2.2463 -1.6752
10565TIP3    H253187   1.390   6.244   0.988 -2.4271 -0.1432  2.0484
10566TIP3   OH253188   1.060   6.631  13.589 -0.2790  0.1525  0.0277
10566TIP3    H153189   1.147   6.593  13.589 -0.1249  0.5106  0.5101
10566TIP3    H253190   1.022   6.602  13.506  0.3076  0.0272 -0.1994
10567TIP3   OH253191   4.997   0.276   5.219  0.0841 -0.3895  0.1129
10567TIP3    H153192   4.973   0.184   5.209 -0.2838 -0.3727  0.8422
10567TIP3    H253193   5.084   0.282   5.180  0.3582 -1.1659  0.6035
10568TIP3   OH253194   0.146   4.606   5.323 -0.7573  0.6791  0.4287
10568TIP3    H153195   0.141   4.697   5.294  1.0848  1.5701  2.7412
10568TIP3    H253196   0.193   4.561   5.252  0.4698  2.0326  0.3590
10569TIP3   OH253197   0.579   5.340   5.487  0.3630 -0.3513 -0.1961
10569TIP3    H153198   0.618   5.254   5.502 -0.9122 -0.7855  0.7381
10569TIP3    H253199   0.612   5.394   5.558  0.6445 -0.2377 -0.4107
10570TIP3   OH253200   6.549   3.389   5.626  0.1821 -0.0526 -0.1257
10570TIP3    H153201   6.574   3.298   5.641 -0.9093 -0.6264 -1.5861
10570TIP3    H253202   6.623   3.427   5.579  0.8735 -0.0288  0.9769
10571TIP3   OH253203   1.151   0.895  13.959 -0.0658 -0.3403 -0.1699
10571TIP3    H153204   1.235   0.929  13.930 -0.6644  1.2449 -0.1100
10571TIP3    H253205   1.101   0.883  13.879  0.4175 -1.8617 -0.2546
10572TIP3   OH253206   4.868   6.328  15.832  0.7687  0.1964  0.5308
10572TIP3    H153207   4.947   6.315  15.884  0.1757 -0.8126  1.1927
10572TIP3    H253208   4.796   6.303  15.890  0.0729 -0.5659 -0.6265
10573TIP3   OH253209   5.992   4.591   3.819 -0.4491 -0.4935  0.0921
10573TIP3    H153210   6.084   4.592   3.794 -0.5623  0.4786 -0.3322
10573TIP3    H253211   5.954   4.518   3.771 -0.1891 -0.0264 -0.8316
10574TIP3   OH253212   1.852   0.667  11.362  0.8993  0.5486  0.1947
10574TIP3    H153213   1.844   0.575  11.389  1.5449  1.1251  2.4961
10574TIP3    H253214   1.944   0.688  11.376  0.8666  1.3989 -0.8338
10575TIP3   OH253215   6.508   1.374  12.055  0.4880 -0.3082 -0.4891
10575TIP3    H153216   6.475   1.353  12.142 -0.8357 -0.1726 -0.9495
10575TIP3    H253217   6.511   1.469  12.052 -0.9391 -0.2748 -1.1218
10576TIP3   OH253218   2.072   0.850   1.753 -0.3533 -0.1204  0.0516
10576TIP3    H153219   2.130   0.913   1.796 -1.3419 -1.0133  2.7949
10576TIP3    H253220   2.029   0.901   1.685  2.6230  0.8855 -1.1526
10577TIP3   OH253221   3.349   6.445   5.066  0.5892  0.1880 -0.0621
10577TIP3    H153222   3.258   6.465   5.042  0.4557 -1.5433 -1.0550
10577TIP3    H253223   3.348   6.439   5.162 -0.1023  1.2615  0.0088
10578TIP3   OH253224   1.859   1.237  15.000 -0.0268 -0.4904  0.6450
10578TIP3    H153225   1.879   1.325  15.029  0.5527 -0.1202 -0.8540
10578TIP3    H253226   1.765   1.228  15.013 -0.5780  1.3539 -1.8212
10579TIP3   OH253227   3.572   2.037   3.137  0.0608  0.7513  0.1175
10579TIP3    H153228   3.537   2.114   3.093 -1.9660 -0.3758 -0.3161
10579TIP3    H253229   3.574   1.969   3.070  1.8127  0.4095  0.4911
10580TIP3   OH253230   6.349   4.275  12.191 -0.2290  0.4369  0.1444
10580TIP3    H153231   6.317   4.191  12.225 -0.9426  0.4500 -0.4806
10580TIP3    H253232   6.442   4.276  12.213  0.0070 -0.9793 -0.7702
10581TIP3   OH253233   1.843   0.655   0.515 -0.1369 -0.2207 -0.2259
10581TIP3    H153234   1.791   0.714   0.460 -0.8117 -0.3332  0.2736
10581TIP3    H253235   1.791   0.575   0.519  1.0436 -1.0620 -1.3574
10582TIP3   OH253236   2.079   3.761   2.572  0.1600 -0.3374 -0.0461
10582TIP3    H153237   2.099   3.841   2.524 -0.8622 -0.7790 -1.2130
10582TIP3    H253238   1.992   3.736   2.542  1.1515 -2.8131 -0.9381
10583TIP3   OH253239   0.654   3.608   3.494 -0.1188 -0.3981  0.1595
10583TIP3    H153240   0.586   3.625   3.560 -1.3002  0.2926 -1.1905
10583TIP3    H253241   0.717   3.679   3.506 -0.1156 -0.5144  0.8262
10584TIP3   OH253242   4.745   1.786  14.102  0.1067 -0.4346  0.3488
10584TIP3    H153243   4.736   1.745  14.188  1.0213 -4.2450 -1.2541
10584TIP3    H253244   4.836   1.817  14.100 -0.2086  0.5786  1.0813
10585TIP3   OH253245   1.963   3.745  13.090 -0.6114 -0.4316 -0.5153
10585TIP3    H153246   1.869   3.762  13.098 -0.3047  0.9526  0.4530
10585TIP3    H253247   1.976   3.660  13.132 -1.0559  0.6457  1.9339
10586TIP3   OH253248   6.431   6.799   2.675  0.0214  0.1854 -0.6061
10586TIP3    H153249   6.452   6.740   2.602 -0.2492 -0.2873 -0.2966
10586TIP3    H253250   6.498   6.781   2.741  2.1099  2.7383 -1.9292
10587TIP3   OH253251   5.654   2.149   0.877 -0.0934 -0.5063  0.2059
10587TIP3    H153252   5.606   2.094   0.939 -0.0661 -0.6036  0.1403
10587TIP3    H253253   5.603   2.145   0.796 -0.7911  0.6024  0.5812
10588TIP3   OH253254   1.833   5.858   0.529 -0.7349  0.1082 -0.5084
10588TIP3    H153255   1.849   5.840   0.622 -0.0634  0.1365 -0.6213
10588TIP3    H253256   1.884   5.937   0.511  0.0642 -0.5634 -1.1948
10589TIP3   OH253257   6.785   3.133  14.548  0.0798 -0.1224  0.4234
10589TIP3    H153258   6.857   3.085  14.587  0.1661  0.7780  1.4051
10589TIP3    H253259   6.711   3.118  14.608  0.1935  1.2115  0.9230
10590TIP3   OH253260   3.272   1.021   0.686 -0.3931  0.5436 -0.3130
10590TIP3    H153261   3.273   1.113   0.660 -0.4330  0.0752 -2.0886
10590TIP3    H253262   3.365   0.998   0.693 -0.3733  0.4977 -0.7142
10591TIP3   OH253263   4.494   2.768  16.848 -0.7087  0.1563 -0.1196
10591TIP3    H153264   4.455   2.741  16.931 -1.2720  1.7911  0.1709
10591TIP3    H253265   4.534   2.688  16.813 -1.3130 -0.7670  1.2444
10592TIP3   OH253266   4.539   2.044  13.208 -0.8832  0.4583 -0.6315
10592TIP3    H153267   4.503   2.114  13.153  0.8908  0.9750 -1.1803
10592TIP3    H253268   4.551   2.084  13.294 -3.5236 -0.3094  0.1422
10593TIP3   OH253269   2.433   1.809   6.490  0.2768  0.4056 -0.0047
10593TIP3    H153270   2.402   1.898   6.477 -0.5756 -0.0030 -0.9372
10593TIP3    H253271   2.394   1.760   6.417 -0.0502 -0.9097  1.0414
10594TIP3   OH253272   2.509   4.910  15.981 -0.2216 -0.7195 -0.0927
10594TIP3    H153273   2.594   4.873  15.958 -0.1730  0.2115 -1.4425
10594TIP3    H253274   2.506   4.905  16.077  1.4255 -0.6070 -0.0190
10595TIP3   OH253275   4.941   0.318  13.894 -0.2666 -0.1312  0.2928
10595TIP3    H153276   4.907   0.269  13.819 -0.2514 -0.6018  0.5860
10595TIP3    H253277   4.925   0.409  13.872 -3.1430 -0.3720  1.0633
10596TIP3   OH253278   4.306   6.444  12.567 -0.1374  0.3347  0.2007
10596TIP3    H153279   4.282   6.363  12.612  1.3899 -0.6350 -0.6808
10596TIP3    H253280   4.303   6.512  12.635  1.4303 -0.9755  1.6004
10597TIP3   OH253281   0.432   1.202   5.982 -0.1884  0.7780 -0.0222
10597TIP3    H153282   0.421   1.295   5.961 -3.0026  0.3267 -0.7189
10597TIP3    H253283   0.527   1.191   5.991  0.3931  3.1466 -2.5357
10598TIP3   OH253284   4.270   3.279   1.609 -0.8562  0.3002 -0.2680
10598TIP3    H153285   4.205   3.264   1.540  1.6867 -1.6154 -2.3734
10598TIP3    H253286   4.283   3.373   1.611 -0.9314  0.3909 -2.5354
10599TIP3   OH253287   2.453   3.443   3.755 -0.6311  0.1412 -0.2760
10599TIP3    H153288   2.539   3.453   3.715  0.7243 -0.8407  2.2755
10599TIP3    H253289   2.431   3.530   3.788 -0.0737  0.1427  0.0945
10600TIP3   OH253290   0.856   5.513   3.434 -0.0324  0.4315  0.6504
10600TIP3    H153291   0.853   5.417   3.439 -0.0237  0.2493 -2.2707
10600TIP3    H253292   0.943   5.536   3.466  0.7405 -0.6921 -0.6217
10601TIP3   OH253293   3.434   2.337  10.732 -0.4837  0.2455  0.0840
10601TIP3    H153294   3.349   2.296  10.718  0.2435 -1.4417  0.5109
10601TIP3    H253295   3.417   2.410  10.793 -1.3686 -1.0802  1.4479
10602TIP3   OH253296   3.401   5.430  12.007 -0.1677 -0.1185  0.1368
10602TIP3    H153297   3.488   5.408  11.976 -1.0665 -0.6348 -2.1524
10602TIP3    H253298   3.411   5.515  12.049  1.6490 -0.7451  1.0253
10603TIP3   OH253299   2.036   6.638   3.553  0.1062  0.1717 -0.3309
10603TIP3    H153300   1.967   6.699   3.580 -1.8673 -1.6412 -1.0552
10603TIP3    H253301   2.007   6.607   3.466  1.0495 -1.7462  0.0102
10604TIP3   OH253302   1.062   6.638   2.632  0.3565 -0.6883 -0.0410
10604TIP3    H153303   1.098   6.588   2.558  1.7117 -2.0211  1.4883
10604TIP3    H253304   1.006   6.575   2.678  0.4306 -0.1926  0.7310
10605TIP3   OH253305   1.755   5.970  14.283  0.1990  0.1162 -0.1498
10605TIP3    H153306   1.770   6.060  14.310 -0.0666  0.6540 -1.7134
10605TIP3    H253307   1.837   5.924  14.305  0.4104  0.7776  0.4626
10606TIP3   OH253308   6.235   4.080  11.943 -0.4239  0.2488 -0.0516
10606TIP3    H153309   6.246   4.170  11.972 -0.7666  0.2819 -0.0228
10606TIP3    H253310   6.142   4.061  11.958 -0.4172 -0.0107 -0.3351
10607TIP3   OH253311   1.609   3.235  15.885 -0.6280 -0.3276 -0.0827
10607TIP3    H153312   1.703   3.252  15.888 -0.5000 -1.0468  0.0256
10607TIP3    H253313   1.578   3.287  15.811 -0.4044  1.1188  0.8173
10608TIP3   OH253314   0.114   3.397  14.199  0.6086 -0.4751 -0.6503
10608TIP3    H153315   0.172   3.473  14.201 -0.8193  0.6320 -0.6460
10608TIP3    H253316   0.104   3.371  14.291  1.1056 -0.6856 -0.6542
10609TIP3   OH253317   3.341   2.466   0.207 -0.4466  0.2098 -0.1108
10609TIP3    H153318   3.375   2.436   0.123 -0.3492  0.3866 -0.1347
10609TIP3    H253319   3.400   2.428   0.272 -0.1987  0.5263 -0.1527
10610TIP3   OH253320   4.479   1.778   5.983 -0.1106  0.3908  0.6689
10610TIP3    H153321   4.419   1.799   6.055  1.0872  2.2841  1.1443
10610TIP3    H253322   4.558   1.746   6.027 -0.7563 -2.2028  0.0427
10611TIP3   OH253323   1.189   5.760  14.644 -0.0441 -0.8379  0.1451
10611TIP3    H153324   1.179   5.855  14.655  0.2945 -0.8967  1.0472
10611TIP3    H253325   1.283   5.745  14.653  0.2475 -0.9333 -2.8165
10612TIP3   OH253326   2.978   5.543  12.629 -0.2997 -0.0157  0.4676
10612TIP3    H153327   2.912   5.481  12.599 -1.3017  1.9012 -1.3850
10612TIP3    H253328   3.026   5.568  12.550 -0.0098  1.6555  1.1415
10613TIP3   OH253329   1.651   3.689  15.383 -0.2620 -0.0911  0.5195
10613TIP3    H153330   1.673   3.777  15.352  0.8372  0.1048  1.8128
10613TIP3    H253331   1.672   3.690  15.476  0.3987 -1.9193  0.4113
10614TIP3   OH253332   6.074   4.310  12.454 -0.5727  0.2229  0.1583
10614TIP3    H153333   6.170   4.309  12.449 -0.5788  0.7234 -0.1180
10614TIP3    H253334   6.052   4.238  12.513 -0.1388 -1.6178 -1.8669
10615TIP3   OH253335   3.657   6.424   1.647 -0.6234  0.3378  0.1056
10615TIP3    H153336   3.717   6.382   1.709 -1.5500  0.4802  1.1254
10615TIP3    H253337   3.627   6.503   1.693 -1.6046  0.2587 -0.3892
10616TIP3   OH253338   1.857   0.056  13.257 -0.3194  0.5083  0.2104
10616TIP3    H153339   1.816   0.141  13.239 -0.1880  0.6543  0.6045
10616TIP3    H253340   1.934   0.077  13.310 -0.8875  0.0533  1.2239
10617TIP3   OH253341   3.658   1.543   4.461 -0.5268  0.0266  0.7538
10617TIP3    H153342   3.706   1.467   4.493  0.1252  0.7886  1.6217
10617TIP3    H253343   3.702   1.618   4.502 -1.9918  0.7826  0.9738
10618TIP3   OH253344   4.848   6.471  13.572 -0.5961  0.3497  0.3156
10618TIP3    H153345   4.822   6.556  13.608  0.2409  0.9560 -0.4996
10618TIP3    H253346   4.799   6.408  13.624 -2.4767  1.3913 -0.1468
10619TIP3   OH253347   3.231   0.772  14.231 -0.3499  0.3108 -0.5797
10619TIP3    H153348   3.278   0.814  14.160 -1.8498  0.2803 -1.6154
10619TIP3    H253349   3.208   0.843  14.291 -1.3062  0.7178 -1.4204
10620TIP3   OH253350   1.473   3.018   1.825  0.2060  0.0360  0.0984
10620TIP3    H153351   1.500   3.062   1.905 -0.2959  0.7920 -0.1370
10620TIP3    H253352   1.503   3.076   1.755 -4.3869  2.3937 -0.1361
10621TIP3   OH253353   5.259   0.060   3.076 -0.9900 -0.4671  0.1076
10621TIP3    H153354   5.242   0.152   3.097 -1.7704 -0.9835  1.9284
10621TIP3    H253355   5.347   0.058   3.041 -0.8225  0.9412  0.4387
10622TIP3   OH253356   5.142   4.791  12.866 -0.1366  0.6284  0.2628
10622TIP3    H153357   5.120   4.822  12.778  0.3372  0.9585  0.2597
10622TIP3    H253358   5.212   4.727  12.852  0.9269  1.7255  0.5116
10623TIP3   OH253359   6.607   5.893   4.990 -0.3274  0.6593 -0.4984
10623TIP3    H153360   6.634   5.897   4.898 -0.0609  2.3238 -0.3643
10623TIP3    H253361   6.689   5.899   5.039 -0.1583 -3.1798 -0.1208
10624TIP3   OH253362   3.106   5.216  17.156  0.2793  0.1032  0.4189
10624TIP3    H153363   3.128   5.309  17.167 -0.5867  0.3058  0.5119
10624TIP3    H253364   3.148   5.173  17.230  1.4194  0.2909 -0.1061
10625TIP3   OH253365   3.348   0.700   2.451  0.5291 -0.2768 -0.5230
10625TIP3    H153366   3.443   0.697   2.465  0.1652 -0.1977  2.2604
10625TIP3    H253367   3.314   0.629   2.505 -1.1562  0.9724  0.1080
10626TIP3   OH253368   2.083   4.716   2.070 -0.1329 -0.4101  0.0336
10626TIP3    H153369   1.990   4.708   2.093  0.0989 -1.8507  0.5053
10626TIP3    H253370   2.106   4.631   2.035  0.8664  0.1505 -0.6813
10627TIP3   OH253371   5.459   4.888   4.581  0.4756  0.2942  0.3816
10627TIP3    H153372   5.500   4.975   4.578  1.1919  0.0279  1.7866
10627TIP3    H253373   5.448   4.871   4.675 -3.4574  0.6178  0.0496
10628TIP3   OH253374   1.779   2.272   6.198 -0.4038  0.1325 -0.1711
10628TIP3    H153375   1.749   2.182   6.213  1.3239 -0.5035 -0.4251
10628TIP3    H253376   1.705   2.327   6.224 -0.4791 -1.2554  2.7552
10629TIP3   OH253377   1.402   0.982   2.841  0.0835 -0.2727  0.4266
10629TIP3    H153378   1.366   1.064   2.874  1.3176  0.5826 -0.3009
10629TIP3    H253379   1.475   0.962   2.901  0.7234 -0.0496 -0.2744
10630TIP3   OH253380   1.226   4.117   1.469  0.4751 -0.1433  0.3283
10630TIP3    H153381   1.206   4.189   1.528  3.3100  1.8659 -1.0643
10630TIP3    H253382   1.309   4.141   1.428 -0.9861 -1.8117 -3.9431
10631TIP3   OH253383   3.706   4.349   1.041 -0.3540  0.3630  0.0461
10631TIP3    H153384   3.778   4.327   1.100  0.6933  1.5060 -0.7945
10631TIP3    H253385   3.630   4.356   1.099  0.4574  0.4890  1.1232
10632TIP3   OH253386   4.640   2.376  13.097 -0.4227  0.4315 -0.8260
10632TIP3    H153387   4.725   2.417  13.087 -0.4293  0.3901 -1.0624
10632TIP3    H253388   4.643   2.299  13.039 -0.6170  0.4272 -0.8315
10633TIP3   OH253389   6.444   4.750  11.722 -0.5337  0.4641 -0.1592
10633TIP3    H153390   6.421   4.842  11.713 -0.9536  0.4331  0.5787
10633TIP3    H253391   6.368   4.709  11.763  0.4595  0.1994  1.4978
10634TIP3   OH253392   2.032   4.827   5.679 -0.4060 -0.4019  0.6094
10634TIP3    H153393   2.108   4.880   5.657 -0.1737 -0.7516  0.5563
10634TIP3    H253394   2.040   4.811   5.773  0.0422 -1.1365  0.4530
10635TIP3   OH253395   3.281   4.673  13.321  0.0712  0.1153  0.0952
10635TIP3    H153396   3.251   4.629  13.400  0.3256  0.2841  0.2899
10635TIP3    H253397   3.218   4.744  13.307 -0.0940 -0.0437  0.0264
10636TIP3   OH253398   2.845   5.745   1.671 -0.1119 -0.0378 -0.1324
10636TIP3    H153399   2.914   5.759   1.735 -0.1622 -0.7767  0.0918
10636TIP3    H253400   2.890   5.714   1.593 -0.0321  1.0414 -0.5181
10637TIP3   OH253401   1.177   6.387   1.336 -0.4188 -0.6153 -0.2915
10637TIP3    H153402   1.103   6.448   1.331 -2.3459 -2.8102  0.6150
10637TIP3    H253403   1.158   6.332   1.412  2.3432 -1.0040  0.1624
10638TIP3   OH253404   3.188   0.498  14.688  0.2351  0.3071 -0.0617
10638TIP3    H153405   3.125   0.463  14.625 -0.4984  1.8401 -0.1962
10638TIP3    H253406   3.207   0.425  14.747  0.7485 -1.0738 -1.8999
10639TIP3   OH253407   2.734   2.642  15.658 -1.0756  0.3463  0.3303
10639TIP3    H153408   2.805   2.636  15.594 -1.6362 -3.5521 -0.0780
10639TIP3    H253409   2.675   2.709  15.623  0.4236  0.8080 -1.3838
10640TIP3   OH253410   5.217   3.569   1.303 -0.0039 -0.5070 -0.1419
10640TIP3    H153411   5.185   3.594   1.390  1.9294  0.2113  0.3916
10640TIP3    H253412   5.263   3.647   1.272 -0.5793 -0.8134 -1.7752
10641TIP3   OH253413   2.044   0.612   4.928  0.1634 -0.3520 -0.0521
10641TIP3    H153414   2.067   0.675   4.860 -3.9429  0.5275 -0.7925
10641TIP3    H253415   2.093   0.532   4.905  1.4024  0.9571 -2.1006
10642TIP3   OH253416   2.873   5.721   3.586  0.3806  0.4871 -0.1771
10642TIP3    H153417   2.859   5.669   3.507 -0.0159  0.3060  0.0086
10642TIP3    H253418   2.905   5.658   3.651  1.2243  0.7374 -0.3484
10643TIP3   OH253419   4.627   6.348  11.388 -0.5429  0.1964 -0.4091
10643TIP3    H153420   4.566   6.277  11.369 -2.2734  0.9817  1.9937
10643TIP3    H253421   4.693   6.308  11.444 -0.3170 -0.0337 -0.8395
10644TIP3   OH253422   2.381   4.707  12.325 -0.2715 -0.3105  0.4490
10644TIP3    H153423   2.290   4.737  12.323  0.4409  2.0447  1.4227
10644TIP3    H253424   2.425   4.766  12.387  3.0768  1.9851 -3.7944
10645TIP3   OH253425   4.802   1.533   4.020  0.2558  0.0232  0.0262
10645TIP3    H153426   4.786   1.523   3.927 -1.2097  0.0173  0.2680
10645TIP3    H253427   4.894   1.508   4.032  1.3731  3.0028 -1.8755
10646TIP3   OH253428   2.982   6.723   2.840 -0.0020  0.1339 -0.2304
10646TIP3    H153429   3.011   6.646   2.791  0.2964  0.7626 -1.0518
10646TIP3    H253430   3.061   6.758   2.880  0.0625  0.6989 -0.8398
10647TIP3   OH253431   5.934   1.496   0.585  0.5614 -0.5918 -0.1062
10647TIP3    H153432   5.851   1.510   0.538  0.1764 -0.5989  0.5706
10647TIP3    H253433   5.997   1.551   0.539 -0.1713  0.6642  0.3784
10648TIP3   OH253434   4.720   4.394   4.629 -0.0493  0.0033  0.6541
10648TIP3    H153435   4.777   4.323   4.602 -0.2327  0.0769  0.0476
10648TIP3    H253436   4.684   4.428   4.547 -1.6977 -0.6470  1.0755
10649TIP3   OH253437   0.099   5.461  12.302 -0.5385 -0.4089 -0.0525
10649TIP3    H153438   0.143   5.467  12.217  0.7143 -0.8441  0.5520
10649TIP3    H253439   0.030   5.397  12.289 -0.6000 -0.1898 -0.8467
10650TIP3   OH253440   5.307   5.532   3.069  0.2756  0.0521 -0.3921
10650TIP3    H153441   5.218   5.536   3.033  0.4401 -0.0258 -0.8193
10650TIP3    H253442   5.315   5.442   3.102  1.1095 -0.8358 -2.8185
10651TIP3   OH253443   0.917   3.159  12.882 -0.6073  0.2478  0.0324
10651TIP3    H153444   0.864   3.097  12.832 -0.2835  0.7350 -0.9179
10651TIP3    H253445   0.912   3.127  12.972 -4.2663  1.4865  0.3468
10652TIP3   OH253446   4.234   2.649   1.343 -0.0189 -0.4009  0.5590
10652TIP3    H153447   4.276   2.702   1.410 -1.1861  1.3725 -0.0668
10652TIP3    H253448   4.306   2.623   1.285  0.5495  0.7554  0.7202
10653TIP3   OH253449   3.341   3.620  17.236  0.0441 -0.0802 -0.4616
10653TIP3    H153450   3.432   3.643  17.217 -0.2295 -0.1895 -1.9069
10653TIP3    H253451   3.347   3.534  17.278  0.7983  1.0673  1.8828
10654TIP3   OH253452   5.076   2.883   4.225  0.3511  0.5346 -0.3648
10654TIP3    H153453   5.005   2.947   4.232 -0.4758 -0.3173 -0.7940
10654TIP3    H253454   5.072   2.852   4.135  0.7993 -0.0472 -0.1901
10655TIP3   OH253455   2.785   4.264   3.573  0.4770  0.0807 -0.1372
10655TIP3    H153456   2.831   4.343   3.601  2.1052 -0.7141 -0.5467
10655TIP3    H253457   2.820   4.245   3.486 -2.5421  0.9693 -1.6419
10656TIP3   OH253458   5.856   5.034  12.963 -0.2763 -0.5776 -0.7096
10656TIP3    H153459   5.890   5.123  12.971  0.1858 -0.4894 -3.2672
10656TIP3    H253460   5.890   4.989  13.040  2.8351  0.4280 -1.4082
10657TIP3   OH253461   0.711   1.874   6.444  0.3934  0.5005  0.7619
10657TIP3    H153462   0.698   1.966   6.419  0.5822  1.0908  2.7239
10657TIP3    H253463   0.635   1.853   6.499  1.2154  0.0380  1.7422
10658TIP3   OH253464   3.869   3.137  15.882  0.1851 -0.7839  0.5586
10658TIP3    H153465   3.954   3.134  15.839 -0.5600 -0.6733 -0.9649
10658TIP3    H253466   3.888   3.123  15.975  1.7808 -1.5234  0.1359
10659TIP3   OH253467   3.787   1.561  11.857  0.0006  0.5736  0.0198
10659TIP3    H153468   3.757   1.647  11.827 -0.0785  0.4901 -0.1407
10659TIP3    H253469   3.881   1.573  11.872  0.1880  0.4178 -0.9950
10660TIP3   OH253470   2.443   4.598   0.311  0.4371  0.1173 -0.0849
10660TIP3    H153471   2.422   4.609   0.218  0.1413  0.4289  0.0170
10660TIP3    H253472   2.370   4.546   0.345 -1.3711  3.0491  0.7463
10661TIP3   OH253473   0.432   0.404  12.306 -0.3293 -0.5328 -0.2960
10661TIP3    H153474   0.376   0.349  12.251 -0.9371  1.5262 -1.8157
10661TIP3    H253475   0.379   0.424  12.383 -1.4341  0.7087 -1.3385
10662TIP3   OH253476   1.078   0.490  15.205 -0.0195 -0.4545  0.0236
10662TIP3    H153477   1.008   0.425  15.197 -2.4226  2.1065 -0.8013
10662TIP3    H253478   1.156   0.445  15.173 -1.6168 -2.9063 -0.5815
10663TIP3   OH253479   3.095   6.692  12.257  0.1370  0.3431  0.4457
10663TIP3    H153480   3.083   6.717  12.349 -0.9920  1.7216 -0.0484
10663TIP3    H253481   3.177   6.734  12.231 -0.8370  2.1358  0.1323
10664TIP3   OH253482   3.986   5.202  13.083 -0.0146 -0.7500 -0.0117
10664TIP3    H153483   4.070   5.168  13.114  0.3607 -0.6694 -0.9346
10664TIP3    H253484   3.931   5.203  13.161  1.4938  1.2456  1.0745
10665TIP3   OH253485   5.402   6.471  15.708  0.1784 -0.1094 -0.2524
10665TIP3    H153486   5.403   6.564  15.688 -0.3749 -0.0692 -0.1080
10665TIP3    H253487   5.309   6.448  15.711  0.3138 -0.7148 -0.5234
10666TIP3   OH253488   4.642   1.254   5.996  0.0788  0.3004  0.1718
10666TIP3    H153489   4.589   1.191   6.045 -0.4615  2.4415  2.4091
10666TIP3    H253490   4.731   1.239   6.026 -0.1723  1.1952  1.4149
10667TIP3   OH253491   1.775   1.472  13.057 -0.4420 -0.1807 -0.0387
10667TIP3    H153492   1.863   1.488  13.091 -0.1954  0.0336 -0.7667
10667TIP3    H253493   1.718   1.479  13.134  0.2963 -1.4724  0.6339
10668TIP3   OH253494   5.887   5.491   4.949  0.6496 -0.1635  0.2841
10668TIP3    H153495   5.814   5.484   4.889  0.2446 -2.4461  1.0103
10668TIP3    H253496   5.945   5.419   4.925  1.8123  0.5591  0.8659
10669TIP3   OH253497   5.757   1.267  11.232  0.2703  0.5497  0.2653
10669TIP3    H153498   5.805   1.349  11.236  1.0028  0.1367  0.0533
10669TIP3    H253499   5.674   1.289  11.191 -0.4520  1.6117  2.2275
10670TIP3   OH253500   6.704   6.716  13.268 -0.0430 -0.2170 -0.2638
10670TIP3    H153501   6.613   6.710  13.237 -0.1665  2.4737 -0.5627
10670TIP3    H253502   6.706   6.661  13.346 -1.6603 -1.1242 -0.8338
10671TIP3   OH253503   2.110   6.311   6.443  0.0066  0.4808  0.0041
10671TIP3    H153504   2.114   6.255   6.521 -0.2880  0.6749  0.1585
10671TIP3    H253505   2.086   6.251   6.373 -0.3105  0.4114  0.1695
10672TIP3   OH253506   3.439   4.572  12.412 -0.2627 -0.3388 -0.0319
10672TIP3    H153507   3.364   4.627  12.437  1.4698  1.5297  1.2148
10672TIP3    H253508   3.477   4.617  12.336  0.2576 -0.6782  0.0302
10673TIP3   OH253509   2.335   0.006   4.525 -0.1229  0.0020 -0.1789
10673TIP3    H153510   2.404   0.064   4.557  0.6557 -1.0701  0.1048
10673TIP3    H253511   2.378  -0.049   4.460 -0.6584 -0.8394  0.1774
10674TIP3   OH253512   0.875   4.574   3.023 -0.2552 -0.2477 -0.2030
10674TIP3    H153513   0.814   4.550   2.953  0.1952  0.7210 -0.9459
10674TIP3    H253514   0.956   4.527   3.001 -0.5718 -1.1301  0.5019
10675TIP3   OH253515   0.939   1.951  13.070  0.2098  0.6110  0.4714
10675TIP3    H153516   0.924   1.879  13.130 -2.0614  1.7428  1.3120
10675TIP3    H253517   0.971   2.023  13.125  1.0900  0.7067 -0.1447
10676TIP3   OH253518   0.208   4.133  17.097  0.2063 -0.3178  0.3058
10676TIP3    H153519   0.256   4.072  17.041 -1.5585 -0.8364 -0.6464
10676TIP3    H253520   0.219   4.218  17.053 -0.3365 -0.5550 -0.3001
10677TIP3   OH253521   1.731   5.445   2.857  0.1178  0.6775 -0.4629
10677TIP3    H153522   1.776   5.511   2.911 -3.0289  2.6037 -0.0543
10677TIP3    H253523   1.673   5.496   2.800 -1.1606 -1.6792 -1.3479
10678TIP3   OH253524   5.068   2.043  14.307 -0.0832  0.5402 -0.4417
10678TIP3    H153525   5.027   1.993  14.237 -0.0244  1.1052 -0.8760
10678TIP3    H253526   5.108   2.118  14.264 -1.0325  1.5107  0.3375
10679TIP3   OH253527   2.998   5.111   0.720  0.0167  0.3249 -0.3515
10679TIP3    H153528   2.918   5.147   0.681  0.2214  0.2268 -0.8651
10679TIP3    H253529   3.046   5.075   0.646 -0.2015 -1.0370  0.1630
10680TIP3   OH253530   1.680   5.384   2.372  0.1021  0.1459 -0.2708
10680TIP3    H153531   1.639   5.469   2.391 -0.5234 -0.5511  1.5886
10680TIP3    H253532   1.762   5.406   2.328 -0.7040  1.6678 -1.0420
10681TIP3   OH253533   6.361   3.737   4.622 -0.0841  0.2456  0.3878
10681TIP3    H153534   6.349   3.794   4.699  1.6741 -1.1417  1.7225
10681TIP3    H253535   6.365   3.648   4.659 -0.5606 -0.5479 -1.4529
10682TIP3   OH253536   5.255   1.286  12.595  0.6471 -0.8154 -0.4737
10682TIP3    H153537   5.245   1.245  12.681  0.0425  0.0410 -0.1216
10682TIP3    H253538   5.292   1.372  12.615 -2.7290  0.7864 -0.7378
10683TIP3   OH253539   4.458   0.965  16.877  0.5341 -0.5846 -0.3466
10683TIP3    H153540   4.448   1.009  16.793  2.1299 -2.1248 -1.3453
10683TIP3    H253541   4.531   0.905  16.866  1.1383 -0.4319  2.3069
10684TIP3   OH253542   2.188   6.068   6.613  0.3966  0.2705 -1.1590
10684TIP3    H153543   2.169   6.144   6.669 -0.7401  1.6563 -3.3744
10684TIP3    H253544   2.113   6.011   6.624  0.9257 -0.2362 -0.0400
10685TIP3   OH253545   1.085   4.800  14.977 -0.2996 -0.1856 -0.3187
10685TIP3    H153546   1.094   4.867  15.045 -2.0175 -0.4483  0.1830
10685TIP3    H253547   1.172   4.796  14.936  0.0889  1.6599  0.2764
10686TIP3   OH253548   3.806   6.114  12.521  0.3026 -0.5187  0.1061
10686TIP3    H153549   3.712   6.103  12.536  0.7297 -1.1323  2.4224
10686TIP3    H253550   3.821   6.207  12.535  0.1216 -0.4894  0.1132
10687TIP3   OH253551   2.602   3.956  10.603  0.2303 -0.6769 -0.2306
10687TIP3    H153552   2.529   4.011  10.575  0.7078  0.7704  1.2744
10687TIP3    H253553   2.562   3.891  10.661  0.0830 -0.0305  0.4053
10688TIP3   OH253554   0.263   5.670   4.635  0.2805  0.0685 -0.1549
10688TIP3    H153555   0.233   5.579   4.629  0.9534 -0.2494  1.1431
10688TIP3    H253556   0.354   5.663   4.664  0.0663  1.1851  0.8328
10689TIP3   OH253557   2.722   3.107   2.919 -0.6607  0.4441 -0.4504
10689TIP3    H153558   2.645   3.075   2.966  1.0637  0.1109  2.2311
10689TIP3    H253559   2.696   3.193   2.886 -2.8362 -0.5082 -1.3212
10690TIP3   OH253560   3.906   5.829  11.784  0.3374 -0.4141 -0.0544
10690TIP3    H153561   3.829   5.787  11.746  0.0959 -0.2182  0.2190
10690TIP3    H253562   3.954   5.863  11.709 -0.8389  1.1852 -0.1142
10691TIP3   OH253563   0.089   0.839  15.847 -0.9180 -0.2250  0.3599
10691TIP3    H153564   0.151   0.904  15.880  1.0541 -2.0944  0.5134
10691TIP3    H253565   0.083   0.774  15.917 -0.7839 -1.5292 -0.8119
10692TIP3   OH253566   5.007   0.339  11.998  0.8051  0.4451  0.0945
10692TIP3    H153567   4.919   0.315  12.027  0.0918  2.0286 -0.6313
10692TIP3    H253568   5.064   0.272  12.033 -0.8104 -1.0647 -0.0981
10693TIP3   OH253569   6.512   6.183   1.160 -0.5465  0.3911  0.4674
10693TIP3    H153570   6.543   6.145   1.078  0.9587  2.4837  0.0371
10693TIP3    H253571   6.468   6.111   1.205 -3.0320 -0.3672 -2.9675
10694TIP3   OH253572   0.024   3.951  14.067  0.4243  0.3718  0.5489
10694TIP3    H153573   0.039   3.857  14.077  0.3450  0.2644 -0.2975
10694TIP3    H253574  -0.067   3.965  14.093 -0.7192 -0.3695 -2.7903
10695TIP3   OH253575   2.530   1.721  14.042  0.1478 -0.0633  0.2752
10695TIP3    H153576   2.493   1.737  13.955  1.2239 -0.9494 -0.3655
10695TIP3    H253577   2.603   1.782  14.049  1.1304 -1.1612 -0.1533
10696TIP3   OH253578   1.457   6.432  11.626 -0.1442  0.3952 -0.6094
10696TIP3    H153579   1.462   6.512  11.679  0.1024  1.7960 -2.7063
10696TIP3    H253580   1.548   6.408  11.611 -0.2097 -1.5240  1.7991
10697TIP3   OH253581   0.637   6.770   3.643 -0.0122 -0.2555  0.6596
10697TIP3    H153582   0.708   6.787   3.581 -0.2122  3.3741  1.3427
10697TIP3    H253583   0.560   6.757   3.587  0.1610  1.2084  0.0513
10698TIP3   OH253584   6.476   2.641   5.246  0.3117 -0.3438  0.1056
10698TIP3    H153585   6.521   2.636   5.330 -1.9687  2.1664  1.5607
10698TIP3    H253586   6.534   2.693   5.191  0.3914  0.6920  1.1430
10699TIP3   OH253587   4.096   3.025   0.731  0.2296 -0.0812 -0.5008
10699TIP3    H153588   4.105   2.934   0.705 -0.7486 -0.4254  0.3515
10699TIP3    H253589   4.047   3.067   0.660  1.7521  0.0813 -1.4918
10700TIP3   OH253590   0.911   4.192  14.405 -0.1636  0.5645  0.4089
10700TIP3    H153591   0.983   4.236  14.451 -0.4146  1.9132 -0.4538
10700TIP3    H253592   0.896   4.246  14.328 -0.3681 -1.1741 -0.7865
10701TIP3   OH253593   1.502   2.677   0.072  0.2526 -0.2055  0.3858
10701TIP3    H153594   1.589   2.644   0.095  0.7987  1.6758  1.1899
10701TIP3    H253595   1.503   2.684  -0.023  1.9120  2.0919  0.5159
10702TIP3   OH253596   2.287   4.859   1.615 -0.3125 -0.2316  0.7124
10702TIP3    H153597   2.366   4.904   1.586 -0.3583 -0.8076 -0.2898
10702TIP3    H253598   2.291   4.773   1.575 -1.1911 -0.4537  1.0799
10703TIP3   OH253599   4.183   2.126   2.346  0.2212 -0.6276  0.4908
10703TIP3    H153600   4.229   2.042   2.340  0.6686 -0.2794 -1.1670
10703TIP3    H253601   4.232   2.175   2.412  1.3500 -0.8199 -0.1893
10704TIP3   OH253602   0.322   0.485  11.921  0.4252 -0.0329  0.3348
10704TIP3    H153603   0.314   0.580  11.912 -0.6808 -0.1387  0.1364
10704TIP3    H253604   0.248   0.460  11.976  0.6047 -0.8023  0.2288
10705TIP3   OH253605   2.451   1.491  13.909  0.6618  0.1445 -0.6423
10705TIP3    H153606   2.532   1.527  13.945 -0.2364  2.1120 -0.5227
10705TIP3    H253607   2.398   1.471  13.986  0.7433 -0.4963 -0.7449
10706TIP3   OH253608   0.695   3.191  13.828  0.7355  0.2082  0.1275
10706TIP3    H153609   0.616   3.246  13.828 -0.7255 -1.8018  1.2719
10706TIP3    H253610   0.723   3.189  13.736  0.3287  2.1491 -0.0507
10707TIP3   OH253611   6.776   3.684   0.405  0.2991  0.2819 -0.0144
10707TIP3    H153612   6.836   3.749   0.369  0.0197  0.5646  0.0374
10707TIP3    H253613   6.745   3.635   0.328  1.9786 -1.0448  0.1159
10708TIP3   OH253614   0.338   4.712  15.388 -0.3953 -0.3941 -0.4907
10708TIP3    H153615   0.367   4.652  15.320  0.6128  2.6059 -2.8274
10708TIP3    H253616   0.243   4.719  15.375 -0.0295  1.2033 -2.5449
10709TIP3   OH253617   1.723   2.400  14.968  0.0856 -0.1202 -0.3172
10709TIP3    H153618   1.636   2.413  14.931  0.7647 -0.2877 -1.9937
10709TIP3    H253619   1.748   2.312  14.941 -0.2196 -1.0470  2.2631
10710TIP3   OH253620   0.520   6.019  17.005 -0.3897  0.0070  0.1824
10710TIP3    H153621   0.558   5.995  16.921  0.0700 -0.2700  0.4639
10710TIP3    H253622   0.566   5.964  17.068 -2.0737 -1.1645  0.4150
10711TIP3   OH253623   1.929   6.740   1.243  0.0898  0.2286  0.2695
10711TIP3    H153624   1.932   6.835   1.248  1.8561  0.0557  3.9241
10711TIP3    H253625   1.845   6.716   1.282  0.0299  0.2322  0.1443
10712TIP3   OH253626   0.289   0.318   2.491  0.3723  0.6307 -0.0380
10712TIP3    H153627   0.233   0.273   2.554  0.5122  0.3706 -0.0952
10712TIP3    H253628   0.272   0.273   2.408  2.8538 -1.4492  0.5075
10713TIP3   OH253629   3.133   0.244  12.946  0.2748  0.8691 -0.0693
10713TIP3    H153630   3.193   0.270  12.877  0.5651 -1.2751 -0.6852
10713TIP3    H253631   3.117   0.151  12.930 -1.1540  0.7791  1.6304
10714TIP3   OH253632   1.309   6.236  16.288 -0.3333 -0.1815 -0.2559
10714TIP3    H153633   1.388   6.255  16.237 -0.2204 -0.4027 -0.1623
10714TIP3    H253634   1.338   6.175  16.355 -0.3935  0.4539  0.3520
10715TIP3   OH253635   3.034   3.219  15.692 -0.2417  0.1495 -0.1619
10715TIP3    H153636   2.948   3.244  15.657 -0.6165  1.7356  1.8075
10715TIP3    H253637   3.053   3.135  15.649 -2.0181  0.5720 -1.8686
10716TIP3   OH253638   4.675   4.066   2.716 -0.8488  0.3891 -0.1884
10716TIP3    H153639   4.745   4.069   2.651 -0.1144 -0.7005  0.5358
10716TIP3    H253640   4.647   4.157   2.725 -1.0426  0.5509 -2.1027
10717TIP3   OH253641   2.293   4.606  16.235  0.2591  0.3608 -0.2830
10717TIP3    H153642   2.241   4.651  16.301 -1.3866 -1.9753  0.0869
10717TIP3    H253643   2.312   4.674  16.170  0.0938  2.1850  1.5203
10718TIP3   OH253644   2.373   5.793  13.320 -0.4195 -0.0650 -0.2191
10718TIP3    H153645   2.372   5.798  13.415  1.3422  0.3443 -0.2051
10718TIP3    H253646   2.324   5.870  13.291  3.0750  2.4791  0.3312
10719TIP3   OH253647   6.793   0.723   3.770  0.2244  0.1115 -0.0659
10719TIP3    H153648   6.708   0.732   3.726  0.0972  1.7863  0.4556
10719TIP3    H253649   6.774   0.745   3.862  1.1623  0.2391  0.0951
10720TIP3   OH253650   4.647   3.795  14.126 -0.5696 -0.4025  0.6007
10720TIP3    H153651   4.556   3.791  14.155 -0.7952  1.1943  0.1599
10720TIP3    H253652   4.674   3.885  14.143  0.6065 -0.5907 -0.2161
10721TIP3   OH253653   3.064   2.475  17.280  0.0491  0.1877  0.2237
10721TIP3    H153654   2.994   2.510  17.225  0.4730 -2.2255 -1.9520
10721TIP3    H253655   3.090   2.393  17.237  4.7532  1.3902  0.4881
10722TIP3   OH253656   4.086   3.177  17.087  1.0263 -0.3765  0.3024
10722TIP3    H153657   4.126   3.142  17.167  0.7704 -1.2554  0.0543
10722TIP3    H253658   4.135   3.257  17.069  0.7298  0.1264  1.6427
10723TIP3   OH253659   3.454   1.872  15.125  0.1395  0.1265 -0.5766
10723TIP3    H153660   3.410   1.847  15.207 -1.2057  1.0857 -0.9847
10723TIP3    H253661   3.501   1.793  15.098 -1.0092 -0.8091  0.1006
10724TIP3   OH253662   5.771   0.714  15.296  0.1446 -0.3029 -0.5125
10724TIP3    H153663   5.771   0.627  15.255 -4.1681 -0.8952  0.4959
10724TIP3    H253664   5.808   0.699  15.383 -0.2807 -1.0686 -0.4557
10725TIP3   OH253665   4.253   2.611   1.679 -0.0631 -0.4096  0.3039
10725TIP3    H153666   4.180   2.640   1.733 -0.0846 -0.8939  0.5411
10725TIP3    H253667   4.212   2.560   1.609 -0.0045 -0.1044  0.0426
10726TIP3   OH253668   1.569   2.808  14.132 -0.5119 -0.2970  0.2101
10726TIP3    H153669   1.482   2.848  14.125 -0.2943  0.2351  0.4593
10726TIP3    H253670   1.617   2.841  14.056 -0.4480 -0.3740  0.2173
10727TIP3   OH253671   2.090   0.708  16.890 -0.2148 -0.4375 -0.1802
10727TIP3    H153672   2.120   0.619  16.870 -0.5548 -0.5067 -0.4031
10727TIP3    H253673   2.027   0.696  16.961 -0.7491 -0.4513 -0.6497
10728TIP3   OH253674   3.558   2.789   1.452 -0.9730  0.2782 -0.3998
10728TIP3    H153675   3.572   2.773   1.546 -0.8939  1.1826 -0.2546
10728TIP3    H253676   3.469   2.824   1.447  0.6194  4.6615 -0.1094
10729TIP3   OH253677   5.444   1.989   4.022 -0.4095 -0.3953 -0.0655
10729TIP3    H153678   5.446   2.047   3.946 -0.2055 -0.4768 -0.1224
10729TIP3    H253679   5.364   1.937   4.011 -1.0192  0.4296  0.3969
10730TIP3   OH253680   2.096   1.603  16.728 -0.0237  0.8584 -0.0487
10730TIP3    H153681   2.171   1.557  16.766 -0.1651  0.5800 -0.1091
10730TIP3    H253682   2.059   1.652  16.801 -0.6963 -0.1968  0.3263
10731TIP3   OH253683   1.757   2.443  11.429  0.4413 -0.6496  0.9544
10731TIP3    H153684   1.754   2.365  11.374 -0.4332  0.2314 -0.2600
10731TIP3    H253685   1.775   2.514  11.369 -1.8111  0.5109  1.5852
10732TIP3   OH253686   5.206   4.403   3.936  0.0655 -0.1488 -0.1034
10732TIP3    H153687   5.214   4.433   3.846 -0.3989 -0.7614 -0.3546
10732TIP3    H253688   5.130   4.345   3.935  0.8547 -1.2016  0.3949
10733TIP3   OH253689   6.073   2.055  13.441 -0.3224 -0.1231  0.2408
10733TIP3    H153690   6.135   1.983  13.450 -0.5341 -0.5160 -1.2394
10733TIP3    H253691   6.114   2.127  13.489 -0.8698 -1.6399  3.0743
10734TIP3   OH253692   1.684   2.681   1.621 -1.0299 -0.2334  0.0518
10734TIP3    H153693   1.686   2.766   1.665 -4.0316 -0.9813  1.7674
10734TIP3    H253694   1.726   2.621   1.683  0.7159 -0.1524 -0.9869
10735TIP3   OH253695   5.850   2.468  14.695 -0.2459  0.3240 -0.1641
10735TIP3    H153696   5.826   2.422  14.615 -2.9330  1.5103 -0.0914
10735TIP3    H253697   5.802   2.423  14.764  1.1714  0.0227  0.6504
10736TIP3   OH253698   6.521   4.458   3.980 -0.2126  1.2800 -0.4733
10736TIP3    H153699   6.512   4.519   4.054  1.1966 -0.3069  1.0241
10736TIP3    H253700   6.496   4.373   4.016  1.5440  0.3068 -1.5057
10737TIP3   OH253701   1.552   3.344  13.259  0.3710  0.2903  0.7336
10737TIP3    H153702   1.470   3.392  13.273  1.0605  2.1889 -1.3657
10737TIP3    H253703   1.612   3.410  13.224  1.9991 -1.6839 -0.2729
10738TIP3   OH253704   5.594   0.971  14.144 -0.3090  0.2567 -0.7585
10738TIP3    H153705   5.592   0.881  14.112 -0.4171  0.1933 -0.5710
10738TIP3    H253706   5.658   1.015  14.087  1.4956 -0.5051  0.6318
10739TIP3   OH253707   5.089   2.984  12.552 -0.6677  0.3057 -0.1652
10739TIP3    H153708   5.048   3.056  12.599 -0.5533 -1.1661  2.2450
10739TIP3    H253709   5.018   2.949  12.496 -1.2284  1.0828  0.0479
10740TIP3   OH253710   1.299   5.607  15.962  0.0375  0.1667 -0.2965
10740TIP3    H153711   1.240   5.654  15.903 -1.1060  1.0401  1.4986
10740TIP3    H253712   1.338   5.675  16.017  0.1832 -0.7338  0.7403
10741TIP3   OH253713   2.285   5.497  12.969  0.4764 -0.1319  0.1927
10741TIP3    H153714   2.306   5.422  12.913  0.7253  0.5836 -0.6843
10741TIP3    H253715   2.261   5.566  12.908  0.0158  0.4336  1.0100
10742TIP3   OH253716   2.845   3.807   1.287  0.4955 -0.0941  0.3733
10742TIP3    H153717   2.829   3.881   1.346 -0.8563 -0.4795  0.5150
10742TIP3    H253718   2.918   3.760   1.327  1.4922  1.2656  0.1749
10743TIP3   OH253719   5.627   1.619   3.860 -0.5635 -0.3223 -0.4283
10743TIP3    H153720   5.649   1.569   3.939 -1.9814 -0.6621 -0.2372
10743TIP3    H253721   5.671   1.703   3.871 -1.3271 -0.1046  1.0651
10744TIP3   OH253722   4.292   0.356  16.524 -0.4121 -0.3080 -0.3695
10744TIP3    H153723   4.255   0.268  16.516  0.5517 -0.5717 -2.0903
10744TIP3    H253724   4.235   0.411  16.469  0.2206 -0.2592 -0.9918
10745TIP3   OH253725   6.772   3.062   3.005 -0.0797 -0.3695 -0.5853
10745TIP3    H153726   6.753   2.972   2.980 -0.5861 -0.4741  0.1468
10745TIP3    H253727   6.687   3.098   3.030  0.0425  0.4713 -1.3603
10746TIP3   OH253728   0.094   1.189   3.077 -0.0913 -0.1996 -0.1861
10746TIP3    H153729   0.090   1.162   3.168 -0.1676  1.7572  0.4251
10746TIP3    H253730   0.033   1.131   3.032 -3.0225  1.3057  1.6903
10747TIP3   OH253731   6.351   6.358   1.287 -0.1027 -0.1171  0.2956
10747TIP3    H153732   6.315   6.412   1.217  0.7421  1.7145  1.2491
10747TIP3    H253733   6.414   6.301   1.243 -0.6711 -0.0224 -0.6502
10748TIP3   OH253734   1.531   0.637   4.824  0.0740  0.3631 -0.3236
10748TIP3    H153735   1.617   0.678   4.818  0.3084 -0.2738 -1.6571
10748TIP3    H253736   1.536   0.561   4.765 -1.0224 -0.3608  0.4815
10749TIP3   OH253737   6.159   2.248   3.217 -0.2044  0.6494  0.4015
10749TIP3    H153738   6.106   2.270   3.140 -0.2402  2.5396  0.9537
10749TIP3    H253739   6.248   2.276   3.194  0.2748 -1.0331  0.1150
10750TIP3   OH253740   2.473   2.200  16.459  0.0696 -0.2645  0.4708
10750TIP3    H153741   2.436   2.287  16.474 -0.2485 -0.2007 -0.6249
10750TIP3    H253742   2.402   2.140  16.481 -0.7893 -0.1342 -1.8562
10751TIP3   OH253743   3.522   3.544  11.872 -1.1845  0.1066  0.2592
10751TIP3    H153744   3.571   3.522  11.951  0.8116  2.4267 -0.2939
10751TIP3    H253745   3.582   3.523  11.800 -2.2014  0.0020 -0.5710
10752TIP3   OH253746   0.982   0.961   1.067  0.5396 -0.6673  0.1446
10752TIP3    H153747   1.057   1.016   1.090  0.2005 -0.4687  0.7780
10752TIP3    H253748   1.021   0.874   1.053  0.7189 -0.9082  1.9126
10753TIP3   OH253749   3.376   4.947  14.689  0.1535  0.0673 -0.5290
10753TIP3    H153750   3.349   5.039  14.687  0.3160  0.1115 -0.9838
10753TIP3    H253751   3.423   4.935  14.606  0.7300 -0.2413 -0.1583
10754TIP3   OH253752   5.258   1.045   5.468 -0.0411  0.0878  0.1211
10754TIP3    H153753   5.290   1.064   5.379  0.2287 -1.4624 -0.1307
10754TIP3    H253754   5.325   0.988   5.506 -0.7681 -0.2760  0.8732
10755TIP3   OH253755   1.224   3.319   3.989  0.6917 -0.1096  0.1408
10755TIP3    H153756   1.228   3.299   3.896  2.3626  1.1141 -0.0846
10755TIP3    H253757   1.147   3.376   3.998 -1.8986 -3.4831  0.2113
10756TIP3   OH253758   2.814   2.635   2.568 -0.2055  0.3450 -0.0023
10756TIP3    H153759   2.892   2.665   2.616 -0.2587 -0.5621  0.6496
10756TIP3    H253760   2.758   2.713   2.563  1.1036  1.2622 -1.2541
10757TIP3   OH253761   5.213   2.625  12.557  0.1589 -0.4448  0.2084
10757TIP3    H153762   5.160   2.667  12.624 -0.8125 -0.2969 -0.6318
10757TIP3    H253763   5.301   2.658  12.571  0.1835 -1.2520  2.0916
10758TIP3   OH253764   1.566   5.548   4.543 -0.0400  0.1864  0.9715
10758TIP3    H153765   1.586   5.524   4.634 -0.8861 -0.2209  1.0548
10758TIP3    H253766   1.542   5.465   4.501  1.0835  0.2555  0.1761
10759TIP3   OH253767   0.970   5.922  15.344  0.0936 -0.4278 -0.3878
10759TIP3    H153768   0.997   5.831  15.330  0.9366 -0.2492  0.0268
10759TIP3    H253769   0.978   5.963  15.257 -1.2520 -0.9950 -0.7806
10760TIP3   OH253770   5.021   3.050  15.090 -0.2850 -0.2685  0.0089
10760TIP3    H153771   4.931   3.078  15.106  0.7641  2.2752  1.8596
10760TIP3    H253772   5.071   3.131  15.084  2.0183 -1.6447 -0.1157
10761TIP3   OH253773   5.716   1.142  12.770 -0.7585 -0.0162  0.1073
10761TIP3    H153774   5.810   1.158  12.770 -1.0701  2.1971 -2.5555
10761TIP3    H253775   5.708   1.047  12.765  1.3244 -0.1725 -0.6963
10762TIP3   OH253776   3.119   0.662  16.181  0.5718  0.6340  0.5136
10762TIP3    H153777   3.047   0.642  16.122 -0.0357 -0.5159  1.6279
10762TIP3    H253778   3.198   0.636  16.132  0.0844 -0.1367  0.1337
10763TIP3   OH253779   4.367   5.082  16.462  0.0516 -0.4240 -0.3580
10763TIP3    H153780   4.362   4.987  16.467  1.0873 -0.4786 -0.2903
10763TIP3    H253781   4.346   5.102  16.371 -2.2606 -0.5596  0.1169
10764TIP3   OH253782   3.465   5.313  17.206  0.1684  0.1874  0.4338
10764TIP3    H153783   3.541   5.290  17.258 -0.1454 -3.1703 -0.4914
10764TIP3    H253784   3.500   5.332  17.119  0.1548  0.6031  0.5178
10765TIP3   OH253785   6.307   5.979   3.053 -0.3144 -0.0832 -0.3333
10765TIP3    H153786   6.373   6.019   2.996  1.0244 -4.5113 -2.0917
10765TIP3    H253787   6.355   5.912   3.102 -3.0033 -1.6640  0.2273
10766TIP3   OH253788   5.329   4.070  10.251 -0.2918 -0.1841  0.4279
10766TIP3    H153789   5.419   4.079  10.283  0.7291  1.5354 -2.7543
10766TIP3    H253790   5.322   3.978  10.224  1.1858  0.1635 -1.2013
10767TIP3   OH253791   5.042   6.724   1.092  0.4013 -0.0741  0.6456
10767TIP3    H153792   5.083   6.805   1.123  0.3861 -0.8767  2.8757
10767TIP3    H253793   4.955   6.725   1.131  0.7746 -1.6422  1.5745
10768TIP3   OH253794   0.864   6.718   5.919  0.2625 -0.2148 -0.0894
10768TIP3    H153795   0.874   6.740   6.011 -3.0764  0.3845  0.2201
10768TIP3    H253796   0.952   6.699   5.888  1.5584  0.6023  2.9596
10769TIP3   OH253797   3.451   5.793  11.596  0.1123 -0.9473 -0.1228
10769TIP3    H153798   3.493   5.873  11.564  1.7934 -1.3392  1.0242
10769TIP3    H253799   3.358   5.815  11.600  0.5305  0.8901 -0.0109
10770TIP3   OH253800   5.811   1.725   1.759 -0.0105  0.5797  0.1986
10770TIP3    H153801   5.864   1.657   1.799  0.7905  0.7193 -0.6126
10770TIP3    H253802   5.821   1.801   1.817 -0.7699  0.0741  1.0117
10771TIP3   OH253803   1.944   0.676  13.676 -0.4684 -0.0116  0.2221
10771TIP3    H153804   1.871   0.714  13.628 -1.2928  0.3919  1.7578
10771TIP3    H253805   1.917   0.586  13.693  0.7615 -0.8255 -1.9426
10772TIP3   OH253806   5.204   1.453   3.363 -0.4842  0.2572  0.3090
10772TIP3    H153807   5.167   1.465   3.275 -0.9139 -0.8175  0.3267
10772TIP3    H253808   5.269   1.523   3.372 -0.4623  0.3985 -0.8537
10773TIP3   OH253809   6.356   1.483  13.108 -0.3919  0.5711  0.2561
10773TIP3    H153810   6.378   1.570  13.074 -3.8846  1.0491 -1.0003
10773TIP3    H253811   6.342   1.498  13.202  0.4926  1.0451  0.3210
10774TIP3   OH253812   2.894   5.790  12.372  0.0381  0.0375  0.3410
10774TIP3    H153813   2.850   5.708  12.395  1.8233 -1.3690 -1.1130
10774TIP3    H253814   2.987   5.769  12.376  0.5229  2.0186 -0.0580
10775TIP3   OH253815   4.828   5.152   5.704  0.1623  0.2228  0.0060
10775TIP3    H153816   4.861   5.082   5.647 -0.5064  0.2259 -0.3936
10775TIP3    H253817   4.796   5.219   5.643 -0.6570  0.1773  0.3893
10776TIP3   OH253818   2.565   2.607  11.291  1.0805 -0.4155 -0.6445
10776TIP3    H153819   2.648   2.617  11.337  2.6312 -2.1742 -2.9548
10776TIP3    H253820   2.499   2.635  11.355  3.0593 -3.3050  2.9101
10777TIP3   OH253821   2.426   4.913  14.772  0.1538 -0.4145  0.4386
10777TIP3    H153822   2.373   4.991  14.754  1.9265  0.9011  0.7853
10777TIP3    H253823   2.387   4.844  14.719 -0.5919  1.0552 -0.9485
10778TIP3   OH253824   4.997   2.161   5.965  0.4483  0.2502 -0.4808
10778TIP3    H153825   5.050   2.190   6.039  1.9204  1.1131 -1.8395
10778TIP3    H253826   4.998   2.235   5.904 -1.1975 -0.2354 -1.1208
10779TIP3   OH253827   2.118   0.733  11.378  0.2821  0.4425  0.5542
10779TIP3    H153828   2.111   0.795  11.451 -0.3402  0.4778  0.4675
10779TIP3    H253829   2.186   0.770  11.322  0.4489  0.6508  0.8892
10780TIP3   OH253830   3.426   1.232  11.284 -0.3834 -0.2418  0.2043
10780TIP3    H153831   3.374   1.224  11.364  2.9563 -2.0251  2.3105
10780TIP3    H253832   3.480   1.310  11.298  1.1177 -1.2783  0.2529
10781TIP3   OH253833   4.831   6.030  11.683  0.1032 -0.8211 -0.6732
10781TIP3    H153834   4.834   6.120  11.648  0.1786 -0.0585  1.2495
10781TIP3    H253835   4.757   5.990  11.638 -0.8218  0.6530 -0.5137
10782TIP3   OH253836   1.573   4.029  14.043  0.0426 -0.4363 -0.4685
10782TIP3    H153837   1.588   4.108  13.992  0.6036  0.8273  1.5843
10782TIP3    H253838   1.596   3.957  13.984  0.0100  0.9403 -2.1849
10783TIP3   OH253839   0.122   6.446   3.191 -0.1436  0.3456 -0.4288
10783TIP3    H153840   0.070   6.437   3.270 -0.0651  0.1655 -0.3977
10783TIP3    H253841   0.167   6.362   3.182 -1.3616 -0.2070 -1.5288
10784TIP3   OH253842   1.771   2.686   3.990 -0.7175  0.5613  0.8733
10784TIP3    H153843   1.807   2.635   4.063  1.9914 -0.2540 -0.9242
10784TIP3    H253844   1.697   2.635   3.958 -1.0002  0.1933  2.0952
10785TIP3   OH253845   0.662   0.780   4.099  0.0200  0.2231 -0.6037
10785TIP3    H153846   0.746   0.735   4.109  0.8666  2.0770  1.1007
10785TIP3    H253847   0.687   0.869   4.075 -1.3906  1.1203  1.1466
10786TIP3   OH253848   6.269   5.252  15.118  0.4822  0.4409  0.2043
10786TIP3    H153849   6.245   5.160  15.130 -0.1207  0.6077  0.2670
10786TIP3    H253850   6.199   5.288  15.064  0.7905  0.8314  0.0677
10787TIP3   OH253851   4.411   1.857  17.180 -0.0733  0.2650  0.6117
10787TIP3    H153852   4.351   1.900  17.120 -1.1583 -0.2531  1.3238
10787TIP3    H253853   4.394   1.764  17.170  0.1911  0.1426  1.2522
10788TIP3   OH253854   2.166   0.082  11.990  0.0146  0.1466  0.6196
10788TIP3    H153855   2.199   0.086  11.901 -0.3140  3.6727  0.6200
10788TIP3    H253856   2.101   0.011  11.988  2.1853 -1.8961 -1.1295
10789TIP3   OH253857   0.892   0.247   2.058  0.1113  0.0698 -0.5255
10789TIP3    H153858   0.959   0.188   2.093  0.1063 -0.2266 -1.0005
10789TIP3    H253859   0.881   0.315   2.124  2.7014  1.5521 -1.5749
10790TIP3   OH253860   3.595   1.130   2.078  0.1782  0.0998 -0.2061
10790TIP3    H153861   3.512   1.136   2.031 -1.2266 -2.8617  1.7403
10790TIP3    H253862   3.583   1.182   2.157  0.6314  0.6942 -0.5252
10791TIP3   OH253863   1.498   3.030   0.035  0.2161  0.3656  0.0079
10791TIP3    H153864   1.527   2.940   0.017 -0.0331  0.3751 -0.4630
10791TIP3    H253865   1.451   3.056  -0.045 -1.0480  0.3692  0.7514
10792TIP3   OH253866   3.526   4.624  10.392  0.1874 -0.4032 -0.1592
10792TIP3    H153867   3.523   4.659  10.481  2.7052  0.8846 -0.5355
10792TIP3    H253868   3.602   4.666  10.352 -0.5733 -1.3882 -2.7570
10793TIP3   OH253869   0.906   5.079  15.369  0.1287 -0.6272  0.3814
10793TIP3    H153870   0.897   5.110  15.279 -1.3336 -0.4740  0.5769
10793TIP3    H253871   0.994   5.107  15.395  0.4839 -0.5025 -0.9315
10794TIP3   OH253872   6.455   0.654  13.799 -0.5982 -0.2296  0.1058
10794TIP3    H153873   6.385   0.654  13.865 -0.9602 -1.8025 -0.2653
10794TIP3    H253874   6.423   0.711  13.730 -0.6232  0.6786  0.8512
10795TIP3   OH253875   4.176   2.048   3.486 -0.1533 -0.0054  0.6168
10795TIP3    H153876   4.183   2.141   3.510 -1.7488  0.1828  0.3752
10795TIP3    H253877   4.148   2.005   3.567  1.2781 -0.3994  0.9209
10796TIP3   OH253878   0.615   1.309   2.630  0.4645  0.1786  0.1441
10796TIP3    H153879   0.529   1.322   2.669  0.4997  4.2074 -0.9089
10796TIP3    H253880   0.677   1.322   2.701  0.2787 -2.1252  0.7686
10797TIP3   OH253881   0.531   6.369  16.184 -0.4960  0.0569  0.1733
10797TIP3    H153882   0.490   6.439  16.235 -0.3798 -0.6099  1.1918
10797TIP3    H253883   0.458   6.313  16.157 -0.4704 -0.0126  0.2509
10798TIP3   OH253884   4.059   5.313  16.604  0.0446 -1.0689 -0.1709
10798TIP3    H153885   3.982   5.256  16.603 -0.2898 -0.6178  0.0767
10798TIP3    H253886   4.102   5.297  16.520 -1.3909  0.1657 -1.1459
10799TIP3   OH253887   4.814   3.667   0.894 -0.3682  0.4228 -0.0058
10799TIP3    H153888   4.841   3.620   0.815  1.2631 -0.4289  1.0348
10799TIP3    H253889   4.896   3.698   0.932 -1.2946  2.5637  0.3009
10800TIP3   OH253890   3.272   5.428  11.658 -0.3294 -0.0914  0.0908
10800TIP3    H153891   3.241   5.518  11.655  0.3649  0.1191 -0.7808
10800TIP3    H253892   3.195   5.377  11.685 -0.5283  0.8421  1.3301
10801TIP3   OH253893   6.526   6.315  13.529  0.0666 -0.1306 -0.1163
10801TIP3    H153894   6.507   6.270  13.611 -1.0774  2.4769  1.1115
10801TIP3    H253895   6.621   6.308  13.520  0.2808  0.0610  1.7576
10802TIP3   OH253896   3.486   1.418  16.090  0.0478  0.3492 -0.3841
10802TIP3    H153897   3.468   1.507  16.120 -0.8388 -0.5413  1.8515
10802TIP3    H253898   3.434   1.362  16.148  0.8233 -1.6423 -1.5568
10803TIP3   OH253899   0.524   1.481   0.894 -0.1484  0.4792 -0.1103
10803TIP3    H153900   0.478   1.513   0.971  0.0845 -0.9678  0.6467
10803TIP3    H253901   0.595   1.544   0.879 -0.7400  1.2465  0.3145
10804TIP3   OH253902   0.429   4.794  12.479 -0.1799 -0.1548  0.3496
10804TIP3    H153903   0.447   4.710  12.436 -1.4415 -0.9141  1.2879
10804TIP3    H253904   0.487   4.795  12.555 -0.9761 -0.7068  0.9801
10805TIP3   OH253905   3.443   6.666   0.045 -0.3996 -0.2467 -0.1315
10805TIP3    H153906   3.447   6.744   0.100  0.4637 -0.8018  0.5883
10805TIP3    H253907   3.522   6.671  -0.009 -0.6178 -0.3456 -0.4617
10806TIP3   OH253908   0.676   5.306  11.135 -0.4981  0.0362  0.0735
10806TIP3    H153909   0.750   5.326  11.192 -1.4119 -0.6352  1.5358
10806TIP3    H253910   0.716   5.282  11.051  0.8826  0.6686  0.5364
10807TIP3   OH253911   5.177   4.671   5.773 -0.3462 -0.0112 -0.4587
10807TIP3    H153912   5.179   4.584   5.813 -3.1282 -0.6030 -1.5184
10807TIP3    H253913   5.267   4.703   5.781  0.0731 -1.7771  2.5403
10808TIP3   OH253914   1.043   1.479   4.503 -0.2302 -0.4289  0.1574
10808TIP3    H153915   1.062   1.390   4.472  3.2209  0.2660 -0.0187
10808TIP3    H253916   1.073   1.536   4.432 -4.7694  0.8830 -0.8306
10809TIP3   OH253917   3.972   0.711   5.975 -0.1908 -0.4876 -0.7450
10809TIP3    H153918   4.048   0.652   5.976  1.2976  1.3796 -0.0823
10809TIP3    H253919   3.987   0.768   5.899  2.0969  3.6079  2.5752
10810TIP3   OH253920   6.662   5.199   3.832  0.8295 -0.2099 -0.8075
10810TIP3    H153921   6.674   5.286   3.793 -1.7078  1.2938  1.5821
10810TIP3    H253922   6.619   5.148   3.763 -0.1604  1.2543 -1.3026
10811TIP3   OH253923   5.501   6.668   2.716  0.0655 -0.0783  0.2851
10811TIP3    H153924   5.423   6.649   2.768  0.4166  0.4350  1.0097
10811TIP3    H253925   5.523   6.758   2.738  0.1926  0.1561 -0.7983
10812TIP3   OH253926   0.778   5.952   2.097  0.1421  0.2379  0.1115
10812TIP3    H153927   0.684   5.968   2.108  0.7324  3.8204  0.7057
10812TIP3    H253928   0.794   5.965   2.004 -0.0556 -1.2403 -0.1452
10813TIP3   OH253929   1.583   2.321   1.476 -0.0584 -0.5613  0.0875
10813TIP3    H153930   1.547   2.348   1.391  0.4031  1.1669  0.4213
10813TIP3    H253931   1.563   2.394   1.535  1.2933 -0.9137  1.0104
10814TIP3   OH253932   4.066   0.465  13.608  0.7757  0.2610  0.2208
10814TIP3    H153933   4.032   0.406  13.675 -0.8832  0.9557  0.0196
10814TIP3    H253934   4.143   0.506  13.649 -1.2751  2.0726  2.4589
10815TIP3   OH253935   6.405   3.027   6.121  0.4997 -0.0584  0.1303
10815TIP3    H153936   6.363   2.969   6.183 -0.3993  1.4153  0.9230
10815TIP3    H253937   6.494   3.038   6.154  0.3697 -0.1844  0.5176
10816TIP3   OH253938   5.627   1.268  10.794 -0.2804  0.2074 -0.0491
10816TIP3    H153939   5.535   1.288  10.781 -0.2807  0.3206  0.1229
10816TIP3    H253940   5.651   1.213  10.719 -0.8008 -0.8286  0.5381
10817TIP3   OH253941   4.489   4.255  17.282 -0.0981 -0.3750 -0.3650
10817TIP3    H153942   4.549   4.325  17.257  0.1709 -0.8699 -1.0799
10817TIP3    H253943   4.524   4.221  17.364  1.9039 -2.2132 -1.9396
10818TIP3   OH253944   1.173   2.411   5.947 -0.1572  0.4347  0.5181
10818TIP3    H153945   1.226   2.438   6.022  2.2709  2.3416 -1.7770
10818TIP3    H253946   1.126   2.490   5.920 -3.6675 -1.0419  2.0128
10819TIP3   OH253947   3.288   3.004  15.267  0.2297  0.0541  0.0105
10819TIP3    H153948   3.204   2.988  15.225  0.6933 -0.0999 -0.8966
10819TIP3    H253949   3.293   3.100  15.275  0.7011  0.1830 -1.5461
10820TIP3   OH253950   6.748   3.640   3.306  0.5271 -0.0214 -0.5441
10820TIP3    H153951   6.791   3.557   3.285 -0.3969 -0.8346  0.6959
10820TIP3    H253952   6.670   3.640   3.250  0.9055  0.3611 -1.0770
10821TIP3   OH253953   2.157   1.484   0.345  0.1190  0.2409 -0.1674
10821TIP3    H153954   2.071   1.526   0.352  0.0436  0.1567 -0.5659
10821TIP3    H253955   2.148   1.403   0.395 -0.8851 -1.1007 -2.4097
10822TIP3   OH253956   2.532   0.715   4.196 -0.3423 -0.4020  0.0458
10822TIP3    H153957   2.512   0.791   4.141 -0.5143  0.9628  1.9397
10822TIP3    H253958   2.448   0.691   4.236 -0.2079 -1.3308 -0.2222
10823TIP3   OH253959   5.619   2.638   4.009  0.9263  0.2346  0.1660
10823TIP3    H153960   5.707   2.672   4.025  0.7082  0.3161  1.2734
10823TIP3    H253961   5.593   2.676   3.925  1.9729  0.1455 -0.2081
10824TIP3   OH253962   5.440   3.599  14.297 -0.7114 -0.5389  0.0544
10824TIP3    H153963   5.374   3.530  14.286 -1.0090 -0.1000 -1.0161
10824TIP3    H253964   5.436   3.649  14.215 -0.8071  1.0300  0.9916
10825TIP3   OH253965   3.472   1.043  15.432  0.3079 -0.0194 -0.1216
10825TIP3    H153966   3.522   0.967  15.401  1.3712  0.2344  0.9497
10825TIP3    H253967   3.518   1.072  15.510 -0.9490  0.8370  0.3190
10826TIP3   OH253968   5.361   5.009  12.817 -0.1101 -0.4559 -0.1120
10826TIP3    H153969   5.289   5.039  12.872 -0.3572 -0.5433 -0.3867
10826TIP3    H253970   5.399   4.936  12.865 -0.2181 -0.4235  0.0239
10827TIP3   OH253971   0.761   0.044   4.953 -0.7187 -0.3460 -0.1271
10827TIP3    H153972   0.774   0.000   5.037 -1.7188 -1.2039 -0.4138
10827TIP3    H253973   0.849   0.075   4.929 -0.1431 -1.4737  0.4697
10828TIP3   OH253974   0.863   3.266   3.507 -0.0606  0.7156 -0.1454
10828TIP3    H153975   0.870   3.343   3.564  0.1342 -1.2129  2.5478
10828TIP3    H253976   0.948   3.224   3.514 -0.3870 -0.1038 -1.0716
10829TIP3   OH253977   2.810   6.651   5.533 -0.3350 -0.1726 -0.4754
10829TIP3    H153978   2.869   6.581   5.561  0.3433  0.4823 -0.2477
10829TIP3    H253979   2.852   6.688   5.455 -0.2037  0.5968 -0.0488
10830TIP3   OH253980   2.960   2.396  13.822 -0.3894  0.3662  0.2973
10830TIP3    H153981   2.923   2.439  13.745 -1.3125  0.0709  0.5650
10830TIP3    H253982   3.037   2.350  13.789 -2.1964 -1.8663 -0.9962
10831TIP3   OH253983   5.374   0.198   0.338 -0.4213  0.4830  0.0760
10831TIP3    H153984   5.362   0.115   0.384 -4.2597  0.3603 -1.0029
10831TIP3    H253985   5.345   0.181   0.249 -0.8724  2.8915 -0.2785
10832TIP3   OH253986   5.001   3.454   5.639  1.0654  0.0320 -0.2133
10832TIP3    H153987   4.915   3.473   5.676 -0.0877 -2.9486 -1.2757
10832TIP3    H253988   5.051   3.418   5.712  0.9884  0.4833  0.0660
10833TIP3   OH253989   3.007   2.217  12.559 -0.1008  0.6944 -0.2284
10833TIP3    H153990   2.925   2.169  12.568 -0.2604  0.5210 -2.3366
10833TIP3    H253991   2.993   2.276  12.485  1.4532  1.1500 -0.1906
10834TIP3   OH253992   5.279   4.138  11.488  0.0267  0.1031  0.2422
10834TIP3    H153993   5.358   4.152  11.436 -1.0363  2.0347 -0.9381
10834TIP3    H253994   5.213   4.110  11.424 -0.6162 -0.0925  0.9834
10835TIP3   OH253995   4.957   1.110  13.256 -0.0595 -0.0532  0.1939
10835TIP3    H153996   4.967   1.048  13.184  0.0889  1.0902 -0.8072
10835TIP3    H253997   4.909   1.063  13.324 -1.2120 -0.8007 -1.1194
10836TIP3   OH253998   0.685   6.394   4.447 -0.5041  0.2003  0.2979
10836TIP3    H153999   0.765   6.390   4.501  0.4754 -0.2772 -1.1483
10836TIP3    H254000   0.627   6.329   4.485  1.0686 -1.7767 -0.5740
10837TIP3   OH254001   1.553   1.482  10.480 -0.3118  0.5647 -0.2219
10837TIP3    H154002   1.466   1.521  10.491 -0.6740  0.0279 -1.0838
10837TIP3    H254003   1.583   1.514  10.395  0.3017  0.6837  0.0374
10838TIP3   OH254004   0.973   0.127   1.803  0.3282  0.2617 -0.2675
10838TIP3    H154005   0.937   0.179   1.875 -1.1103  0.9101 -1.4296
10838TIP3    H254006   1.067   0.145   1.804  0.1087  1.3831  0.5484
10839TIP3   OH254007   2.051   3.664  11.086  0.9860 -0.2742 -0.2188
10839TIP3    H154008   2.109   3.670  11.163 -0.3547  0.0191  0.7972
10839TIP3    H254009   2.093   3.601  11.029  1.4819 -1.3066  1.2415
10840TIP3   OH254010   2.886   5.967  16.077 -0.3678  0.1652  0.1105
10840TIP3    H154011   2.840   6.028  16.135 -1.6667 -0.2228 -0.4921
10840TIP3    H254012   2.825   5.893  16.067 -0.3337  0.3882 -2.0351
10841TIP3   OH254013   3.549   5.569   3.797 -0.0319  0.0601  0.0480
10841TIP3    H154014   3.618   5.622   3.836  0.9289  0.4871 -2.1252
10841TIP3    H254015   3.592   5.486   3.775 -0.0524  0.5370 -1.8417
10842TIP3   OH254016   1.727   0.737  12.543 -0.2533  0.4046  0.2652
10842TIP3    H154017   1.750   0.692  12.461  0.7685 -0.2340  0.8817
10842TIP3    H254018   1.796   0.802  12.554  0.3402 -0.3749  1.2658
10843TIP3   OH254019   3.774   6.378   6.538 -0.3345  0.6287  0.0715
10843TIP3    H154020   3.752   6.338   6.623  0.7582  0.2723  0.1902
10843TIP3    H254021   3.689   6.393   6.497 -0.8078 -0.7998  0.4916
10844TIP3   OH254022   1.256   3.919  14.964  0.4175 -0.6119 -0.5423
10844TIP3    H154023   1.213   3.956  14.887  0.9694  0.8876 -0.1545
10844TIP3    H254024   1.264   3.826  14.945  0.6295 -0.2454 -2.3439
10845TIP3   OH254025   2.472   1.319  11.108 -0.2386 -0.0698 -0.3846
10845TIP3    H154026   2.434   1.364  11.183 -0.9901  1.0893 -1.4347
10845TIP3    H254027   2.401   1.264  11.074 -0.4074  0.6384 -1.2003
10846TIP3   OH254028   4.214   3.656  10.586 -0.4984  0.3234 -0.0354
10846TIP3    H154029   4.264   3.641  10.505 -0.9341  0.6609 -0.3701
10846TIP3    H254030   4.127   3.682  10.556 -0.9221 -0.4148  0.5478
10847TIP3   OH254031   6.742   3.229  11.688  0.3161 -0.0289  0.1308
10847TIP3    H154032   6.819   3.245  11.743  0.8087 -0.8429 -0.3105
10847TIP3    H254033   6.671   3.211  11.750 -0.0812  2.9695  0.6255
10848TIP3   OH254034   3.132   3.283   0.968 -0.6952 -0.3255 -0.0772
10848TIP3    H154035   3.107   3.368   0.932  1.1610  0.5220  0.5803
10848TIP3    H254036   3.219   3.297   1.004 -0.2534 -2.5927 -0.1976
10849TIP3   OH254037   4.267   0.980  14.505 -0.1280 -0.4988  0.2092
10849TIP3    H154038   4.252   0.893  14.541 -0.1629 -0.8294 -0.5993
10849TIP3    H254039   4.272   0.966  14.410 -0.3767  0.4116  0.0628
10850TIP3   OH254040   0.248   5.842  14.205  0.3555 -0.2262 -0.1477
10850TIP3    H154041   0.170   5.897  14.212  0.3794 -0.1945 -0.1242
10850TIP3    H254042   0.216   5.756  14.178  0.3820 -0.0309 -0.8041
10851TIP3   OH254043   5.987   2.341   2.632 -0.4648  0.0729 -0.2216
10851TIP3    H154044   6.048   2.332   2.559  1.1375 -1.9580  1.3199
10851TIP3    H254045   6.019   2.416   2.682 -0.9059  0.7624 -0.9625
10852TIP3   OH254046   4.914   4.138  11.723  0.8728  0.0554  0.0588
10852TIP3    H154047   5.008   4.117  11.722  0.7929 -0.2937 -0.0699
10852TIP3    H254048   4.899   4.180  11.638  0.7883 -0.4428 -0.1773
10853TIP3   OH254049   1.636   6.544  16.886 -0.3261  0.4194 -0.0209
10853TIP3    H154050   1.654   6.565  16.977  0.1287  0.3025 -0.0830
10853TIP3    H254051   1.700   6.594  16.836 -0.9283  0.9187 -0.3126
10854TIP3   OH254052   3.955   3.732  10.470 -0.2708 -0.2793 -0.3498
10854TIP3    H154053   3.896   3.663  10.442 -0.6008  0.0321 -0.4296
10854TIP3    H254054   3.933   3.807  10.414  1.1140 -0.5646 -1.3075
10855TIP3   OH254055   2.999   5.214  16.557 -0.1032  0.3398  1.1560
10855TIP3    H154056   3.079   5.162  16.547 -1.7040 -2.1806  1.0118
10855TIP3    H254057   3.009   5.285  16.494  1.0541 -1.1998 -0.4584
10856TIP3   OH254058   4.553   1.304   4.301  0.0373  0.1215 -0.3989
10856TIP3    H154059   4.539   1.330   4.210  1.0062 -0.7229 -0.7881
10856TIP3    H254060   4.551   1.209   4.300  3.5318 -0.0049 -0.1195
10857TIP3   OH254061   3.610   3.688  13.467  0.6077  0.4577 -0.1185
10857TIP3    H154062   3.590   3.598  13.444 -1.1867  0.6533  0.5285
10857TIP3    H254063   3.668   3.719  13.398  3.5123 -1.9977  1.1050
10858TIP3   OH254064   4.118   6.304   6.244  0.0741  0.5539  0.1697
10858TIP3    H154065   4.150   6.342   6.163  0.9892 -1.2750 -0.3640
10858TIP3    H254066   4.186   6.240   6.268 -1.6477 -1.0978  0.7413
10859TIP3   OH254067   4.336   4.273  11.372 -0.0000  0.3151 -0.0269
10859TIP3    H154068   4.383   4.356  11.363 -0.2411  0.6497  1.6876
10859TIP3    H254069   4.273   4.274  11.299 -0.6815  2.1073  0.5461
10860TIP3   OH254070   3.639   5.276  16.461  0.1254 -0.4045 -0.5546
10860TIP3    H154071   3.675   5.308  16.544 -0.2232 -1.2454 -0.0776
10860TIP3    H254072   3.715   5.261  16.405  0.3790 -0.1249 -0.2848
10861TIP3   OH254073   4.380   2.778  12.514 -0.6011  0.5148 -0.2414
10861TIP3    H154074   4.424   2.730  12.444 -2.3108  1.6960 -2.1801
10861TIP3    H254075   4.305   2.723  12.537 -0.3948  0.4282  0.2131
10862TIP3   OH254076   3.927   5.816  15.097 -0.2277 -0.2175  0.3043
10862TIP3    H154077   3.834   5.830  15.078 -0.1696 -0.4063 -0.1400
10862TIP3    H254078   3.928   5.741  15.157 -0.5100  1.4071  2.3701
10863TIP3   OH254079   0.868   5.242   3.473  0.4466 -0.4853 -0.0892
10863TIP3    H154080   0.928   5.172   3.499  2.7373  1.4496 -0.0833
10863TIP3    H254081   0.848   5.224   3.381  0.7319 -1.3335  0.0130
10864TIP3   OH254082   1.592   6.754  11.676  0.0181 -0.2273 -0.1690
10864TIP3    H154083   1.520   6.796  11.630  1.0891  1.3384 -0.4450
10864TIP3    H254084   1.664   6.754  11.613  0.9175  0.2029  0.8329
10865TIP3   OH254085   6.320   2.664  12.609 -0.3971 -0.0467 -0.0568
10865TIP3    H154086   6.299   2.746  12.565 -0.1209 -0.0580 -0.2117
10865TIP3    H254087   6.235   2.630  12.638 -0.3410  1.2211  1.6786
10866TIP3   OH254088   4.463   6.771   4.021 -0.0257  0.1988  0.2770
10866TIP3    H154089   4.367   6.766   4.024  0.1162 -2.0015  1.9355
10866TIP3    H254090   4.481   6.850   3.969 -2.6872 -1.0412 -2.7055
10867TIP3   OH254091   4.095   4.976  15.876  0.6807 -0.1907  0.6315
10867TIP3    H154092   4.085   4.892  15.831  1.2305  0.9341 -1.7044
10867TIP3    H254093   4.024   5.030  15.841  1.4868  0.9081  0.6642
10868TIP3   OH254094   3.802   0.929   3.500 -0.0523  0.2927  0.1308
10868TIP3    H154095   3.854   1.009   3.512  1.3917 -0.2169 -2.3378
10868TIP3    H254096   3.853   0.862   3.544 -0.8261  0.5731  1.4577
10869TIP3   OH254097   1.684   0.434   3.365  0.5702 -0.8889 -0.1562
10869TIP3    H154098   1.646   0.511   3.323  0.5584 -0.7850  0.0454
10869TIP3    H254099   1.734   0.391   3.296  2.3698  0.4673  0.2857
10870TIP3   OH254100   5.114   0.836  10.791  0.6969 -0.0181  0.3315
10870TIP3    H154101   5.164   0.911  10.761 -1.0552  1.0408 -0.0413
10870TIP3    H254102   5.029   0.845  10.748  0.0229 -1.5166  1.2827
10871TIP3   OH254103   5.807   6.067  13.610  0.2796  0.4588  0.1504
10871TIP3    H154104   5.887   6.014  13.603  0.6046  1.0196 -0.4202
10871TIP3    H254105   5.837   6.157  13.601 -0.1602  0.8187  2.0999
10872TIP3   OH254106   0.715   0.538  11.374  0.5222 -0.5312 -0.2681
10872TIP3    H154107   0.706   0.559  11.281  1.2634  0.4364 -0.1222
10872TIP3    H254108   0.687   0.446  11.380 -1.2982 -0.0732 -1.1464
10873TIP3   OH254109   1.134   3.516   0.640  0.1648 -0.2544  0.4583
10873TIP3    H154110   1.131   3.429   0.601  1.1808 -0.4800  0.8737
10873TIP3    H254111   1.206   3.561   0.594 -2.0797  1.3227 -1.6893
10874TIP3   OH254112   4.583   3.606  16.191  0.5817  0.0867 -0.2432
10874TIP3    H154113   4.551   3.562  16.270 -0.2866 -1.8404 -1.6072
10874TIP3    H254114   4.571   3.540  16.122  1.0942  1.8250 -2.0096
10875TIP3   OH254115   0.351   5.965  11.083  0.2152  0.2286 -0.4481
10875TIP3    H154116   0.364   6.055  11.055  0.9873 -0.0351 -0.9481
10875TIP3    H254117   0.258   5.949  11.069  0.1393  0.8419 -0.6627
10876TIP3   OH254118   4.439   6.677   2.934  0.1570  0.2283  0.4232
10876TIP3    H154119   4.372   6.642   2.876 -0.3486  0.4110  0.8971
10876TIP3    H254120   4.470   6.602   2.984 -0.8457  0.4390  1.3587
10877TIP3   OH254121   2.612   6.474  11.645 -0.5745  0.5934 -0.5904
10877TIP3    H154122   2.666   6.406  11.685  1.9437  1.6496 -2.1077
10877TIP3    H254123   2.596   6.441  11.556  1.8643  2.5971 -1.8132
10878TIP3   OH254124   1.952   6.756  12.089  0.2927 -0.5013  0.3394
10878TIP3    H154125   2.009   6.700  12.142 -0.8415 -2.3219 -0.3612
10878TIP3    H254126   1.893   6.796  12.153  0.7616 -0.4855  0.7756
10879TIP3   OH254127   5.046   0.129   5.478  0.2866  0.4582 -0.2148
10879TIP3    H154128   5.028   0.196   5.412 -0.6934  1.9442  1.5053
10879TIP3    H254129   5.124   0.161   5.524  0.6092 -0.2727 -0.2380
10880TIP3   OH254130   5.687   3.100   2.134 -0.8490  0.1405  0.4991
10880TIP3    H154131   5.675   3.046   2.056 -0.9592 -0.0266  0.6332
10880TIP3    H254132   5.630   3.175   2.120 -0.4050  0.4156  0.1342
10881TIP3   OH254133   5.270   2.152   4.369 -0.1222 -0.2186  0.0105
10881TIP3    H154134   5.253   2.190   4.283  0.2713  1.2655  0.5673
10881TIP3    H254135   5.337   2.086   4.354 -0.5221 -0.4163 -0.9238
10882TIP3   OH254136   2.770   0.982   0.177 -0.8351  0.0956 -0.4288
10882TIP3    H154137   2.812   0.918   0.119 -0.3678  0.1335 -0.1388
10882TIP3    H254138   2.688   0.940   0.203 -2.8034  1.5574 -3.9510
10883TIP3   OH254139   4.987   0.826   1.777  0.0216  0.1035 -0.2313
10883TIP3    H154140   4.897   0.838   1.748 -0.7727 -1.3253  1.5839
10883TIP3    H254141   4.994   0.734   1.801  1.4795  0.5408  1.2154
10884TIP3   OH254142   0.990   1.728   1.631 -0.2146  0.0198  0.0078
10884TIP3    H154143   0.987   1.685   1.716  1.1363  1.5285  0.8258
10884TIP3    H254144   1.078   1.764   1.624 -1.5617  3.4461 -0.2676
10885TIP3   OH254145   4.715   1.956   4.464 -0.1844  0.2418  0.4723
10885TIP3    H154146   4.724   2.032   4.406 -0.8494 -1.0881 -1.4498
10885TIP3    H254147   4.667   1.988   4.540  2.1611  2.4438  1.0871
10886TIP3   OH254148   3.396   0.330   6.444  0.3955 -0.2044 -0.1022
10886TIP3    H154149   3.322   0.273   6.467 -1.4374  1.9969 -0.4080
10886TIP3    H254150   3.385   0.346   6.350  0.7574  0.8679  0.0334
10887TIP3   OH254151   6.756   0.068   5.356 -1.3110  0.2777  0.1872
10887TIP3    H154152   6.777   0.056   5.448 -0.0173 -0.5757 -0.2078
10887TIP3    H254153   6.698  -0.005   5.335 -1.4754  0.3798  0.2918
10888TIP3   OH254154   3.031   1.968   1.341  0.4250 -0.7085 -0.0934
10888TIP3    H154155   3.032   1.885   1.293  0.9662  0.2976 -1.8470
10888TIP3    H254156   3.113   2.010   1.317  1.0001 -0.4626  2.2335
10889TIP3   OH254157   1.524   0.235  14.266  0.1961  0.4379 -0.1099
10889TIP3    H154158   1.582   0.304  14.237  0.1156  0.2941 -0.6171
10889TIP3    H254159   1.440   0.278  14.280 -0.1090  0.2667 -1.3692
10890TIP3   OH254160   0.024   3.459  16.749 -0.0628 -0.0767 -0.2299
10890TIP3    H154161   0.110   3.502  16.750  0.2863 -0.6605 -2.6079
10890TIP3    H254162   0.041   3.374  16.792  0.3599  0.1266  0.0196
10891TIP3   OH254163   2.249   2.630  15.192  0.7283 -0.7898 -0.0917
10891TIP3    H154164   2.297   2.660  15.114  1.6424 -0.0762  0.7276
10891TIP3    H254165   2.160   2.661  15.178  1.1300  0.2877 -0.3633
10892TIP3   OH254166   2.202   2.174  13.146 -0.3397  0.0569  0.3330
10892TIP3    H154167   2.235   2.144  13.231 -0.7245  2.0172  1.2034
10892TIP3    H254168   2.280   2.203  13.098 -0.2410  0.0054  0.4618
10893TIP3   OH254169   1.159   0.369  16.061  0.0765  0.5134  0.2034
10893TIP3    H154170   1.085   0.426  16.079  0.7392  1.2922  0.4840
10893TIP3    H254171   1.124   0.300  16.004 -1.8196 -1.4077  3.5422
10894TIP3   OH254172   5.799   0.232   4.643 -0.3990  0.2139  0.0347
10894TIP3    H154173   5.833   0.271   4.723 -0.2660  1.8360 -0.8067
10894TIP3    H254174   5.876   0.215   4.590 -0.5453 -0.2180 -0.0414
10895TIP3   OH254175   5.866   0.862   5.984 -0.2291  0.5936 -0.0185
10895TIP3    H154176   5.785   0.911   6.000 -0.0637  0.6359  0.6924
10895TIP3    H254177   5.845   0.773   6.012  0.0663  0.6732  0.4598
10896TIP3   OH254178   5.459   4.595   4.120 -0.6450 -0.0055 -0.0074
10896TIP3    H154179   5.485   4.503   4.117 -0.0517  0.1836 -1.1908
10896TIP3    H254180   5.533   4.639   4.163 -1.3679 -0.2168  1.4660
10897TIP3   OH254181   0.176   5.158   0.278  0.5021 -0.4624 -0.3347
10897TIP3    H154182   0.182   5.185   0.186 -1.5864  1.2269 -0.0105
10897TIP3    H254183   0.106   5.093   0.279 -0.9316  1.0539  0.3544
10898TIP3   OH254184   3.196   6.542  16.186 -0.1622 -0.7355  0.9966
10898TIP3    H154185   3.217   6.470  16.247  1.2711 -1.0784  0.1176
10898TIP3    H254186   3.213   6.621  16.237  1.2117 -1.0209  1.0133
10899TIP3   OH254187   5.659   2.585   2.546  0.0779 -0.5145  0.0982
10899TIP3    H154188   5.625   2.669   2.516  0.5542 -0.0745  0.7659
10899TIP3    H254189   5.608   2.520   2.498 -1.0632  0.1352  0.4064
10900TIP3   OH254190   1.787   2.453  16.522  0.0970  0.1228 -0.1434
10900TIP3    H154191   1.745   2.458  16.436 -1.2920 -0.3858  0.4913
10900TIP3    H254192   1.766   2.536  16.564  0.0930  0.0438  0.0092
10901TIP3   OH254193   1.454   4.229   0.200  0.1456 -0.3698 -0.4239
10901TIP3    H154194   1.425   4.138   0.194 -1.3307  0.0878 -0.3898
10901TIP3    H254195   1.504   4.244   0.120 -0.4868 -0.8996 -0.9182
10902TIP3   OH254196   4.074   4.326  15.672 -0.3269 -0.0568 -0.2160
10902TIP3    H154197   4.075   4.318  15.767  0.6125  0.6817 -0.1638
10902TIP3    H254198   3.981   4.332  15.650 -0.6631 -2.4029  0.4584
10903TIP3   OH254199   4.382   4.376   4.654  0.1146 -0.6463 -0.2060
10903TIP3    H154200   4.423   4.335   4.730  0.7812  1.8964  0.8497
10903TIP3    H254201   4.295   4.402   4.684  0.3977  0.4086 -0.2652
10904TIP3   OH254202   5.053   3.934  16.760  0.0831 -0.2770  0.2676
10904TIP3    H154203   5.022   3.875  16.692  0.2359 -2.4053  1.9691
10904TIP3    H254204   4.978   3.944  16.819  0.3668  0.4707  0.5081
10905TIP3   OH254205   4.977   3.006  16.795 -0.6598 -0.5243 -0.2117
10905TIP3    H154206   4.926   3.083  16.770 -1.3512 -0.8291  0.2407
10905TIP3    H254207   5.068   3.036  16.798 -0.5803 -0.3864 -2.7740
10906TIP3   OH254208   2.257   1.077  11.976  0.3357  0.2936 -0.3272
10906TIP3    H154209   2.241   1.159  12.023  0.6478  0.2478 -0.1408
10906TIP3    H254210   2.324   1.100  11.912 -0.3671  0.4497 -1.0122
10907TIP3   OH254211   5.854   6.349  16.791  0.3663 -0.4881  0.0251
10907TIP3    H154212   5.832   6.290  16.863  0.4837 -2.7273 -1.7622
10907TIP3    H254213   5.950   6.354  16.794  0.3297  0.0697  0.5024
10908TIP3   OH254214   2.993   0.210  15.432 -0.2940 -0.0980 -0.3025
10908TIP3    H154215   3.012   0.291  15.478 -0.5692 -1.7389  2.8121
10908TIP3    H254216   3.073   0.192  15.382  1.2651  0.0806  2.0669
10909TIP3   OH254217   6.198   2.192  15.773  0.0608  0.3182 -0.2908
10909TIP3    H154218   6.265   2.152  15.828  0.6575  0.6114 -0.7909
10909TIP3    H254219   6.145   2.119  15.743  1.5975 -0.2291 -1.8090
10910TIP3   OH254220   5.446   0.498   3.081  0.5544 -0.2382 -0.1026
10910TIP3    H154221   5.483   0.415   3.051  2.6564  0.3344  0.8801
10910TIP3    H254222   5.501   0.565   3.040  0.5326  0.6220  1.2627
10911TIP3   OH254223   6.336   2.694   3.622 -0.0950  0.1589 -0.0173
10911TIP3    H154224   6.394   2.618   3.618 -1.0811 -0.5638 -1.2323
10911TIP3    H254225   6.394   2.769   3.612  0.7792 -0.4929  0.1230
10912TIP3   OH254226   0.479   1.773   6.581  0.2715 -0.1396 -0.0339
10912TIP3    H154227   0.407   1.741   6.526 -0.7403  0.1898  1.0917
10912TIP3    H254228   0.488   1.707   6.650 -0.9204  1.2755  1.5177
10913TIP3   OH254229   1.292   5.857  15.248  0.3351  0.1276 -0.3594
10913TIP3    H154230   1.280   5.881  15.156 -0.1809  0.7961 -0.1209
10913TIP3    H254231   1.357   5.919  15.281  1.9142 -1.2871 -0.7444
10914TIP3   OH254232   3.437   2.894   1.908  0.3515  0.0914 -0.4290
10914TIP3    H154233   3.389   2.898   1.991 -2.7726  0.6767 -2.1890
10914TIP3    H254234   3.468   2.984   1.894 -2.6981  1.0162 -1.8283
10915TIP3   OH254235   2.716   0.546   0.292 -0.1342  0.4489 -0.5110
10915TIP3    H154236   2.626   0.568   0.315 -0.2959 -0.0625 -0.6534
10915TIP3    H254237   2.712   0.517   0.201 -0.0928 -1.1275 -0.0316
10916TIP3   OH254238   3.196   0.079  15.722  0.2257 -0.2337  0.1617
10916TIP3    H154239   3.145   0.140  15.774  0.5642 -0.4157  0.7085
10916TIP3    H254240   3.248   0.134  15.664  1.1011  0.0350  1.1775
10917TIP3   OH254241   2.636   1.270   3.165  0.4990  0.3230  0.0761
10917TIP3    H154242   2.724   1.307   3.153  0.1195  1.2608  0.1822
10917TIP3    H254243   2.591   1.333   3.220  0.7309 -1.6855  2.6463
10918TIP3   OH254244   5.733   4.794   4.497  0.2535 -0.0965  0.0008
10918TIP3    H154245   5.657   4.803   4.555  0.6653  2.3914  0.2023
10918TIP3    H254246   5.791   4.733   4.543 -0.1419  0.5992  1.4457
10919TIP3   OH254247   1.527   4.069   1.570 -0.0924 -0.1148 -0.2903
10919TIP3    H154248   1.464   4.038   1.635 -0.4063  0.9299 -0.0933
10919TIP3    H254249   1.498   4.158   1.548  1.3166  0.3792 -0.1866
10920TIP3   OH254250   3.862   2.787  14.225 -0.0742  0.2296  0.1004
10920TIP3    H154251   3.859   2.695  14.200 -0.4242  0.1230  0.5380
10920TIP3    H254252   3.878   2.834  14.142 -1.7616 -0.0829 -0.4235
10921TIP3   OH254253   1.660   3.076   5.625 -0.3107 -0.2500  0.6026
10921TIP3    H154254   1.745   3.105   5.658 -0.5440  0.9192  0.2249
10921TIP3    H254255   1.679   3.000   5.570  0.4591 -0.1497  0.7371
10922TIP3   OH254256   3.079   6.399   4.994 -0.1866  0.4493  0.0350
10922TIP3    H154257   3.032   6.393   4.911 -0.1918  1.2654 -0.0222
10922TIP3    H254258   3.077   6.310   5.029  0.0423  0.0410 -0.9615
10923TIP3   OH254259   1.270   5.022  14.462 -0.1523  0.0662 -0.0950
10923TIP3    H154260   1.326   4.966  14.515 -1.7738 -3.9336 -2.4003
10923TIP3    H254261   1.193   5.038  14.517  0.1489 -0.2790  0.4333
10924TIP3   OH254262   6.403   5.383  16.177  0.3459 -0.2131  0.2843
10924TIP3    H154263   6.484   5.409  16.221  0.3433  0.2171  0.0417
10924TIP3    H254264   6.432   5.346  16.094  0.2835  0.0810  0.1336
10925TIP3   OH254265   2.512   5.773  14.636  0.0990 -0.4525 -0.0811
10925TIP3    H154266   2.608   5.772  14.634  0.1652 -2.8944  2.0722
10925TIP3    H254267   2.486   5.700  14.579 -0.4997  0.3531 -0.8494
10926TIP3   OH254268   5.225   3.018   4.616  0.3714 -0.4470  0.0046
10926TIP3    H154269   5.237   2.983   4.704 -1.5090  1.3026  0.9893
10926TIP3    H254270   5.272   2.956   4.559  0.5806 -2.2584  2.0836
10927TIP3   OH254271   6.790   5.483   2.930  0.0651 -0.6412 -0.5451
10927TIP3    H154272   6.826   5.505   2.844  1.1475 -1.4152 -0.2949
10927TIP3    H254273   6.752   5.396   2.919  0.1907 -0.7353 -0.2453
10928TIP3   OH254274   0.268   1.532  15.536  0.0796  0.3843  0.2285
10928TIP3    H154275   0.341   1.471  15.528  1.0997  1.6730 -0.5641
10928TIP3    H254276   0.212   1.513  15.460 -1.2261 -1.6175  1.6414
10929TIP3   OH254277   4.471   0.935  15.407  0.4855 -0.0286 -0.1888
10929TIP3    H154278   4.446   0.847  15.434  0.6174  0.6658  2.2849
10929TIP3    H254279   4.525   0.921  15.329 -0.2238 -2.0660 -0.3483
10930TIP3   OH254280   3.120   4.914  16.427  0.1419  0.6649 -0.3132
10930TIP3    H154281   3.113   4.875  16.514  0.1497  0.2974 -0.4775
10930TIP3    H254282   3.099   4.843  16.366  0.7481  0.7567 -0.6378
10931TIP3   OH254283   2.750   1.779  12.266 -0.5738 -0.3368  0.3708
10931TIP3    H154284   2.834   1.753  12.228 -1.0686  0.4138 -1.2886
10931TIP3    H254285   2.761   1.766  12.360  1.3858 -0.2988  0.1639
10932TIP3   OH254286   3.627   4.707   6.415  0.2242  0.4222 -0.1916
10932TIP3    H154287   3.700   4.737   6.469  0.8905 -0.4134 -0.6182
10932TIP3    H254288   3.600   4.624   6.455  0.5716 -0.0847 -1.0001
10933TIP3   OH254289   2.924   1.663   2.797 -0.7864 -0.4426  0.1049
10933TIP3    H154290   2.846   1.629   2.841 -0.6739 -0.3956  0.3444
10933TIP3    H254291   2.990   1.667   2.866 -0.1913 -1.6988 -0.3839
10934TIP3   OH254292   4.780   6.370  14.812 -0.2746  0.3310 -0.5302
10934TIP3    H154293   4.729   6.387  14.732  0.9531  0.6326 -1.2697
10934TIP3    H254294   4.828   6.289  14.793 -0.3176  0.1642  0.0743
10935TIP3   OH254295   6.257   5.078   1.955 -0.0363 -0.5437 -0.1163
10935TIP3    H154296   6.327   5.141   1.971  0.8794 -1.7985  0.9488
10935TIP3    H254297   6.183   5.109   2.006 -0.3521  0.9186 -1.4277
10936TIP3   OH254298   3.314   6.272   2.057  0.3167  0.5520  0.5164
10936TIP3    H154299   3.310   6.365   2.080 -1.0524  0.6780 -0.1744
10936TIP3    H254300   3.303   6.226   2.141 -0.0611  1.0254  0.7287
10937TIP3   OH254301   1.255   1.907   6.062  0.3522  0.1032 -0.1865
10937TIP3    H154302   1.345   1.874   6.060  0.3936  0.0990  1.4581
10937TIP3    H254303   1.246   1.955   5.979  0.5454 -3.2876 -2.2886
10938TIP3   OH254304   1.308   1.309   2.067  0.1291  0.2282  0.0911
10938TIP3    H154305   1.357   1.369   2.010  0.9047  0.2123  0.7277
10938TIP3    H254306   1.236   1.362   2.100  0.6742  0.7592  0.4579
10939TIP3   OH254307   2.254   0.862  15.106 -0.0055 -0.4088 -0.0999
10939TIP3    H154308   2.206   0.821  15.177  1.0017  1.0069  1.4283
10939TIP3    H254309   2.238   0.956  15.117  0.3053 -0.1618 -1.6341
10940TIP3   OH254310   2.696   4.057   4.826  0.8688  1.0871 -0.1086
10940TIP3    H154311   2.677   4.049   4.733  1.8024  1.4757 -0.3387
10940TIP3    H254312   2.784   4.093   4.830  1.3796 -0.2477  0.9328
10941TIP3   OH254313   1.974   5.615  16.585  0.2463  0.1408 -0.1187
10941TIP3    H154314   2.020   5.533  16.569 -0.2228  0.0997 -1.3840
10941TIP3    H254315   1.883   5.597  16.558  0.4461  1.4705 -1.8299
10942TIP3   OH254316   5.392   1.091  15.721  0.0914  0.5039 -0.3429
10942TIP3    H154317   5.327   1.157  15.745 -0.2656  0.5575 -1.4330
10942TIP3    H254318   5.468   1.110  15.776  0.3580  2.4621 -1.3428
10943TIP3   OH254319   1.619   5.815   0.824  0.6061  0.1720  0.1008
10943TIP3    H154320   1.569   5.775   0.752  0.1669 -0.3880  0.7185
10943TIP3    H254321   1.711   5.802   0.800  0.4606 -0.2161 -0.2456
10944TIP3   OH254322   1.287   3.578   1.842 -0.0948 -0.0243 -0.4651
10944TIP3    H154323   1.192   3.575   1.857  0.1638  0.1764  1.4084
10944TIP3    H254324   1.321   3.628   1.917  1.4845 -0.0442 -1.1505
10945TIP3   OH254325   2.919   3.825   3.284 -0.6990  0.0393  0.1365
10945TIP3    H154326   2.997   3.776   3.257  0.2890  1.5630  0.1747
10945TIP3    H254327   2.892   3.872   3.205  0.5047  2.2549  1.0172
10946TIP3   OH254328   2.645   6.796   3.969  0.1021  0.5092  0.4306
10946TIP3    H154329   2.660   6.795   4.064  0.5539  1.0373  0.3676
10946TIP3    H254330   2.615   6.885   3.950 -1.4291 -0.0207  0.2867
10947TIP3   OH254331   4.480   5.791  12.274 -0.3619 -0.1528  0.3549
10947TIP3    H154332   4.550   5.847  12.307 -1.3596  0.8822  0.7151
10947TIP3    H254333   4.448   5.835  12.195 -0.3490 -0.8333 -0.0418
10948TIP3   OH254334   5.133   2.661   0.003  0.6500  0.2424 -0.0389
10948TIP3    H154335   5.209   2.715  -0.016  2.1041 -1.7676 -0.0934
10948TIP3    H254336   5.168   2.582   0.043 -1.2588 -1.3671 -1.3940
10949TIP3   OH254337   6.255   6.102   0.367  0.2324 -0.4840  0.1840
10949TIP3    H154338   6.221   6.120   0.454 -0.8332  1.8443 -0.6636
10949TIP3    H254339   6.327   6.040   0.381 -1.6785 -2.2516  2.4008
10950TIP3   OH254340   0.841   5.448  16.264  0.0415  0.1557  0.1483
10950TIP3    H154341   0.934   5.448  16.242 -0.1075 -0.3095 -0.5085
10950TIP3    H254342   0.809   5.532  16.231  0.2390  0.3289  0.3997
10951TIP3   OH254343   3.222   0.883   2.913  0.5453 -0.2543  0.2217
10951TIP3    H154344   3.245   0.974   2.932 -1.3477 -0.2064  2.4548
10951TIP3    H254345   3.198   0.883   2.820  1.5663  1.2901 -0.0604
10952TIP3   OH254346   5.257   6.650  16.464 -0.2742  0.0168 -0.1029
10952TIP3    H154347   5.294   6.583  16.406 -0.7172 -0.5811  0.3028
10952TIP3    H254348   5.223   6.717  16.405  1.0362  0.3476 -0.4948
10953TIP3   OH254349   2.524   1.184   0.643 -0.6254 -0.3356  0.2227
10953TIP3    H154350   2.479   1.269   0.647  1.1393  0.6166  0.2250
10953TIP3    H254351   2.548   1.167   0.734 -0.4563 -0.5588  0.1333
10954TIP3   OH254352   5.668   2.906   5.263  0.8048  0.7691 -0.1572
10954TIP3    H154353   5.578   2.895   5.293  1.4730 -0.8017  1.3204
10954TIP3    H254354   5.699   2.984   5.308  1.1043 -0.3435  1.5762
10955TIP3   OH254355   2.412   1.793  12.390 -0.1110  0.4793 -0.7545
10955TIP3    H154356   2.366   1.864  12.436 -0.5650 -2.5083  3.6251
10955TIP3    H254357   2.497   1.788  12.434  0.2709 -1.0788 -1.6648
10956TIP3   OH254358   1.928   2.410  14.504  0.1740 -0.0734 -0.0870
10956TIP3    H154359   1.981   2.354  14.560 -0.9370 -0.0496  1.0154
10956TIP3    H254360   1.862   2.352  14.467 -0.2896  0.2852  0.1730
10957TIP3   OH254361   3.838   2.601   3.952  0.1005 -0.0675 -0.0689
10957TIP3    H154362   3.778   2.646   3.892  1.4366  0.0767 -1.3222
10957TIP3    H254363   3.885   2.539   3.896  0.5506 -0.7429  1.0538
10958TIP3   OH254364   4.689   3.815  13.773  0.5388 -0.6274 -0.2582
10958TIP3    H154365   4.682   3.732  13.819 -0.7432  0.3087  1.2795
10958TIP3    H254366   4.719   3.878  13.839 -1.0559  0.6675 -0.7063
10959TIP3   OH254367   1.443   3.700  15.658  0.1754  0.2058  0.3855
10959TIP3    H154368   1.471   3.610  15.642 -2.0916 -0.3827 -0.3362
10959TIP3    H254369   1.525   3.747  15.676  1.1971 -2.4171  2.9385
10960TIP3   OH254370   0.553   6.039   0.106  0.1858 -0.3570 -0.5044
10960TIP3    H154371   0.529   6.125   0.072  0.8280 -0.5799 -1.5410
10960TIP3    H254372   0.470   5.995   0.122 -0.1748  0.8138  0.9918
10961TIP3   OH254373   2.885   1.840  16.010  0.0003 -0.4520 -0.2213
10961TIP3    H154374   2.978   1.826  16.027 -0.0066 -0.6413 -0.3303
10961TIP3    H254375   2.847   1.752  16.016 -0.4822 -0.1321  1.7051
10962TIP3   OH254376   5.123   6.456   5.203  0.4295 -0.2981 -0.4587
10962TIP3    H154377   5.095   6.545   5.224 -0.4644 -0.4094 -1.0972
10962TIP3    H254378   5.137   6.414   5.287 -0.3118  0.1027 -0.1275
10963TIP3   OH254379   5.837   3.507   1.918 -0.5194 -0.5003 -0.5916
10963TIP3    H154380   5.894   3.430   1.919 -1.6278 -1.3367 -0.8128
10963TIP3    H254381   5.793   3.503   1.833 -0.8204  0.1959 -0.4737
10964TIP3   OH254382   1.467   2.042   2.551 -0.1216  0.1638  0.4529
10964TIP3    H154383   1.385   1.993   2.546  0.4021 -0.8361  1.4400
10964TIP3    H254384   1.491   2.040   2.643  0.2647  1.7153  0.4063
10965TIP3   OH254385   2.297   0.232   0.069 -0.2899  0.4544 -0.6204
10965TIP3    H154386   2.216   0.182   0.060 -0.1108 -0.4380  2.2848
10965TIP3    H254387   2.268   0.323   0.078 -0.9775  0.1461  0.3686
10966TIP3   OH254388   4.126   5.419  12.521  1.0223  0.6200 -0.1765
10966TIP3    H154389   4.075   5.356  12.471  2.1317 -0.2410 -0.2645
10966TIP3    H254390   4.158   5.482  12.456  1.5341  0.1432 -0.3932
10967TIP3   OH254391   1.381   0.800   1.177 -0.4987  0.4175  0.2868
10967TIP3    H154392   1.377   0.895   1.173 -0.3829  0.4428  0.7859
10967TIP3    H254393   1.409   0.780   1.266  1.0115 -0.0421 -0.2656
10968TIP3   OH254394   2.421   1.239  13.620 -0.2066  0.2216 -0.2041
10968TIP3    H154395   2.443   1.320  13.573 -0.9791  1.0683  0.8656
10968TIP3    H254396   2.327   1.228  13.607 -0.3179  0.1445  0.6372
10969TIP3   OH254397   1.610   5.016   4.302 -0.3702  0.5445 -0.0635
10969TIP3    H154398   1.667   4.955   4.256 -0.3990 -0.6973  1.5227
10969TIP3    H254399   1.575   4.966   4.376  0.2850  2.7045  1.7651
10970TIP3   OH254400   6.638   1.767  12.458  0.0084  0.2046  0.2759
10970TIP3    H154401   6.627   1.691  12.515  0.2063  0.4935  0.7030
10970TIP3    H254402   6.667   1.837  12.517 -1.9313  1.0963  0.2319
10971TIP3   OH254403   2.981   3.439   6.818  0.2108 -0.4920  0.0823
10971TIP3    H154404   3.010   3.372   6.880  2.4328  2.2372  2.1315
10971TIP3    H254405   3.050   3.442   6.751 -0.0796 -0.5362 -0.2189
10972TIP3   OH254406   4.274   1.184  11.701 -0.0434 -0.2737 -0.2927
10972TIP3    H154407   4.218   1.261  11.694 -1.9074 -1.5222  0.4198
10972TIP3    H254408   4.258   1.135  11.621  1.2240  0.1204 -0.7985
10973TIP3   OH254409   0.355   2.781   1.060  0.1178  0.5028  0.2688
10973TIP3    H154410   0.392   2.840   1.125  2.0888 -0.2504 -0.1263
10973TIP3    H254411   0.410   2.703   1.063 -0.6664 -0.1506 -1.2527
10974TIP3   OH254412   0.604   2.864  16.550 -0.6725 -0.2258  0.0454
10974TIP3    H154413   0.617   2.919  16.627 -1.2303 -0.1296  0.0747
10974TIP3    H254414   0.692   2.854  16.513 -0.6460  1.1935 -0.3156
10975TIP3   OH254415   3.854   2.131  17.003  0.6706 -0.5216  0.5890
10975TIP3    H154416   3.783   2.109  17.063 -0.6097  1.0783 -0.3288
10975TIP3    H254417   3.814   2.133  16.916  1.4681  1.9874  0.2421
10976TIP3   OH254418   5.854   5.561   3.193 -0.0751  0.0697 -0.2980
10976TIP3    H154419   5.867   5.647   3.153  0.6814  0.4532  0.7612
10976TIP3    H254420   5.849   5.579   3.287  0.5707 -1.0976 -0.0396
10977TIP3   OH254421   0.967   5.700  13.662 -0.3908 -0.2617  0.1912
10977TIP3    H154422   1.006   5.709  13.575 -1.6983  2.0245 -0.1873
10977TIP3    H254423   0.874   5.719  13.650 -0.1346  2.8617  2.5172
10978TIP3   OH254424   6.622   4.843   2.486 -0.1608  0.2542  0.3515
10978TIP3    H154425   6.689   4.859   2.420 -0.4877 -0.1644 -0.0821
10978TIP3    H254426   6.648   4.760   2.527 -0.7786 -0.2586 -0.2801
10979TIP3   OH254427   3.951   6.073  15.321  0.0270 -0.4244  0.8401
10979TIP3    H154428   3.945   5.990  15.369  1.2993 -1.3903 -0.6264
10979TIP3    H254429   3.963   6.139  15.389 -0.2600 -1.5279  1.9849
10980TIP3   OH254430   4.401   4.166  16.588 -0.4412 -0.2583 -0.0865
10980TIP3    H154431   4.370   4.080  16.562 -0.7465 -0.2618  0.2773
10980TIP3    H254432   4.360   4.227  16.527 -0.7996 -0.3062  0.1058
10981TIP3   OH254433   6.661   6.767   3.678 -0.0422 -0.1521 -0.3195
10981TIP3    H154434   6.753   6.779   3.701  0.2746 -1.2990 -0.9358
10981TIP3    H254435   6.613   6.784   3.759  0.8063 -0.7585  0.3077
10982TIP3   OH254436   1.239   2.645  10.871  0.0199  0.1762  0.5043
10982TIP3    H154437   1.148   2.619  10.880 -0.2023  0.8246  0.1658
10982TIP3    H254438   1.237   2.720  10.811  0.6738  0.7430  1.1756
10983TIP3   OH254439   4.481   6.108  17.196 -0.7027 -0.6159  0.0778
10983TIP3    H154440   4.519   6.107  17.109  0.2165 -1.3346  0.4776
10983TIP3    H254441   4.484   6.200  17.223 -0.9681 -0.3982 -0.6241
10984TIP3   OH254442   2.690   3.521  16.077 -0.1975  0.0429  0.1121
10984TIP3    H154443   2.736   3.542  16.159  0.8652  3.2092 -1.1991
10984TIP3    H254444   2.622   3.458  16.103  1.6283 -0.8358  2.9770
10985TIP3   OH254445   4.750   3.188   5.067 -0.0348  0.1271  0.0115
10985TIP3    H154446   4.712   3.131   5.134 -0.4851  1.4410  0.9031
10985TIP3    H254447   4.798   3.254   5.117  1.4107 -0.1248 -1.0377
10986TIP3   OH254448   3.300   2.340  11.461 -0.0411 -0.3086  0.0903
10986TIP3    H154449   3.361   2.343  11.387  0.1293 -0.9099  0.2088
10986TIP3    H254450   3.294   2.431  11.490  1.1966 -0.3206  0.4060
10987TIP3   OH254451   6.381   5.333   3.422  0.4596 -0.5650  0.0002
10987TIP3    H154452   6.320   5.279   3.472 -1.3830  1.0042 -0.4585
10987TIP3    H254453   6.466   5.317   3.461 -0.3444 -2.3780  1.0496
10988TIP3   OH254454   4.387   4.727   0.488 -0.8853 -0.7230 -0.3931
10988TIP3    H154455   4.386   4.659   0.420 -1.6161 -1.7567  0.6469
10988TIP3    H254456   4.477   4.760   0.486 -0.0642 -2.8561  0.2007
10989TIP3   OH254457   5.545   5.742  12.331  0.6276  0.2950 -0.5709
10989TIP3    H154458   5.451   5.746  12.313  0.6351  2.4203 -0.3230
10989TIP3    H254459   5.570   5.653  12.308 -1.6265 -0.5823  0.2382
10990TIP3   OH254460   4.721   4.965  11.245  0.1948 -0.5127  0.1518
10990TIP3    H154461   4.666   5.041  11.267 -0.5251 -1.3027  1.1255
10990TIP3    H254462   4.669   4.916  11.181  0.8580  0.0498 -0.8234
10991TIP3   OH254463   3.169   4.636  16.001 -0.9312  0.4962  0.0923
10991TIP3    H154464   3.158   4.608  15.910  0.8898 -1.0368  0.3046
10991TIP3    H254465   3.249   4.688  16.001 -1.6139  1.5812  0.6171
10992TIP3   OH254466   0.200   3.372   5.215  0.2226  0.6519  0.2740
10992TIP3    H154467   0.211   3.325   5.297  0.2679  0.9193  0.4214
10992TIP3    H254468   0.226   3.462   5.235  0.0552  0.7589  0.0144
10993TIP3   OH254469   6.089   2.841  11.568  0.2033  0.0350  0.4785
10993TIP3    H154470   6.141   2.853  11.489  1.8873 -1.7573  1.2657
10993TIP3    H254471   6.147   2.792  11.627 -1.9302 -0.8653  1.8748
10994TIP3   OH254472   3.108   1.820   4.681 -0.1740 -0.2173 -0.2275
10994TIP3    H154473   3.170   1.779   4.620 -0.1934 -1.7703  0.7791
10994TIP3    H254474   3.023   1.785   4.655 -0.2620 -0.3955  0.3064
10995TIP3   OH254475   5.506   5.430  12.566 -0.0277 -0.5671 -0.3172
10995TIP3    H154476   5.457   5.405  12.487 -1.6321  0.8094  0.2090
10995TIP3    H254477   5.446   5.412  12.638  0.0968  1.5252  0.3206
10996TIP3   OH254478   6.388   1.969  14.948  0.1153  0.2444  0.0462
10996TIP3    H154479   6.357   2.017  14.871 -1.6066  0.5021  0.8828
10996TIP3    H254480   6.398   1.879  14.918 -0.3845  0.3752 -0.5170
10997TIP3   OH254481   1.783   2.729  12.954 -0.1184  0.3590 -0.4643
10997TIP3    H154482   1.706   2.674  12.940  0.8901 -0.6358 -2.2722
10997TIP3    H254483   1.856   2.668  12.953  0.6823  1.2299  1.7311
10998TIP3   OH254484   4.057   0.683  14.324  0.0997 -0.4581 -0.6181
10998TIP3    H154485   4.010   0.626  14.263 -1.0515  1.1412 -1.2435
10998TIP3    H254486   4.149   0.664  14.309 -0.2663 -2.0122 -0.9531
10999TIP3   OH254487   2.147   0.008   0.013 -0.0040  0.1940 -0.7751
10999TIP3    H154488   2.058  -0.008   0.045 -0.6206  1.0993 -1.9819
10999TIP3    H254489   2.145  -0.021  -0.078  1.3378 -1.0719 -0.4214
11000TIP3   OH254490   5.292   6.073   4.196  0.5577 -0.1140  0.3339
11000TIP3    H154491   5.309   6.143   4.132 -1.9171  0.7183  0.5127
11000TIP3    H254492   5.345   6.000   4.166 -1.7983 -0.3226 -3.7369
11001TIP3   OH254493   1.390   2.973   5.623 -0.3700 -0.3353 -0.1266
11001TIP3    H154494   1.361   2.918   5.696 -0.3740  0.9521  0.8723
11001TIP3    H254495   1.466   3.020   5.658 -0.7671  0.7838 -0.7230
11002TIP3   OH254496   0.251   3.853   3.406  0.6968 -0.0072 -0.0878
11002TIP3    H154497   0.181   3.825   3.466  0.5354 -0.6973 -0.5999
11002TIP3    H254498   0.205   3.877   3.326  1.0781 -0.7367 -0.5218
11003TIP3   OH254499   5.138   4.462  13.267  0.0489  0.0375 -0.2905
11003TIP3    H154500   5.138   4.444  13.362  0.0923 -0.5331 -0.3974
11003TIP3    H254501   5.138   4.376  13.227  0.8767  0.2846 -0.8189
11004TIP3   OH254502   0.554   4.876  13.132 -0.5685  0.2038 -0.0523
11004TIP3    H154503   0.639   4.832  13.129 -1.4758 -1.4767 -2.0846
11004TIP3    H254504   0.575   4.965  13.160  1.6344 -0.6841  1.3050
11005TIP3   OH254505   2.877   0.043  14.121 -0.4898  0.2564 -0.1805
11005TIP3    H154506   2.923   0.080  14.197 -2.0672 -0.5090  1.1851
11005TIP3    H254507   2.854  -0.046  14.149 -0.2587 -0.3628 -1.9270
11006TIP3   OH254508   6.048   1.072   0.898 -0.0964  0.6031  0.4326
11006TIP3    H154509   5.980   1.005   0.907 -0.0024  0.6979  1.9868
11006TIP3    H254510   6.005   1.142   0.848 -0.0609 -0.7616 -1.5869
11007TIP3   OH254511   5.499   0.577  15.975  1.0150 -0.3251 -0.2071
11007TIP3    H154512   5.494   0.638  15.902  1.5431 -0.5894 -0.4686
11007TIP3    H254513   5.581   0.599  16.020 -1.4675  2.8856  3.0510
11008TIP3   OH254514   6.440   0.063  15.865  0.0784  0.3272 -0.1586
11008TIP3    H154515   6.441   0.066  15.960 -2.6762  1.5363 -0.0939
11008TIP3    H254516   6.408   0.149  15.839 -1.1294 -0.6542 -2.0662
11009TIP3   OH254517   3.403   3.900  12.249  0.3020  0.1378  0.3179
11009TIP3    H154518   3.383   3.834  12.315  0.8244  0.1084  0.4551
11009TIP3    H254519   3.357   3.978  12.278 -0.1368 -0.1044  0.2756
11010TIP3   OH254520   6.219   5.383  10.674 -0.2457 -0.2258  0.1175
11010TIP3    H154521   6.140   5.352  10.719  0.3868  0.1632  1.5458
11010TIP3    H254522   6.218   5.478  10.687  0.7298 -0.2788  0.5974
11011TIP3   OH254523   0.064   4.170   6.229  0.5380 -0.2442  0.0575
11011TIP3    H154524   0.007   4.165   6.305  0.3590 -1.2446 -0.1302
11011TIP3    H254525   0.135   4.109   6.248  0.4015 -0.6379 -0.6381
11012TIP3   OH254526   3.025   5.862  15.494  0.0824 -0.2299 -0.2977
11012TIP3    H154527   2.933   5.880  15.475 -0.5816  0.3936  3.0222
11012TIP3    H254528   3.066   5.948  15.499  0.1765 -0.3255  1.0022
11013TIP3   OH254529   6.333   6.406   2.294  0.0701 -0.1472 -0.0790
11013TIP3    H154530   6.354   6.416   2.201 -1.2143 -1.5766 -0.5445
11013TIP3    H254531   6.239   6.389   2.295 -0.4075  2.2786  1.6777
11014TIP3   OH254532   4.189   6.568   0.835  0.1375  0.2693 -0.2243
11014TIP3    H154533   4.229   6.492   0.793  0.7758  1.6764 -2.2743
11014TIP3    H254534   4.263   6.623   0.862 -0.3347  0.9181 -0.2263
11015TIP3   OH254535   6.259   5.817   2.079  0.0987  0.1410 -0.3118
11015TIP3    H154536   6.169   5.817   2.112  0.2519 -0.0004  0.1133
11015TIP3    H254537   6.310   5.778   2.150  0.1355 -2.0832 -1.5157
11016TIP3   OH254538   5.063   0.643   4.850 -0.0307 -0.1442 -0.1572
11016TIP3    H154539   5.132   0.589   4.809 -0.1347 -1.2115  1.0364
11016TIP3    H254540   5.026   0.586   4.918 -0.0481  1.5099  1.2344
11017TIP3   OH254541   4.078   0.345  13.952  0.3691  0.6025 -0.1789
11017TIP3    H154542   3.989   0.380  13.954  0.1606  0.0230  0.6715
11017TIP3    H254543   4.068   0.256  13.919  0.5995  0.4326  0.2120
11018TIP3   OH254544   5.802   1.720  16.682  0.1491  0.1973  0.4569
11018TIP3    H154545   5.818   1.635  16.642 -2.9859  0.2523 -1.0065
11018TIP3    H254546   5.788   1.779  16.609 -0.6498  1.3562  1.5313
11019TIP3   OH254547   5.796   6.088   5.819  0.1741  0.2297 -0.2739
11019TIP3    H154548   5.728   6.089   5.887 -1.0557  0.2392 -1.4781
11019TIP3    H254549   5.859   6.154   5.847 -2.6623  3.5952 -1.4535
11020TIP3   OH254550   0.610   6.762  12.199 -0.2522  0.0689  0.2551
11020TIP3    H154551   0.555   6.691  12.230 -1.4694  0.8240 -0.1535
11020TIP3    H254552   0.573   6.787  12.114 -1.5583  2.9860  1.5978
11021TIP3   OH254553   2.055   4.668  11.969  0.3324 -0.0059  0.4397
11021TIP3    H154554   2.042   4.728  11.897  1.6550  0.7094  0.7681
11021TIP3    H254555   1.979   4.610  11.967 -0.0859  0.5730 -0.9542
11022TIP3   OH254556   6.406   5.303   2.155 -0.1431  0.3358  0.6799
11022TIP3    H154557   6.500   5.316   2.167  0.3382 -1.4948 -0.8289
11022TIP3    H254558   6.382   5.236   2.219 -0.4703  0.9525  1.2087
11023TIP3   OH254559   0.735   3.895   3.650 -0.7704  0.3287 -0.2261
11023TIP3    H154560   0.649   3.893   3.692 -0.5558 -4.2026  0.2696
11023TIP3    H254561   0.794   3.931   3.716 -1.5746 -0.6088  1.0327
11024TIP3   OH254562   3.999   4.793   4.008 -0.6671 -0.1723 -0.2421
11024TIP3    H154563   4.023   4.885   4.001 -2.5823  0.2737 -1.1249
11024TIP3    H254564   4.075   4.752   4.049 -0.0249  1.8924  0.7068
11025TIP3   OH254565   5.412   2.070  14.223 -0.0861  0.3138 -0.2652
11025TIP3    H154566   5.499   2.039  14.248 -0.6955  0.3132  1.9493
11025TIP3    H254567   5.412   2.163  14.245 -0.6783  0.2897 -0.1590
11026TIP3   OH254568   2.143   0.064   3.886  0.1118 -0.2399 -0.2834
11026TIP3    H154569   2.068   0.123   3.890  0.4232  0.2345 -1.1916
11026TIP3    H254570   2.164   0.059   3.793  0.9017 -0.7592 -0.0810
11027TIP3   OH254571   1.226   0.087   3.892  0.4236  0.1408 -0.0303
11027TIP3    H154572   1.219   0.006   3.841  1.3007 -1.0008  1.6225
11027TIP3    H254573   1.292   0.139   3.846  1.8922 -1.2727  0.4283
11028TIP3   OH254574   4.143   1.441   5.231  0.1699 -0.3923  0.0877
11028TIP3    H154575   4.229   1.402   5.215 -0.8961 -2.0318 -1.8260
11028TIP3    H254576   4.092   1.369   5.269 -0.4647  0.4929  0.9333
11029TIP3   OH254577   4.877   6.508   5.397  0.7648  0.8217 -0.0796
11029TIP3    H154578   4.879   6.423   5.352  0.8466  0.1347  1.2162
11029TIP3    H254579   4.791   6.544   5.376  0.1522 -0.2488  0.5867
11030TIP3   OH254580   3.369   0.609  15.672  0.6278  0.6753  0.2591
11030TIP3    H154581   3.454   0.565  15.669  0.6107  0.6585 -0.0848
11030TIP3    H254582   3.381   0.688  15.619  0.1851  0.2331 -0.5156
11031TIP3   OH254583   4.752   0.627   1.528  0.0153 -0.2012 -0.3500
11031TIP3    H154584   4.841   0.591   1.519  0.4066  1.0261 -1.6525
11031TIP3    H254585   4.742   0.684   1.452 -0.9906  1.5791  1.0724
11032TIP3   OH254586   6.782   5.922  15.404  0.2246 -0.3728 -0.6328
11032TIP3    H154587   6.707   5.941  15.347 -0.1110  2.8956  0.7853
11032TIP3    H254588   6.857   5.957  15.357 -0.1926  3.3382  1.3049
11033TIP3   OH254589   2.066   4.461   5.188  0.0494  0.1087  0.1160
11033TIP3    H154590   2.053   4.491   5.098  0.9330 -3.1237 -1.1398
11033TIP3    H254591   2.008   4.386   5.198  0.8233 -0.2933  1.8464
11034TIP3   OH254592   6.174   4.812  10.442  0.0941 -0.3267 -0.0835
11034TIP3    H154593   6.174   4.905  10.463  0.5159 -0.4559  0.5244
11034TIP3    H254594   6.193   4.769  10.526 -1.0527 -0.9973 -0.1604
11035TIP3   OH254595   1.905   1.854   2.523  0.1069  0.2108  0.0252
11035TIP3    H154596   1.914   1.799   2.445  2.1933  0.1533  0.2917
11035TIP3    H254597   1.909   1.793   2.596 -1.5858  0.2960  0.2056
11036TIP3   OH254598   1.142   1.284  13.228  0.2909 -0.0950 -0.1145
11036TIP3    H154599   1.047   1.279  13.225  0.3295 -0.4104 -0.8733
11036TIP3    H254600   1.164   1.363  13.178  0.4081  0.2423  0.4579
11037TIP3   OH254601   2.438   1.824  13.795  0.2984  0.6073  0.5561
11037TIP3    H154602   2.511   1.819  13.733  1.4564  2.8259  1.7007
11037TIP3    H254603   2.404   1.913  13.786 -1.3604  0.0623  1.1038
11038TIP3   OH254604   5.584   5.403   1.805 -0.1396 -1.0127 -0.3797
11038TIP3    H154605   5.591   5.406   1.901  1.5029 -1.7822 -0.4618
11038TIP3    H254606   5.490   5.392   1.789 -0.4507 -0.7402  1.1383
11039TIP3   OH254607   2.771   5.313  13.995 -0.3382  0.1935 -0.3558
11039TIP3    H154608   2.751   5.309  14.089 -0.4663  0.7993 -0.3556
11039TIP3    H254609   2.686   5.301  13.952 -0.0513 -1.7397 -0.4303
11040TIP3   OH254610   6.725   0.248  16.260 -0.0599  0.2492  0.1805
11040TIP3    H154611   6.720   0.235  16.165 -1.8044 -0.8964  0.3969
11040TIP3    H254612   6.771   0.171  16.293  0.1204  0.4098  0.3003
11041TIP3   OH254613   4.337   1.496  15.343 -0.5546  0.1315 -0.1298
11041TIP3    H154614   4.309   1.547  15.268 -0.6088  0.9587  0.4397
11041TIP3    H254615   4.322   1.405  15.318  1.3938  0.2644 -1.9232
11042TIP3   OH254616   3.479   0.487  10.485  0.4399  0.3103  0.1828
11042TIP3    H154617   3.432   0.456  10.563  1.7908  1.8750  1.6528
11042TIP3    H254618   3.556   0.430  10.480 -0.7630 -1.2314 -1.3214
11043TIP3   OH254619   6.415   4.247   4.784  0.5335  0.4289 -0.4913
11043TIP3    H154620   6.430   4.270   4.876  3.3722 -0.2851 -0.7064
11043TIP3    H254621   6.485   4.293   4.736  1.4568 -2.2195 -1.8104
11044TIP3   OH254622   6.209   3.529   4.333 -0.4546 -0.1798  0.1994
11044TIP3    H154623   6.227   3.545   4.240  1.5817  2.2384  0.9549
11044TIP3    H254624   6.244   3.442   4.349 -2.1909 -1.2488 -1.6319
11045TIP3   OH254625   4.573   3.560  14.742 -0.1175  0.0330  0.3764
11045TIP3    H154626   4.517   3.595  14.672  0.0716 -0.4693 -0.0315
11045TIP3    H254627   4.588   3.469  14.717  0.4876  0.0333  0.7362
11046TIP3   OH254628   1.463   4.112  12.976  0.1058  0.6391 -0.1384
11046TIP3    H154629   1.458   4.039  13.038 -1.1244  0.5466 -0.3452
11046TIP3    H254630   1.542   4.093  12.924  0.5504  0.1681  0.6949
11047TIP3   OH254631   0.503   5.506   3.443  0.3553  0.8062  0.2306
11047TIP3    H154632   0.498   5.451   3.365 -1.4092  2.0600 -0.5918
11047TIP3    H254633   0.452   5.459   3.509  1.3294  0.0431  0.4477
11048TIP3   OH254634   2.849   1.181   0.036 -0.1158 -0.2598 -0.2602
11048TIP3    H154635   2.802   1.152  -0.041  1.4087  0.7875 -1.6202
11048TIP3    H254636   2.830   1.115   0.103 -2.6295 -0.4018 -1.0616
11049TIP3   OH254637   6.045   4.651  16.106  0.0290  0.3282 -0.0795
11049TIP3    H154638   6.136   4.659  16.080  0.3866  0.0363  1.0379
11049TIP3    H254639   6.037   4.708  16.183 -0.8808  0.8335 -0.5427
11050TIP3   OH254640   0.421   3.132   0.016  0.4829  0.4741  0.0712
11050TIP3    H154641   0.326   3.119   0.012  0.6126 -0.9605  1.1955
11050TIP3    H254642   0.450   3.070   0.083  2.4784 -0.4923 -1.6662
11051TIP3   OH254643   5.237   5.634   1.047 -0.3980 -0.7687 -0.2228
11051TIP3    H154644   5.271   5.553   1.010  1.3804  0.7583 -2.0742
11051TIP3    H254645   5.298   5.656   1.117  0.2586 -0.0078 -1.0294
11052TIP3   OH254646   3.755   4.342   4.448  0.4514  0.2358 -0.1931
11052TIP3    H154647   3.733   4.273   4.385  0.7261  1.9051 -2.1959
11052TIP3    H254648   3.841   4.317   4.482  0.3898 -0.5892 -0.6229
11053TIP3   OH254649   3.057   5.821  16.843 -0.0223  0.0395  0.2433
11053TIP3    H154650   3.104   5.876  16.781 -1.2104  0.4314 -0.3258
11053TIP3    H254651   2.966   5.824  16.814 -0.5968  0.2106  1.9909
11054TIP3   OH254652   5.275   6.662  11.163  0.5125 -0.2793 -0.0512
11054TIP3    H154653   5.260   6.616  11.080  0.4007 -0.0672 -0.1493
11054TIP3    H254654   5.364   6.638  11.188 -0.7383 -3.3479  1.6815
11055TIP3   OH254655   5.098   3.448   2.306  0.0576  0.0031 -0.3783
11055TIP3    H154656   5.085   3.365   2.259  0.7215 -0.8886  0.9676
11055TIP3    H254657   5.180   3.482   2.271 -0.2462  0.1262 -0.9805
11056TIP3   OH254658   0.030   4.826  16.940  0.4495  0.3518  0.3418
11056TIP3    H154659   0.002   4.873  16.861  0.4159 -0.2155  0.0104
11056TIP3    H254660  -0.051   4.810  16.988  0.1374 -1.6835 -0.8323
11057TIP3   OH254661   3.411   0.498  16.269  0.5967 -0.2283 -0.4679
11057TIP3    H154662   3.495   0.470  16.306 -0.7334 -2.1969  1.1672
11057TIP3    H254663   3.407   0.592  16.288  1.8184 -0.3846  0.6771
11058TIP3   OH254664   1.357   1.185   2.394  0.1213  0.2687  0.6217
11058TIP3    H154665   1.427   1.139   2.440  0.0059 -0.0439  0.4901
11058TIP3    H254666   1.373   1.166   2.302 -0.1775  0.1362  0.5963
11059TIP3   OH254667   0.823   1.360   1.573 -0.4272 -0.1830 -0.5021
11059TIP3    H154668   0.747   1.303   1.561 -0.1896 -0.8185  0.9559
11059TIP3    H254669   0.809   1.401   1.659  0.8250 -0.2315 -0.2677
11060TIP3   OH254670   6.814   5.052   0.538  0.0836  0.5564 -0.6114
11060TIP3    H154671   6.832   4.968   0.495 -4.1103 -0.9723  0.3859
11060TIP3    H254672   6.788   5.028   0.627 -2.0324  2.8298 -0.5739
11061TIP3   OH254673   4.752   2.881   1.014 -0.1520 -0.3992  0.6065
11061TIP3    H154674   4.844   2.853   1.021 -0.0500 -0.2397 -0.1326
11061TIP3    H254675   4.706   2.805   0.979  0.1418  0.3786 -1.5085
11062TIP3   OH254676   3.535   6.238   0.055  0.0683 -0.8645  0.0326
11062TIP3    H154677   3.515   6.292  -0.022 -0.0795 -0.8450  0.0818
11062TIP3    H254678   3.507   6.291   0.129  2.6616  0.2426  0.2751
11063TIP3   OH254679   6.309   4.649  15.999  0.0364 -0.2083 -0.3481
11063TIP3    H154680   6.349   4.733  16.025 -0.4027  0.2504 -1.1294
11063TIP3    H254681   6.309   4.651  15.904 -0.5311 -0.8399 -0.3628
11064TIP3   OH254682   3.930   3.301  14.619 -0.3788 -0.0455  0.7073
11064TIP3    H154683   3.974   3.273  14.538 -0.7700  0.0832  0.4496
11064TIP3    H254684   3.971   3.248  14.688 -0.5892 -0.7114  0.3260
11065TIP3   OH254685   5.036   1.958  12.585  0.0423  0.1530 -0.0415
11065TIP3    H154686   5.108   1.909  12.546 -2.0516 -1.0389 -2.5353
11065TIP3    H254687   5.046   2.047  12.550  0.7163  0.2006  0.2482
11066TIP3   OH254688   3.016   0.339   0.172  0.6777  0.2110 -0.0171
11066TIP3    H154689   2.982   0.415   0.124  2.5060  1.3871  0.4966
11066TIP3    H254690   3.025   0.370   0.262  2.0082 -0.4148  0.0694
11067TIP3   OH254691   5.521   5.413   4.939  0.4478 -0.3012  0.4049
11067TIP3    H154692   5.431   5.433   4.913  0.2311 -2.0717 -0.2667
11067TIP3    H254693   5.572   5.488   4.908 -0.9552  1.3586  1.9424
11068TIP3   OH254694   0.304   4.281  12.324  0.5191  0.1171  0.0846
11068TIP3    H154695   0.364   4.225  12.375  0.6662 -0.9114 -1.1801
11068TIP3    H254696   0.284   4.229  12.246 -0.4815  1.2661 -0.4354
11069TIP3   OH254697   4.140   2.828   6.427  0.0920  0.4764  0.0449
11069TIP3    H154698   4.207   2.893   6.451  0.6416  0.4191 -1.2947
11069TIP3    H254699   4.065   2.850   6.482  1.0078  0.9069  1.1502
11070TIP3   OH254700   5.128   6.047   0.396 -0.3477  0.1337  0.1891
11070TIP3    H154701   5.183   6.013   0.326 -1.3847  0.4717 -0.8048
11070TIP3    H254702   5.075   5.973   0.423  1.9621 -0.7541  2.5608
11071TIP3   OH254703   6.328   2.614   2.111  0.8159 -0.0072  0.4081
11071TIP3    H154704   6.418   2.646   2.106  0.4166  1.1702  0.7627
11071TIP3    H254705   6.303   2.624   2.203  0.3019 -0.2886  0.3059
11072TIP3   OH254706   6.737   0.523  14.513  0.8418 -0.1076  0.3980
11072TIP3    H154707   6.831   0.537  14.503  1.0150 -0.6477  1.2933
11072TIP3    H254708   6.729   0.437  14.553 -0.0257  0.0896  0.6552
11073TIP3   OH254709   4.124   0.353   4.892 -0.2163  0.0619  0.0980
11073TIP3    H154710   4.149   0.357   4.985 -2.1270  0.0114  0.6319
11073TIP3    H254711   4.066   0.277   4.887 -0.6805  0.4936 -1.0170
11074TIP3   OH254712   6.075   5.049   0.613 -0.3717  0.2946  0.0988
11074TIP3    H154713   6.112   4.983   0.554  1.6805  0.8915  0.6775
11074TIP3    H254714   5.987   5.065   0.579 -0.9057 -2.7595 -0.0152
11075TIP3   OH254715   1.563   6.041   2.867 -0.4073 -0.6042  0.6131
11075TIP3    H154716   1.631   5.976   2.880  0.1293 -0.5078 -1.4795
11075TIP3    H254717   1.577   6.105   2.936  1.1123 -1.0102  0.6962
11076TIP3   OH254718   2.503   3.647   6.608 -0.0144 -0.6114 -0.0596
11076TIP3    H154719   2.441   3.674   6.675  1.6725  5.3977 -0.6576
11076TIP3    H254720   2.585   3.635   6.654  0.8977  2.4788 -0.7920
11077TIP3   OH254721   1.349   6.320  10.542 -0.1638 -0.3041 -0.2730
11077TIP3    H154722   1.407   6.251  10.509  1.4265  1.1788 -0.6309
11077TIP3    H254723   1.288   6.337  10.470  1.4880  0.9171 -1.4048
11078TIP3   OH254724   3.692   2.018  13.383 -0.1492 -0.4582  0.1265
11078TIP3    H154725   3.765   2.067  13.421 -1.6322  1.6399  0.3335
11078TIP3    H254726   3.715   2.011  13.290  0.2871  0.2090  0.1812
11079TIP3   OH254727   1.524   2.496   6.009  0.2351  0.3776 -0.5870
11079TIP3    H154728   1.471   2.574   6.027  1.3864  1.0956 -0.2650
11079TIP3    H254729   1.557   2.510   5.920  1.1975  0.7115 -0.1857
11080TIP3   OH254730   6.414   0.442   0.559 -0.2628 -0.2593  0.5849
11080TIP3    H154731   6.342   0.443   0.622  0.8303  0.2710  1.8312
11080TIP3    H254732   6.449   0.530   0.561 -0.4955 -0.1114 -1.1124
11081TIP3   OH254733   4.774   5.610  16.132 -0.5737  0.3367 -0.5389
11081TIP3    H154734   4.759   5.518  16.107 -1.7462  0.4551 -0.2738
11081TIP3    H254735   4.718   5.660  16.074  1.4935  1.0380 -1.9947
11082TIP3   OH254736   5.691   3.495   3.974 -0.2137  0.2969  0.6450
11082TIP3    H154737   5.708   3.588   3.986  1.0268  0.0952  0.5686
11082TIP3    H254738   5.611   3.478   4.024 -1.6722  1.8209 -1.0761
11083TIP3   OH254739   5.806   5.403  14.629  0.1874  0.4097  0.6100
11083TIP3    H154740   5.750   5.455  14.686 -0.6573  0.7627 -0.5083
11083TIP3    H254741   5.821   5.460  14.553  0.2145 -0.5366 -0.0970
11084TIP3   OH254742   6.393   3.270   0.511 -0.0417 -0.2697  0.4350
11084TIP3    H154743   6.364   3.192   0.465 -0.0215 -1.2942  2.1155
11084TIP3    H254744   6.355   3.262   0.599  1.3180  0.7813  1.1423
11085TIP3   OH254745   3.318   0.009   1.354  0.3427  0.1001  0.1325
11085TIP3    H154746   3.371  -0.066   1.330  1.2612  0.9967 -0.7002
11085TIP3    H254747   3.245  -0.028   1.404  0.6419 -1.3557 -0.4766
11086TIP3   OH254748   2.347   4.596   5.360 -0.5208  0.1961 -0.5331
11086TIP3    H154749   2.362   4.574   5.452 -1.8341 -0.6952 -0.5178
11086TIP3    H254750   2.297   4.522   5.325  0.0713  0.4685 -1.9950
11087TIP3   OH254751   4.655   0.322   0.393  0.3555  0.1726 -0.2787
11087TIP3    H154752   4.705   0.404   0.391 -1.1338  1.1174 -0.0683
11087TIP3    H254753   4.568   0.347   0.360 -0.4495 -1.0975  0.8466
11088TIP3   OH254754   2.030   3.990   4.590 -0.0615 -0.5104 -0.3021
11088TIP3    H154755   2.046   4.083   4.572  0.4437 -0.4045  0.6584
11088TIP3    H254756   1.953   3.968   4.538  0.3654  0.2116 -1.2564
11089TIP3   OH254757   1.392   0.659   0.032 -0.1873  0.6152 -0.2369
11089TIP3    H154758   1.419   0.622  -0.052 -1.5238  1.8944 -1.2636
11089TIP3    H254759   1.386   0.585   0.091  2.8408 -0.0451 -0.7079
11090TIP3   OH254760   2.353   5.827   5.586 -0.2273 -0.2602  0.1318
11090TIP3    H154761   2.267   5.796   5.557 -0.0828  0.1060 -0.7043
11090TIP3    H254762   2.396   5.749   5.622 -0.4155 -0.7195 -0.6363
11091TIP3   OH254763   1.519   1.119   5.645  0.3613  0.1584  0.3796
11091TIP3    H154764   1.614   1.124   5.655  0.0403  3.1875  2.4403
11091TIP3    H254765   1.492   1.058   5.714  0.6934  0.2128  0.5624
11092TIP3   OH254766   3.404   1.257  15.826  0.0930 -0.1021 -0.2143
11092TIP3    H154767   3.428   1.178  15.875 -0.7736 -0.6811 -0.7156
11092TIP3    H254768   3.439   1.329  15.879 -1.2407 -0.6897  1.5160
11093TIP3   OH254769   3.417   1.804  16.496  0.4550 -0.3131 -0.1910
11093TIP3    H154770   3.463   1.736  16.545 -1.5550 -1.4470  0.1751
11093TIP3    H254771   3.371   1.855  16.562 -1.2472 -1.0682 -0.7636
11094TIP3   OH254772   1.333   1.612  15.484 -0.0271  0.4000  0.2666
11094TIP3    H154773   1.296   1.678  15.427 -0.9824  1.5612  2.1596
11094TIP3    H254774   1.295   1.631  15.570 -0.8116 -2.9624  0.7487
11095TIP3   OH254775   3.658   4.099  12.029 -0.0790 -0.6559  0.5356
11095TIP3    H154776   3.695   4.158  11.963 -2.1039  0.4925  0.3997
11095TIP3    H254777   3.629   4.022  11.980 -0.2655 -0.4343  0.3056
11096TIP3   OH254778   2.299   5.460   5.955 -0.1423 -0.1730  0.5550
11096TIP3    H154779   2.253   5.397   6.010 -1.4517  0.5743  0.3509
11096TIP3    H254780   2.311   5.415   5.872  0.4457 -0.7491  0.9493
11097TIP3   OH254781   2.492   0.677   2.275 -0.0459  0.8209  0.4682
11097TIP3    H154782   2.468   0.585   2.279 -0.0796  0.8768  2.2266
11097TIP3    H254783   2.414   0.721   2.240 -0.4812  0.3142  0.7894
11098TIP3   OH254784   4.247   6.660   0.521  0.5564 -0.4550  0.3601
11098TIP3    H154785   4.262   6.741   0.570  1.4298 -1.0464  1.0702
11098TIP3    H254786   4.334   6.634   0.491  0.3875 -1.6062  0.8719
11099TIP3   OH254787   1.736   2.580   0.138 -0.3855 -0.8204  0.0951
11099TIP3    H154788   1.738   2.487   0.162  1.5109 -1.4202 -2.1259
11099TIP3    H254789   1.825   2.598   0.106 -1.1496  1.3610 -0.9091
11100TIP3   OH254790   1.426   0.683  16.266 -0.0402 -1.0347 -0.0834
11100TIP3    H154791   1.490   0.752  16.284 -0.0560 -0.7080 -1.2194
11100TIP3    H254792   1.384   0.667  16.350  0.1141  0.1888  0.2423
11101TIP3   OH254793   1.378   1.625  16.494  0.1681 -0.2052 -0.0984
11101TIP3    H154794   1.314   1.586  16.434  0.3049  0.4586 -0.6883
11101TIP3    H254795   1.367   1.577  16.576  1.0480 -2.1956 -1.1121
11102TIP3   OH254796   2.489   2.940  11.956  0.0059  0.2101 -0.2377
11102TIP3    H154797   2.565   2.891  11.985 -0.2363 -0.9192 -1.4428
11102TIP3    H254798   2.496   3.025  11.999  1.9442  0.1192 -0.3575
11103TIP3   OH254799   3.349   6.050  16.023  0.2604 -0.3993  0.1325
11103TIP3    H154800   3.349   6.139  16.059 -3.8797 -0.2820  0.0836
11103TIP3    H254801   3.285   6.003  16.076 -0.4903 -2.2537 -2.3378
11104TIP3   OH254802   5.386   6.274  11.563 -0.3158 -0.4479 -0.4578
11104TIP3    H154803   5.366   6.183  11.542  0.1284 -0.6926  0.1823
11104TIP3    H254804   5.351   6.286  11.651  0.0068 -0.1190 -0.3765
11105TIP3   OH254805   1.534   5.787  12.840  0.4789 -0.1938  0.4798
11105TIP3    H154806   1.512   5.864  12.788  0.7599 -0.0836  0.5227
11105TIP3    H254807   1.453   5.765  12.887 -0.1778 -1.1333 -1.0637
11106TIP3   OH254808   5.038   4.246   1.764 -0.1300  0.1848  0.1352
11106TIP3    H154809   5.080   4.274   1.683  0.2807 -0.4209  0.1387
11106TIP3    H254810   4.949   4.221   1.739  0.4695 -1.4402 -0.3735
11107TIP3   OH254811   1.987   1.998   2.836  0.0080  0.0004 -0.3279
11107TIP3    H154812   2.030   2.058   2.897  0.1285 -2.3753  2.0014
11107TIP3    H254813   2.058   1.962   2.784 -0.0510  1.7483 -1.6582
11108TIP3   OH254814   5.212   0.605   3.587 -0.0450 -0.2212  0.3699
11108TIP3    H154815   5.225   0.579   3.496  0.0562  1.4328 -0.0983
11108TIP3    H254816   5.287   0.569   3.633  0.6449  0.1537 -0.4518
11109TIP3   OH254817   3.626   1.255  10.724  0.2527  0.0470  0.3358
11109TIP3    H154818   3.623   1.226  10.633  0.3527  0.1826  0.2879
11109TIP3    H254819   3.534   1.264  10.749  0.2247 -0.1955  0.3143
11110TIP3   OH254820   3.095   6.297  14.067  0.1964  0.3871 -0.4703
11110TIP3    H154821   3.092   6.203  14.052  1.3760  0.2517  0.0824
11110TIP3    H254822   3.058   6.336  13.988 -1.5537 -0.5743 -0.1390
11111TIP3   OH254823   3.106   0.907   5.425 -0.3869  0.9432 -0.2646
11111TIP3    H154824   3.068   0.856   5.496 -0.5496  0.2631 -0.8373
11111TIP3    H254825   3.168   0.966   5.468 -1.6374  1.6545  0.6147
11112TIP3   OH254826   4.407   4.903   2.278  0.4684  0.1637  0.3728
11112TIP3    H154827   4.437   4.813   2.292  2.8308  1.0597  1.4009
11112TIP3    H254828   4.448   4.953   2.349 -1.0606  1.9949  0.0034
11113TIP3   OH254829   3.195   0.689  13.656 -0.3490  0.3745 -0.4295
11113TIP3    H154830   3.101   0.673  13.664 -0.5169  1.8082  0.7459
11113TIP3    H254831   3.201   0.774  13.612  0.3159  1.4899  1.7173
11114TIP3   OH254832   4.132   4.800   0.604  0.0520  0.3729  0.3286
11114TIP3    H154833   4.202   4.737   0.588 -0.5103 -0.3967  0.8654
11114TIP3    H254834   4.081   4.762   0.675 -0.9866  0.8663 -0.1460
11115TIP3   OH254835   6.530   2.437   3.821  0.4349 -0.2432  0.0437
11115TIP3    H154836   6.612   2.395   3.844  0.3657 -0.3291  0.1351
11115TIP3    H254837   6.504   2.399   3.738  1.9445  1.8425 -1.4307
11116TIP3   OH254838   2.401   6.344   5.362  0.2699  0.1755  0.0703
11116TIP3    H154839   2.346   6.271   5.388  1.7799 -0.4408  1.6578
11116TIP3    H254840   2.367   6.372   5.277 -0.9975 -1.6642 -0.0362
11117TIP3   OH254841   3.616   3.294  14.939 -0.0548 -0.1104 -0.1451
11117TIP3    H154842   3.600   3.282  15.033 -2.3286  1.4635 -0.3036
11117TIP3    H254843   3.571   3.220  14.898 -1.1382  0.5498 -0.1490
11118TIP3   OH254844   3.965   3.864   4.218  0.0609 -0.4913  0.3413
11118TIP3    H154845   3.988   3.955   4.237 -1.3231  0.7419 -3.4301
11118TIP3    H254846   4.039   3.830   4.168  0.3153 -1.2721  1.2361
11119TIP3   OH254847   3.048   0.005  12.523 -0.1007  0.0429  0.3545
11119TIP3    H154848   3.034  -0.061  12.590  1.7172  0.4981  1.2236
11119TIP3    H254849   2.988   0.076  12.546 -1.1862 -0.7729  0.1066
11120TIP3   OH254850   4.348   5.079  11.641  0.0794  0.0562  0.1912
11120TIP3    H154851   4.359   5.095  11.547  0.2319 -0.9308  0.0310
11120TIP3    H254852   4.408   5.006  11.659  0.4398  0.5868  1.1650
11121TIP3   OH254853   2.964   1.677  14.160  0.6072 -0.1360 -0.3143
11121TIP3    H154854   2.926   1.696  14.074  0.2322  0.8879  0.0708
11121TIP3    H254855   3.022   1.602  14.145 -1.1389 -1.3867 -1.0120
11122TIP3   OH254856   1.707   2.042   2.433  0.1174  0.3255 -0.1296
11122TIP3    H154857   1.780   1.987   2.463  0.0960  1.0494  1.2854
11122TIP3    H254858   1.633   2.014   2.488 -0.7434 -0.5714 -1.7181
11123TIP3   OH254859   3.373   4.308   5.071  0.1973  0.2937  0.3078
11123TIP3    H154860   3.390   4.317   5.165 -0.6160 -0.4205  0.5239
11123TIP3    H254861   3.290   4.260   5.066 -0.0612  0.8372 -0.7678
11124TIP3   OH254862   2.538   2.444  13.052  0.0316  0.1784  0.1229
11124TIP3    H154863   2.493   2.494  13.120 -1.2815 -1.7855  0.7259
11124TIP3    H254864   2.629   2.441  13.081 -0.6251 -1.1298  2.0860
11125TIP3   OH254865   5.318   1.255   5.654 -0.4643 -0.0720  0.3293
11125TIP3    H154866   5.317   1.161   5.638 -1.2300  0.2397 -1.6024
11125TIP3    H254867   5.403   1.272   5.694 -0.4961 -1.6339  1.0749
11126TIP3   OH254868   5.441   6.759  13.585  0.3293 -0.1880  0.3765
11126TIP3    H154869   5.441   6.845  13.626 -0.4639 -0.3359  0.6831
11126TIP3    H254870   5.533   6.731  13.588  0.9989  1.6526 -1.8400
11127TIP3   OH254871   5.728   0.898  12.933 -0.1592 -0.1522 -0.3638
11127TIP3    H154872   5.762   0.811  12.917  0.0567 -0.4094  1.3609
11127TIP3    H254873   5.669   0.887  13.008  0.9711  1.4147  0.7916
11128TIP3   OH254874   0.300   2.067   2.423  0.1260  0.5219 -0.2845
11128TIP3    H154875   0.373   2.033   2.371  1.0521 -1.3767  2.1265
11128TIP3    H254876   0.222   2.029   2.383  0.7980 -0.5869 -0.5568
11129TIP3   OH254877   5.365   3.479   3.932 -0.0683  0.0661  0.1630
11129TIP3    H154878   5.269   3.478   3.922  0.0968  0.7288 -1.6250
11129TIP3    H254879   5.382   3.553   3.990 -0.6185  0.2016  0.1586
11130TIP3   OH254880   3.901   0.033   0.072  0.0724 -0.3716 -0.1335
11130TIP3    H154881   3.919  -0.053   0.109  0.6381  0.5814  1.9152
11130TIP3    H254882   3.812   0.054   0.100  0.8537  0.7719  1.6349
11131TIP3   OH254883   5.175   1.189   0.535 -0.4156 -0.3593  0.2716
11131TIP3    H154884   5.210   1.125   0.597 -0.9753 -3.7718 -2.7703
11131TIP3    H254885   5.080   1.177   0.539 -0.5843  1.0124  0.4195
11132TIP3   OH254886   1.701   6.458  12.076 -0.1092 -0.2541  0.3319
11132TIP3    H154887   1.776   6.479  12.131  1.4254 -0.0863 -1.7870
11132TIP3    H254888   1.636   6.422  12.137  1.6263 -0.2951  2.1990
11133TIP3   OH254889   0.665   2.840   6.025  0.4897 -0.2287  0.1493
11133TIP3    H154890   0.660   2.852   6.120 -0.2039 -2.1080  0.3803
11133TIP3    H254891   0.612   2.762   6.008 -1.7484  1.7096 -2.1332
11134TIP3   OH254892   1.771   5.124   4.713 -0.8784  0.2077  0.3420
11134TIP3    H154893   1.807   5.199   4.666  0.0493  0.9074  2.1115
11134TIP3    H254894   1.680   5.146   4.729 -1.0088  0.2766 -0.4745
11135TIP3   OH254895   5.058   6.242  17.203 -0.7376  0.8161  0.1113
11135TIP3    H154896   5.127   6.299  17.238 -0.6354  1.8382 -1.6759
11135TIP3    H254897   4.999   6.302  17.158 -1.2925 -0.3739 -0.7462
11136TIP3   OH254898   3.106   1.529   6.067  0.2335  0.0422 -0.2339
11136TIP3    H154899   3.064   1.484   5.994 -0.2212 -0.7524  0.5163
11136TIP3    H254900   3.059   1.499   6.145  0.7569  0.8303  0.3990
11137TIP3   OH254901   2.765   2.834  12.638 -0.5518 -0.3788 -0.0274
11137TIP3    H154902   2.758   2.765  12.573 -0.2921  0.2997 -0.7856
11137TIP3    H254903   2.769   2.788  12.722  0.8244 -1.3258 -0.5923
11138TIP3   OH254904   4.357   5.359   4.170 -0.3014  0.4818  0.0570
11138TIP3    H154905   4.262   5.370   4.173 -0.4215 -0.7840  3.2421
11138TIP3    H254906   4.386   5.377   4.259  2.4716  0.8888 -0.8793
11139TIP3   OH254907   6.741   2.714  16.776  0.1343 -0.3232 -0.6913
11139TIP3    H154908   6.714   2.805  16.766  1.3788  0.0719 -0.5907
11139TIP3    H254909   6.670   2.663  16.738 -0.9286  0.6593 -0.0611
11140TIP3   OH254910   2.560   6.328   3.267  0.5314  0.2390 -0.3927
11140TIP3    H154911   2.528   6.414   3.292  1.0055  0.7160 -1.4032
11140TIP3    H254912   2.649   6.343   3.234  1.4019 -0.9136  1.3140
11141TIP3   OH254913   3.453   5.357  14.469  0.6469 -0.3331 -0.5956
11141TIP3    H154914   3.430   5.275  14.425  1.0999  0.0445 -1.5599
11141TIP3    H254915   3.408   5.354  14.553 -1.7110 -0.2702 -1.8291
11142TIP3   OH254916   5.741   6.676  16.405 -0.2342 -0.0260 -0.0269
11142TIP3    H154917   5.729   6.619  16.481 -0.0901 -1.3526 -0.9918
11142TIP3    H254918   5.713   6.623  16.330 -2.2657  1.9224 -0.7247
11143TIP3   OH254919   6.805   3.192  16.827  0.5922 -0.0121 -0.6703
11143TIP3    H154920   6.773   3.104  16.845 -0.8793  0.6100 -0.0965
11143TIP3    H254921   6.899   3.187  16.839  0.4144 -1.2687  0.3379
11144TIP3   OH254922   0.127   5.502  11.801  0.0950 -0.1485  0.0835
11144TIP3    H154923   0.173   5.568  11.749  0.8476 -0.6942  0.0359
11144TIP3    H254924   0.059   5.469  11.742  3.2852 -3.4109 -2.0078
11145TIP3   OH254925   3.011   5.503  14.121 -0.3189 -0.3461  0.8475
11145TIP3    H154926   2.937   5.458  14.163 -1.6465  2.2064  1.3749
11145TIP3    H254927   3.077   5.509  14.189 -0.0179 -1.7027  0.6913
11146TIP3   OH254928   0.037   1.719  16.600  0.9203  0.4856  0.2310
11146TIP3    H154929  -0.057   1.715  16.579  0.8166  1.4574  0.5017
11146TIP3    H254930   0.044   1.681  16.687  0.5163  2.1119  0.9937
11147TIP3   OH254931   5.470   0.992   4.830  0.3479  0.1977  0.0187
11147TIP3    H154932   5.520   1.011   4.750  1.7276 -0.1470  0.7875
11147TIP3    H254933   5.441   1.078   4.860 -0.4356  0.3017 -1.0186
11148TIP3   OH254934   5.736   1.446  11.833  0.0386  0.2868 -0.1851
11148TIP3    H154935   5.684   1.411  11.905  0.4660  0.2272  0.0944
11148TIP3    H254936   5.823   1.409  11.846  0.2283  0.6262 -0.4807
11149TIP3   OH254937   3.351   0.244  12.001  0.9017 -0.2043 -0.1216
11149TIP3    H154938   3.300   0.325  11.999 -0.4931 -0.9943  1.9570
11149TIP3    H254939   3.441   0.273  12.015  0.3112  0.9846  1.4344
11150TIP3   OH254940   3.061   4.974   3.411  0.0958 -0.6513  0.2982
11150TIP3    H154941   3.077   5.014   3.326  2.0214 -0.4197  0.7615
11150TIP3    H254942   2.992   4.909   3.394  0.5450 -0.7016 -1.4490
11151TIP3   OH254943   6.765   1.210  11.427  0.0106  0.3517 -0.0253
11151TIP3    H154944   6.710   1.142  11.387 -0.6762  1.3423 -0.8111
11151TIP3    H254945   6.854   1.187  11.401 -0.1238 -0.7250  0.4369
11152TIP3   OH254946   3.045   6.068  16.448  0.2742  0.1218  0.3401
11152TIP3    H154947   3.064   6.162  16.450 -1.5595  0.5067  1.4730
11152TIP3    H254948   3.060   6.041  16.358  0.1817  1.6496 -0.1372
11153TIP3   OH254949   1.674   4.448   1.279  0.0972 -0.2385 -0.2975
11153TIP3    H154950   1.602   4.494   1.236  1.3609  0.1111 -2.1094
11153TIP3    H254951   1.706   4.386   1.213 -1.0158 -3.2003  1.8006
11154TIP3   OH254952   1.772   4.197   0.844 -0.2848 -0.0480 -0.2595
11154TIP3    H154953   1.770   4.137   0.769  0.0758 -0.2434 -0.1174
11154TIP3    H254954   1.809   4.278   0.809 -0.5704  0.0164 -0.4045
11155TIP3   OH254955   1.142   4.808   6.069 -0.1962 -0.3487 -0.1915
11155TIP3    H154956   1.197   4.780   5.996  2.8451 -3.2545  3.0585
11155TIP3    H254957   1.073   4.742   6.074 -1.7954  1.1415 -1.8092
11156TIP3   OH254958   0.559   2.629  13.594  0.2788  0.5269  0.1811
11156TIP3    H154959   0.524   2.582  13.518  0.0641  0.4174  0.3468
11156TIP3    H254960   0.632   2.680  13.559  1.8790 -1.5747  0.4087
11157TIP3   OH254961   2.395   0.174   3.026 -0.8459  0.1627 -1.0193
11157TIP3    H154962   2.354   0.100   3.071 -1.7970  1.2832 -0.0065
11157TIP3    H254963   2.439   0.134   2.950 -0.8226 -1.5057 -0.1560
11158TIP3   OH254964   5.103   3.238  13.695  0.6761 -0.3511 -0.4566
11158TIP3    H154965   5.170   3.187  13.741  0.9681 -0.5061 -1.0464
11158TIP3    H254966   5.102   3.201  13.607  2.6756  2.2721 -1.6663
11159TIP3   OH254967   4.427   1.956  15.518 -0.4576 -0.1554 -0.2827
11159TIP3    H154968   4.391   1.980  15.432  0.2659  1.0663 -0.2475
11159TIP3    H254969   4.387   1.871  15.537 -0.4375 -0.5598 -1.9373
11160TIP3   OH254970   3.672   3.214  13.253  0.1569 -0.1968 -0.3737
11160TIP3    H154971   3.765   3.234  13.245  0.3543 -0.9566  0.0440
11160TIP3    H254972   3.637   3.227  13.165  0.6352  0.1980 -0.5069
11161TIP3   OH254973   6.043   4.582  12.306 -0.0925 -0.1723 -0.2438
11161TIP3    H154974   6.055   4.674  12.331 -1.5391  0.2041 -0.9141
11161TIP3    H254975   6.036   4.536  12.390  1.8273  0.1536  0.1114
11162TIP3   OH254976   1.875   2.531   2.065 -0.3582 -0.2312 -0.6687
11162TIP3    H154977   1.914   2.587   2.132 -2.3633  2.7797 -1.8640
11162TIP3    H254978   1.944   2.519   2.000  1.0030 -1.5906  0.9989
11163TIP3   OH254979   3.619   4.915   3.418  0.1980 -0.0167 -0.3559
11163TIP3    H154980   3.549   4.947   3.475 -0.0989 -0.0106 -0.7247
11163TIP3    H254981   3.642   4.991   3.364  0.1198 -0.1738 -0.6075
11164TIP3   OH254982   0.275   2.910   3.045  0.0767  0.3979  0.4060
11164TIP3    H154983   0.262   2.824   3.086  2.8978 -0.1186  0.3174
11164TIP3    H254984   0.279   2.971   3.118  0.2117  0.1445  0.6138
11165TIP3   OH254985   0.303   1.599  13.337  0.0035 -0.5163  0.3401
11165TIP3    H154986   0.262   1.581  13.252 -0.4255 -1.7611  0.8082
11165TIP3    H254987   0.358   1.522  13.354  0.8817  0.1781  0.7251
11166TIP3   OH254988   4.715   3.621  13.569  0.6226 -0.3080  0.5036
11166TIP3    H154989   4.730   3.631  13.475  3.0527  0.4771  0.9206
11166TIP3    H254990   4.672   3.702  13.596 -1.0199 -0.9723 -0.0977
11167TIP3   OH254991   3.102   0.613   5.600  0.2442  0.5332 -0.4433
11167TIP3    H154992   3.088   0.576   5.688  0.4549  0.2605 -0.5261
11167TIP3    H254993   3.192   0.591   5.578  0.2471  0.7563 -0.6576
11168TIP3   OH254994   6.237   4.569   1.137  0.6860 -0.4794  0.1839
11168TIP3    H154995   6.298   4.573   1.210  0.7325 -1.5980  0.2164
11168TIP3    H254996   6.270   4.634   1.075  0.7816  0.2995  1.0460
11169TIP3   OH254997   5.985   1.850   5.071  0.2121 -0.0432  0.2668
11169TIP3    H154998   5.948   1.854   5.159  1.0635  1.5741  0.5687
11169TIP3    H254999   6.030   1.934   5.060  0.7128 -0.5165 -1.4436
11170TIP3   OH255000   1.200   2.029   4.959 -0.2936 -0.5719  0.3512
11170TIP3    H155001   1.251   2.080   4.896  0.9755 -1.5635  0.5457
11170TIP3    H255002   1.132   1.986   4.907  0.0074 -0.4428 -0.1448
11171TIP3   OH255003   0.714   3.611  16.316 -0.4172  0.1358  0.3953
11171TIP3    H155004   0.708   3.534  16.259 -1.2858  1.1661 -0.9362
11171TIP3    H255005   0.793   3.656  16.285 -1.0657  0.8622 -0.2035
11172TIP3   OH255006   1.289   1.909   1.961 -0.3797 -0.2135 -0.0421
11172TIP3    H155007   1.240   1.981   2.001 -0.7516  0.2789 -1.3506
11172TIP3    H255008   1.361   1.892   2.022  0.1353  1.7643 -0.0709
11173TIP3   OH255009   5.143   2.226  14.110  0.0231  0.3871 -0.1398
11173TIP3    H155010   5.090   2.303  14.090 -1.0078  0.3822  2.3133
11173TIP3    H255011   5.229   2.261  14.132  0.0211  0.7029 -0.6445
11174TIP3   OH255012   6.429   6.044  12.003 -0.3628 -0.1336  0.7717
11174TIP3    H155013   6.432   5.992  11.923  0.8060  0.8009  0.1899
11174TIP3    H255014   6.342   6.085  12.001 -0.0452  0.5098 -0.4339
11175TIP3   OH255015   1.392   1.333   2.719  0.4408  0.5165  0.3345
11175TIP3    H155016   1.414   1.401   2.656 -0.4615 -0.0233 -0.5791
11175TIP3    H255017   1.435   1.254   2.685  2.4005  0.8490  1.9725
11176TIP3   OH255018   0.005   1.908  11.633 -0.0893 -0.4283  0.8203
11176TIP3    H155019  -0.009   1.876  11.544 -1.7390 -0.7044  1.1550
11176TIP3    H255020  -0.015   2.002  11.628 -0.3179 -0.4708  0.9267
11177TIP3   OH255021   4.634   1.584   2.787  0.8325  0.0569 -0.0318
11177TIP3    H155022   4.552   1.630   2.773  1.1302  0.2006 -1.3934
11177TIP3    H255023   4.641   1.575   2.882 -0.7858 -0.0368  0.0851
11178TIP3   OH255024   3.178   4.094  14.030  0.5441 -0.3249 -0.2086
11178TIP3    H155025   3.090   4.112  13.999  0.4941  1.5697  1.0161
11178TIP3    H255026   3.213   4.031  13.966 -0.4981  1.4357 -2.5969
11179TIP3   OH255027   4.209   2.136  17.085 -0.0812 -0.5947 -0.5978
11179TIP3    H155028   4.143   2.196  17.119  0.4245  0.8034 -2.0241
11179TIP3    H255029   4.271   2.126  17.157  0.8042  2.0747 -0.9295
11180TIP3   OH255030   3.280   0.434   3.161 -0.4193  0.8885  0.5274
11180TIP3    H155031   3.275   0.496   3.088 -0.2051 -0.5550 -0.7351
11180TIP3    H255032   3.222   0.362   3.135 -1.3713  0.9704  2.3850
11181TIP3   OH255033   4.557   4.658  15.730  0.5365  0.2228  0.0868
11181TIP3    H155034   4.612   4.649  15.652  0.1930  0.8984 -0.2292
11181TIP3    H255035   4.583   4.584  15.786 -0.9382 -1.7305 -1.7181
11182TIP3   OH255036   1.457   2.578  11.217 -0.3830  0.1574  0.2010
11182TIP3    H155037   1.552   2.574  11.234 -0.6669  0.8699  2.0548
11182TIP3    H255038   1.443   2.511  11.150  1.0941 -1.6049  1.5667
11183TIP3   OH255039   5.296   4.278   4.690 -0.2822  0.5200  0.2338
11183TIP3    H155040   5.368   4.293   4.751  1.0478 -0.1115 -1.1305
11183TIP3    H255041   5.242   4.211   4.732  1.3031 -0.8232  0.1873
11184TIP3   OH255042   1.072   0.721   1.062 -0.3076  0.1296 -0.5391
11184TIP3    H155043   1.025   0.673   0.993  0.0287 -0.2104 -0.5356
11184TIP3    H255044   1.133   0.656   1.099  0.3620  0.6376 -0.7361
11185TIP3   OH255045   2.590   1.118  15.915  0.1563 -0.1810  0.3291
11185TIP3    H155046   2.669   1.069  15.936  1.0195  0.1975 -1.9278
11185TIP3    H255047   2.532   1.054  15.873  0.3541  0.1724 -0.4918
11186TIP3   OH255048   6.063   1.323  11.148 -0.1108 -0.2401  0.1065
11186TIP3    H155049   6.125   1.252  11.166  0.9092  1.0576  1.9383
11186TIP3    H255050   6.028   1.346  11.234 -0.5635  1.3528 -0.4843
11187TIP3   OH255051   3.090   5.470  16.081 -0.0346  0.3043  0.0740
11187TIP3    H155052   3.004   5.481  16.122  0.6748  0.6001  1.5213
11187TIP3    H255053   3.078   5.395  16.022 -1.2914  0.3475  0.2496
11188TIP3   OH255054   4.587   1.672   0.286  0.3374  1.1258 -0.4984
11188TIP3    H155055   4.579   1.764   0.310  0.8355  1.4251 -1.4197
11188TIP3    H255056   4.499   1.647   0.258  0.4278  1.6254 -1.2494
11189TIP3   OH255057   5.858   5.742   5.887  0.1165  0.2095  0.5155
11189TIP3    H155058   5.821   5.702   5.808 -1.2250  0.8190  0.8084
11189TIP3    H255059   5.844   5.836   5.875 -1.8001  0.1990  2.2713
11190TIP3   OH255060   4.930   2.872   5.197  0.2364  0.1565 -0.1472
11190TIP3    H155061   4.916   2.933   5.124 -0.7944  0.4390  0.2814
11190TIP3    H255062   4.843   2.838   5.217  0.7935 -1.5210 -0.4170
11191TIP3   OH255063   5.285   0.918   6.592  0.1859 -1.5968  0.2740
11191TIP3    H155064   5.223   0.977   6.548  0.8595 -0.4373  0.8513
11191TIP3    H255065   5.327   0.871   6.520  0.6060 -0.3836 -0.3052
11192TIP3   OH255066   0.505   6.193   4.874  0.0192 -0.1365  0.1161
11192TIP3    H155067   0.440   6.122   4.869  1.0418 -1.0079 -1.1437
11192TIP3    H255068   0.469   6.253   4.940 -1.2778 -1.3977  0.6066
11193TIP3   OH255069   4.523   2.779   1.904  0.4377  0.1468  0.1801
11193TIP3    H155070   4.511   2.724   1.981 -0.7018  1.5760  1.0470
11193TIP3    H255071   4.553   2.863   1.939 -2.3057  1.5660 -0.6900
11194TIP3   OH255072   0.162   6.080  14.040  0.0008  0.2070  0.0291
11194TIP3    H155073   0.233   6.071  14.103  0.3134 -0.1956 -0.3748
11194TIP3    H255074   0.199   6.048  13.958 -0.1136  1.5160 -0.5596
11195TIP3   OH255075   6.300   2.331  16.521 -0.0792  0.4787 -0.0322
11195TIP3    H155076   6.279   2.402  16.582  1.5306  2.7108 -1.9430
11195TIP3    H255077   6.217   2.311  16.478 -0.7761  0.3990  1.3187
11196TIP3   OH255078   0.281   5.134  15.257  0.5325 -0.0049  0.4129
11196TIP3    H155079   0.232   5.120  15.176 -1.2497 -0.5420  1.5617
11196TIP3    H255080   0.363   5.086  15.244  1.3374  1.9394 -2.0117
11197TIP3   OH255081   4.481   3.426  13.814 -0.0544 -0.1056  0.0406
11197TIP3    H155082   4.438   3.510  13.798  0.5382  0.0310 -0.8707
11197TIP3    H255083   4.557   3.447  13.869 -1.1629 -0.3531  1.6907
11198TIP3   OH255084   4.995   0.182  17.161  0.0305 -0.6704  0.6023
11198TIP3    H155085   4.931   0.229  17.106 -0.5065 -0.5543  1.3225
11198TIP3    H255086   4.957   0.185  17.249  0.9361 -0.7799  0.9951
11199TIP3   OH255087   3.209   0.034   5.835  0.5360 -0.3344 -0.3751
11199TIP3    H155088   3.265   0.103   5.869 -1.1429  1.5872 -1.4278
11199TIP3    H255089   3.144   0.079   5.781 -2.1839 -2.4361  0.9774
11200TIP3   OH255090   4.157   2.063   1.208 -0.4638  0.2321 -0.3563
11200TIP3    H155091   4.167   2.158   1.205 -0.2036  0.2299  0.4645
11200TIP3    H255092   4.083   2.045   1.149  0.4101  0.7963 -1.6590
11201TIP3   OH255093   1.955   5.675  13.526 -0.4588 -0.2602 -0.6407
11201TIP3    H155094   1.926   5.592  13.487 -0.5124 -1.1094  1.1666
11201TIP3    H255095   1.882   5.703  13.581 -0.3258  0.8496 -1.0161
11202TIP3   OH255096   4.488   0.236   2.865 -0.3842  0.0463  0.1384
11202TIP3    H155097   4.546   0.310   2.884 -0.2920  0.2806 -1.0482
11202TIP3    H255098   4.547   0.162   2.853 -0.4162  0.0060  0.2274
11203TIP3   OH255099   1.527   1.508  14.459 -0.2992  0.6487  0.2675
11203TIP3    H155100   1.448   1.458  14.440 -1.3051  0.8009  3.8254
11203TIP3    H255101   1.594   1.470  14.402 -1.6128 -3.1890  1.1914
11204TIP3   OH255102   4.823   1.859   3.264  0.2059  0.1715 -0.0872
11204TIP3    H155103   4.757   1.927   3.276 -0.7403 -1.0135  1.4333
11204TIP3    H255104   4.825   1.845   3.169 -0.6569  1.2542 -0.2773
11205TIP3   OH255105   2.621   3.421   2.267  0.7836  0.7802 -0.6422
11205TIP3    H155106   2.694   3.368   2.237  0.3158  0.1574 -0.6901
11205TIP3    H255107   2.592   3.380   2.348 -0.1391  0.4350 -1.1325
11206TIP3   OH255108   2.656   6.313   1.730  0.3960 -0.0609  0.0955
11206TIP3    H155109   2.690   6.224   1.740 -0.4939 -0.5140 -0.7433
11206TIP3    H255110   2.730   6.370   1.749  1.8493 -1.0117 -2.3940
11207TIP3   OH255111   0.714   4.664   4.845  0.2559  0.0040 -0.6064
11207TIP3    H155112   0.769   4.622   4.911 -0.2742  0.7271  0.3232
11207TIP3    H255113   0.626   4.633   4.865  0.1805 -0.2723 -1.3778
11208TIP3   OH255114   1.733   2.548  10.945 -1.1636 -0.8986  0.2760
11208TIP3    H155115   1.804   2.495  10.909 -1.6110 -1.7365  0.6175
11208TIP3    H255116   1.737   2.630  10.896 -0.3704 -1.1911 -0.1544
11209TIP3   OH255117   1.262   6.644   0.773  0.0117  0.4057 -0.3549
11209TIP3    H155118   1.348   6.630   0.813 -0.6582 -2.6326  0.1537
11209TIP3    H255119   1.277   6.635   0.679  0.5560  1.7092 -0.4004
11210TIP3   OH255120   6.309   0.111   0.537 -0.0039  0.7059 -0.1657
11210TIP3    H155121   6.389   0.106   0.590 -0.6607 -0.3510  0.7615
11210TIP3    H255122   6.329   0.174   0.468  1.9964 -0.3696 -0.5805
11211TIP3   OH255123   2.135   0.269  12.484  0.5310 -0.5602 -0.1647
11211TIP3    H155124   2.196   0.206  12.445  1.2672 -0.9097  1.5409
11211TIP3    H255125   2.106   0.229  12.565 -3.0143 -0.9697 -1.5480
11212TIP3   OH255126   5.558   6.671  11.245  0.9395  0.0368 -0.1341
11212TIP3    H155127   5.622   6.615  11.200 -0.9733 -1.5218 -1.0217
11212TIP3    H255128   5.572   6.652  11.338  1.6027 -0.4701 -0.3245
11213TIP3   OH255129   6.312   2.697  11.087 -0.2783 -0.0335  0.5123
11213TIP3    H155130   6.354   2.710  11.172  0.2837  0.2689  0.1904
11213TIP3    H255131   6.279   2.783  11.063  0.2720  0.0516  0.0505
11214TIP3   OH255132   6.708   6.462  14.731 -0.3114 -0.1555 -0.1681
11214TIP3    H155133   6.707   6.543  14.780 -1.5763 -0.1144 -0.2647
11214TIP3    H255134   6.631   6.414  14.760 -0.0310 -0.9592 -0.7134
11215TIP3   OH255135   1.264   4.235   3.255 -0.0684 -0.1278  0.1580
11215TIP3    H155136   1.265   4.144   3.224 -1.4930 -0.2716  0.5263
11215TIP3    H255137   1.175   4.265   3.240  1.0207  2.0390 -2.2727
11216TIP3   OH255138   6.675   2.084   6.511  0.5240  0.0535  0.0849
11216TIP3    H155139   6.718   2.145   6.451  0.8765 -0.1614  0.1221
11216TIP3    H255140   6.648   2.011   6.455  0.6591 -0.0467  0.1517
11217TIP3   OH255141   6.122   3.236  15.350  0.1867  0.7252 -0.6095
11217TIP3    H155142   6.105   3.323  15.387  0.4354  0.5106  0.0074
11217TIP3    H255143   6.051   3.181  15.384  1.2238  0.1880  0.7405
11218TIP3   OH255144   2.195   3.465  15.477 -0.4349 -0.3785 -0.1764
11218TIP3    H155145   2.116   3.417  15.451 -0.0427 -0.3814 -1.3875
11218TIP3    H255146   2.256   3.450  15.405  0.5723 -0.1489  0.6341
11219TIP3   OH255147   5.688   5.359   3.966 -0.2635 -0.1054  0.4738
11219TIP3    H155148   5.747   5.434   3.979  0.6393 -0.6428 -0.5008
11219TIP3    H255149   5.692   5.312   4.049 -1.1034  1.1044  1.2237
11220TIP3   OH255150   3.371   3.084  11.137 -0.0003  0.3971 -0.5628
11220TIP3    H155151   3.381   3.174  11.109  0.3036 -0.4037 -3.0939
11220TIP3    H255152   3.460   3.057  11.161 -0.1829  0.9235  0.7643
11221TIP3   OH255153   2.759   4.765  12.843  0.1808 -0.7710 -0.6218
11221TIP3    H155154   2.736   4.674  12.829 -0.3070 -1.0531  1.8555
11221TIP3    H255155   2.851   4.762  12.870 -0.0596 -0.6171  0.2334
11222TIP3   OH255156   1.762   0.404   2.567 -0.0316 -0.1516 -0.0794
11222TIP3    H155157   1.796   0.458   2.495 -0.2374  0.2885  0.1477
11222TIP3    H255158   1.668   0.420   2.566 -0.0904 -0.4990 -0.0026
11223TIP3   OH255159   2.312   6.021   3.878  0.5480 -0.0332 -0.0343
11223TIP3    H155160   2.324   5.944   3.822  1.8893 -0.4796  0.8433
11223TIP3    H255161   2.389   6.022   3.935 -0.6054  0.6100  1.5682
11224TIP3   OH255162   6.145   4.288   2.115  0.1838  0.2160 -0.5529
11224TIP3    H155163   6.184   4.271   2.029  0.5344  0.7928 -0.5122
11224TIP3    H255164   6.167   4.379   2.134  0.9108 -0.1698  0.5557
11225TIP3   OH255165   6.304   5.385  15.650 -0.0049  0.6049  0.3344
11225TIP3    H155166   6.229   5.443  15.641 -0.0728  0.7835  1.8823
11225TIP3    H255167   6.369   5.420  15.590 -1.3110  0.1774 -1.3722
11226TIP3   OH255168   0.551   1.819   2.913  0.0276  0.4317 -0.4616
11226TIP3    H155169   0.564   1.881   2.841  2.8706  0.0599 -0.3339
11226TIP3    H255170   0.541   1.875   2.991 -0.5956  0.7835 -0.7915
11227TIP3   OH255171   1.917   4.300  14.650 -0.8149  0.3294 -0.1738
11227TIP3    H155172   2.008   4.307  14.623  0.1717 -2.3462  2.2507
11227TIP3    H255173   1.887   4.391  14.660  1.3911  1.2267 -1.5140
11228TIP3   OH255174   0.082   4.562   2.100  0.0510  0.3275 -0.3988
11228TIP3    H155175   0.074   4.562   2.005 -0.3744 -0.5363 -0.3697
11228TIP3    H255176   0.142   4.490   2.119  0.8396  1.0636 -0.0620
11229TIP3   OH255177   4.358   1.591   0.149  0.5004 -0.1926  0.4965
11229TIP3    H155178   4.387   1.577   0.059  1.3088  2.9325  0.2198
11229TIP3    H255179   4.294   1.522   0.165  1.4922 -1.7146 -1.9344
11230TIP3   OH255180   6.616   2.086  13.316 -0.0487  0.0481 -0.1438
11230TIP3    H155181   6.605   2.011  13.258  1.4267 -0.2958  0.0196
11230TIP3    H255182   6.547   2.147  13.288 -1.3792 -1.4186 -0.1527
11231TIP3   OH255183   4.139   5.892  11.611 -0.0957 -0.5315 -0.6463
11231TIP3    H155184   4.118   5.969  11.559 -1.4815 -0.9509 -0.7202
11231TIP3    H255185   4.159   5.824  11.547 -0.5806 -0.7050 -0.6165
11232TIP3   OH255186   6.319   5.360  17.278  0.1674 -0.3222  0.0661
11232TIP3    H155187   6.327   5.265  17.266 -1.9623 -0.6133  0.7324
11232TIP3    H255188   6.344   5.374  17.370 -1.8514 -0.5864  0.6850
11233TIP3   OH255189   5.905   2.295   4.604 -0.2110 -0.0571 -0.9632
11233TIP3    H155190   5.855   2.353   4.661 -1.4960 -2.7884  0.7833
11233TIP3    H255191   5.841   2.259   4.543  0.2624 -0.9192 -0.9624
11234TIP3   OH255192   3.316   1.273   1.560 -0.2151  0.2898  0.4901
11234TIP3    H155193   3.263   1.316   1.492  0.0231  0.4418  0.4022
11234TIP3    H255194   3.271   1.190   1.576 -0.1085  0.1241 -0.0632
11235TIP3   OH255195   1.794   0.565  12.344  0.1740 -0.5438 -0.5600
11235TIP3    H155196   1.818   0.491  12.399  0.9467 -0.0869 -0.2718
11235TIP3    H255197   1.850   0.556  12.267 -1.1689 -1.3970 -1.4632
11236TIP3   OH255198   2.053   4.873  15.864 -0.0786  0.1474 -0.5478
11236TIP3    H155199   2.035   4.839  15.776 -0.8389 -0.3632 -0.2011
11236TIP3    H255200   1.968   4.906  15.894  0.0042 -0.4448  0.3242
11237TIP3   OH255201   1.193   0.179   4.181  0.0767 -0.3527 -0.1606
11237TIP3    H155202   1.193   0.160   4.087  1.7669  0.2199 -0.3058
11237TIP3    H255203   1.113   0.139   4.214 -0.5813 -0.4850 -1.8637
11238TIP3   OH255204   5.334   4.568  12.802  0.1727 -0.0635  0.2656
11238TIP3    H155205   5.395   4.594  12.733 -1.2752 -0.6995 -1.3296
11238TIP3    H255206   5.383   4.508  12.857  0.8936 -0.8326 -1.1943
11239TIP3   OH255207   3.369   4.335   2.023 -0.2379  0.5457  0.0513
11239TIP3    H155208   3.446   4.297   1.982  1.3240  2.0939  1.4521
11239TIP3    H255209   3.315   4.259   2.047  1.0865 -0.5887 -0.4691
11240TIP3   OH255210   4.683   2.380  13.370 -0.5081  0.1195 -0.6326
11240TIP3    H155211   4.681   2.374  13.274  0.4350  1.3038 -0.7436
11240TIP3    H255212   4.711   2.293  13.399 -0.3987 -0.1226 -1.4604
11241TIP3   OH255213   3.809   1.978  15.343 -0.1346 -0.1622  0.3555
11241TIP3    H155214   3.759   2.056  15.318  0.5175 -0.2184 -1.1409
11241TIP3    H255215   3.897   2.011  15.361  0.0844 -0.5199 -0.0638
11242TIP3   OH255216   6.068   5.658   1.386 -0.4238  0.2958  0.3423
11242TIP3    H155217   6.043   5.742   1.423 -1.7641 -0.1154  0.3905
11242TIP3    H255218   6.031   5.658   1.297  3.4000  1.5933 -1.3722
11243TIP3   OH255219   1.275   3.992   6.102  0.2540 -0.3072  0.2799
11243TIP3    H155220   1.364   3.966   6.127  0.7385 -0.0929 -1.1479
11243TIP3    H255221   1.228   3.909   6.092  1.0937 -0.5767 -1.7390
11244TIP3   OH255222   4.037   4.353  11.467 -0.3672  0.2019 -0.0780
11244TIP3    H155223   4.033   4.353  11.563 -0.6347 -0.3003 -0.0809
11244TIP3    H255224   4.129   4.342  11.446 -0.2307  0.9905  0.1194
11245TIP3   OH255225   6.815   0.066  14.645  0.6264  0.3045 -0.3941
11245TIP3    H155226   6.773   0.118  14.577  0.8230  1.5029  0.3944
11245TIP3    H255227   6.861   0.130  14.700 -0.0131 -0.5798  1.2034
11246TIP3   OH255228   5.919   6.705  13.786  0.6398  0.5329 -0.1698
11246TIP3    H155229   5.896   6.612  13.776  0.7104  0.6648 -1.7648
11246TIP3    H255230   5.887   6.729  13.873  1.2968 -1.1768  0.5687
11247TIP3   OH255231   4.013   6.567   0.155  0.2745 -0.0858  0.3836
11247TIP3    H155232   3.999   6.591   0.247 -0.6054 -1.4885  0.6331
11247TIP3    H255233   4.029   6.473   0.157  1.1716  0.0339 -0.8173
11248TIP3   OH255234   1.892   6.753   1.888  0.8552  0.3003  0.1711
11248TIP3    H155235   1.885   6.819   1.818  2.1106  2.2154  1.7949
11248TIP3    H255236   1.818   6.771   1.945  0.0865 -0.9801 -0.3936
11249TIP3   OH255237   2.747   1.486   4.760  0.1846 -0.3332  0.2480
11249TIP3    H155238   2.684   1.480   4.688  1.2133 -1.9132 -0.5457
11249TIP3    H255239   2.794   1.402   4.758  1.6601  0.4449  1.4282
11250TIP3   OH255240   6.068   1.575  13.371  0.3161  0.3007 -0.0928
11250TIP3    H155241   5.986   1.528  13.380 -0.7816  2.0025 -0.8844
11250TIP3    H255242   6.053   1.636  13.298  1.7166  1.7399  0.7812
11251TIP3   OH255243   1.316   3.386  12.925 -0.2401  0.0885 -1.0430
11251TIP3    H155244   1.410   3.368  12.923  0.0535  1.1854  1.3381
11251TIP3    H255245   1.292   3.405  12.834  1.8808  0.0555 -1.6136
11252TIP3   OH255246   2.530   1.232   4.121 -0.2162 -0.2074 -0.2678
11252TIP3    H155247   2.498   1.322   4.131 -1.0053 -0.5528  0.4076
11252TIP3    H255248   2.609   1.229   4.175  0.1559  0.2453 -0.7800
11253TIP3   OH255249   1.408   1.910  15.169  0.3980 -0.0094  0.3884
11253TIP3    H155250   1.427   1.887  15.078  1.9099 -0.4330  0.8037
11253TIP3    H255251   1.346   1.844  15.199  1.5466 -1.1327  0.3129
11254TIP3   OH255252   5.890   4.816   2.467  0.3933  0.1327 -0.1679
11254TIP3    H155253   5.802   4.786   2.488  0.2495  0.7674  0.1451
11254TIP3    H255254   5.902   4.793   2.375 -0.3627  0.6880 -0.4063
11255TIP3   OH255255   5.322   3.922   3.243 -0.8109 -0.2800  0.5410
11255TIP3    H155256   5.345   4.010   3.211  0.5894  0.0430  2.4040
11255TIP3    H255257   5.392   3.866   3.211 -1.2778 -0.6020  0.0588
11256TIP3   OH255258   6.240   5.280   3.969 -0.0950  0.5009 -0.3594
11256TIP3    H155259   6.322   5.236   3.949 -0.7624 -0.8876 -0.1031
11256TIP3    H255260   6.256   5.372   3.949  1.0302  0.0030 -1.7899
11257TIP3   OH255261   6.647   3.819   2.606  0.2945  0.0439  0.0968
11257TIP3    H155262   6.693   3.751   2.655 -0.9827 -1.2565 -0.4505
11257TIP3    H255263   6.562   3.826   2.649  1.0954  2.7194  1.3633
11258TIP3   OH255264   1.330   0.673  13.105  0.6430  0.5662  0.4719
11258TIP3    H155265   1.326   0.616  13.182 -0.6877  1.1025  0.8067
11258TIP3    H255266   1.253   0.729  13.112  1.2778  1.5823 -0.5063
11259TIP3   OH255267   4.706   3.239   4.036 -0.0480  0.2952  0.6540
11259TIP3    H155268   4.642   3.285   3.981 -1.0660 -0.8347  0.8896
11259TIP3    H255269   4.695   3.278   4.123 -0.0988  0.4060  0.5987
11260TIP3   OH255270   6.125   5.154   1.715  0.1012  0.5649  0.3102
11260TIP3    H155271   6.045   5.193   1.750 -1.2845 -2.8065  1.1007
11260TIP3    H255272   6.173   5.123   1.792  0.9038  0.2573 -0.3028
11261TIP3   OH255273   5.369   1.680   1.021  0.9511  0.3740 -0.1222
11261TIP3    H155274   5.428   1.607   1.001  1.0097 -0.4777  2.9062
11261TIP3    H255275   5.422   1.741   1.072 -0.8023 -0.6027  3.0187
11262TIP3   OH255276   5.047   5.254  11.082  0.1129 -0.8148  0.4644
11262TIP3    H155277   5.138   5.230  11.098  0.0582 -0.9960  0.4992
11262TIP3    H255278   5.001   5.171  11.071  0.0542 -0.7099 -0.1295
11263TIP3   OH255279   6.749   2.607  15.624 -0.1581  0.7358  0.8246
11263TIP3    H155280   6.825   2.554  15.599 -1.4205 -0.8078  0.1800
11263TIP3    H255281   6.747   2.678  15.559  0.9213  0.9986  1.0567
11264TIP3   OH255282   0.151   2.943  14.649 -0.1788 -0.2791  0.3074
11264TIP3    H155283   0.233   2.912  14.687 -0.3079  0.4449  1.1961
11264TIP3    H255284   0.082   2.899  14.699 -0.3677  1.6267  1.7922
11265TIP3   OH255285   1.220   0.232  13.076 -0.8725 -0.0239 -0.0187
11265TIP3    H155286   1.189   0.169  13.141 -1.3454 -1.5711 -1.7009
11265TIP3    H255287   1.142   0.257  13.027 -0.2513 -0.1857 -1.1121
11266TIP3   OH255288   0.592   4.088   5.845 -0.5079 -0.0420  0.0948
11266TIP3    H155289   0.498   4.070   5.835 -0.7448  1.8078 -1.2769
11266TIP3    H255290   0.635   4.021   5.792 -1.1368  0.2484 -0.7857
11267TIP3   OH255291   1.129   0.384  11.538  0.0452  0.5763 -0.0157
11267TIP3    H155292   1.196   0.439  11.578 -0.7885  0.2963  1.8070
11267TIP3    H255293   1.046   0.419  11.571 -0.5243 -1.2922  0.5972
11268TIP3   OH255294   3.911   1.209   5.000 -0.2720 -0.0032  0.0527
11268TIP3    H155295   3.973   1.279   4.980 -0.1662 -0.1482 -0.1321
11268TIP3    H255296   3.894   1.167   4.916 -1.3196  0.6000 -0.0309
11269TIP3   OH255297   1.855   3.715   6.471  0.0210 -0.0713 -0.1528
11269TIP3    H155298   1.814   3.671   6.545  1.0622  1.0599  1.1050
11269TIP3    H255299   1.909   3.783   6.510  0.4486  0.6525 -1.9611
11270TIP3   OH255300   3.628   2.758  13.494  0.5082 -0.4422 -0.5106
11270TIP3    H155301   3.610   2.832  13.435 -1.6344 -0.7634 -0.3075
11270TIP3    H255302   3.695   2.791  13.554  0.1085  1.0921 -0.8861
11271TIP3   OH255303   5.124   4.228   6.479  0.2990  0.5753 -0.3016
11271TIP3    H155304   5.217   4.246   6.468  0.6821  0.7143  2.7503
11271TIP3    H255305   5.108   4.149   6.427  2.3960 -0.1678  0.1576
11272TIP3   OH255306   0.090   6.272  17.092  0.1638  0.0852  0.4835
11272TIP3    H155307   0.009   6.305  17.053 -0.2151 -1.8926 -0.5082
11272TIP3    H255308   0.115   6.338  17.156 -1.9994  0.9318  0.4886
11273TIP3   OH255309   5.016   2.244   0.050 -0.1955 -0.0857  0.0426
11273TIP3    H155310   5.004   2.335   0.076  0.1115  0.2927 -1.0925
11273TIP3    H255311   4.930   2.216   0.019 -0.4694 -0.4173  1.0964
11274TIP3   OH255312   5.934   3.569  12.993 -0.1799  0.3335 -1.0623
11274TIP3    H155313   6.019   3.523  12.992 -0.6734 -0.5955 -0.9103
11274TIP3    H255314   5.894   3.547  12.909 -0.2770  0.7766 -1.1329
11275TIP3   OH255315   3.183   2.183  16.326  0.1398  0.2898  0.0980
11275TIP3    H155316   3.163   2.238  16.251 -1.9842 -1.3867 -0.6222
11275TIP3    H255317   3.274   2.202  16.346  0.0962  2.3965 -1.4975
11276TIP3   OH255318   2.238   1.735   5.130  0.2379  0.7843 -0.0886
11276TIP3    H155319   2.213   1.818   5.172 -0.5846  1.1829 -1.3468
11276TIP3    H255320   2.278   1.762   5.047 -1.6636 -0.1504 -1.3190
11277TIP3   OH255321   5.817   1.466   6.153 -0.0462 -0.0596  0.4634
11277TIP3    H155322   5.807   1.456   6.059  0.8290 -0.6456  0.4337
11277TIP3    H255323   5.752   1.406   6.191  0.1540 -0.4101  0.2444
11278TIP3   OH255324   2.884   0.652  11.247  0.5061 -0.0919 -0.0791
11278TIP3    H155325   2.948   0.586  11.218 -0.1046 -1.2729  1.2167
11278TIP3    H255326   2.889   0.720  11.180  2.4462 -0.6027 -0.5092
11279TIP3   OH255327   5.453   1.325   0.703 -0.1878  0.4236 -0.1422
11279TIP3    H155328   5.365   1.290   0.686 -0.7061  2.3794 -1.6778
11279TIP3    H255329   5.466   1.312   0.797 -2.2068  0.2789  0.1416
11280TIP3   OH255330   1.181   4.546   3.340  0.2966  0.4405  0.0729
11280TIP3    H155331   1.154   4.541   3.432  1.1372 -1.1913  0.2479
11280TIP3    H255332   1.234   4.468   3.326 -3.0096 -1.4564 -2.8534
11281TIP3   OH255333   2.287   3.580  16.215  0.0536  0.0154 -0.4552
11281TIP3    H155334   2.268   3.538  16.298 -1.7436  2.1646  0.2650
11281TIP3    H255335   2.226   3.540  16.153 -0.8153  0.6639 -0.0318
11282TIP3   OH255336   6.597   4.278  12.000 -0.2942  0.1042 -0.2045
11282TIP3    H155337   6.611   4.345  11.933  2.5507  0.0677  0.2992
11282TIP3    H255338   6.542   4.321  12.066 -0.1448  1.3041 -0.8538
11283TIP3   OH255339   0.048   0.212   1.690 -0.1999  0.3724 -0.1877
11283TIP3    H155340   0.081   0.302   1.688  0.2545  0.1878 -1.0167
11283TIP3    H255341  -0.045   0.221   1.711  0.1455  0.9542  1.1448
11284TIP3   OH255342   1.934   6.381   1.828  0.5354  0.7571  0.0570
11284TIP3    H155343   1.854   6.432   1.817  1.1224  1.7907  0.4627
11284TIP3    H255344   1.983   6.428   1.896  1.1262 -0.3083  0.3752
11285TIP3   OH255345   6.747   1.549  10.968 -0.5466 -0.2534  0.2609
11285TIP3    H155346   6.821   1.598  11.004 -0.5183  0.8194 -1.2062
11285TIP3    H255347   6.675   1.565  11.029  0.0639 -0.1749  0.9578
11286TIP3   OH255348   4.973   1.794   5.550 -0.1671 -0.2766  0.1583
11286TIP3    H155349   4.882   1.807   5.524  0.9331  1.3196 -3.1626
11286TIP3    H255350   5.007   1.729   5.489  1.1437 -0.2290  0.8243
11287TIP3   OH255351   2.137   0.216   0.678  0.7022 -0.2614  0.1333
11287TIP3    H155352   2.190   0.200   0.600 -0.0912  0.0920 -0.4842
11287TIP3    H255353   2.129   0.311   0.682 -1.2156 -0.3809 -0.6713
11288TIP3   OH255354   4.513   1.726   3.652  0.1248  0.2645  0.0451
11288TIP3    H155355   4.470   1.809   3.675 -0.3138  0.0324  0.0707
11288TIP3    H255356   4.510   1.674   3.732 -0.1951 -0.0271 -0.1544
11289TIP3   OH255357   1.034   1.610  16.886  0.3211  0.1405  0.3915
11289TIP3    H155358   1.125   1.600  16.857  0.5922  0.7850  1.0165
11289TIP3    H255359   1.033   1.572  16.974  0.2687  1.2518  0.8770
11290TIP3   OH255360   0.629   5.125   5.852 -0.5499  0.3226  0.3188
11290TIP3    H155361   0.680   5.137   5.771 -0.5880 -0.1738  0.2150
11290TIP3    H255362   0.675   5.177   5.917  0.4848 -0.6429  0.3835
11291TIP3   OH255363   0.839   1.620   5.552 -0.2067 -0.0152  0.3426
11291TIP3    H155364   0.905   1.622   5.482  0.9993 -0.9804  1.4298
11291TIP3    H255365   0.872   1.555   5.614 -1.7032  0.2045  1.3881
11292TIP3   OH255366   0.857   0.448   1.726 -0.4056  0.0049 -0.2992
11292TIP3    H155367   0.770   0.413   1.743  0.1825 -0.8140  1.1138
11292TIP3    H255368   0.904   0.377   1.681 -0.0782 -0.0166  0.0722
11293TIP3   OH255369   3.817   5.492  14.425 -0.0576 -0.1649 -0.7971
11293TIP3    H155370   3.734   5.508  14.381 -0.3200 -1.1459 -0.6685
11293TIP3    H255371   3.863   5.430  14.369  1.0304  1.1460 -1.3867
11294TIP3   OH255372   0.456   6.458  13.226  0.4071 -0.3212 -0.4836
11294TIP3    H155373   0.450   6.477  13.132  0.0395  0.3957 -0.3183
11294TIP3    H255374   0.365   6.456  13.256  0.4643 -1.7439 -0.3667
11295TIP3   OH255375   3.802   3.958   6.236  0.1945  0.2752  0.1914
11295TIP3    H155376   3.825   3.945   6.328  0.3922 -0.7608  0.0030
11295TIP3    H255377   3.882   3.993   6.197  1.2271 -2.4550 -0.2684
11296TIP3   OH255378   0.162   3.276  11.830 -0.1377 -0.2039  0.3474
11296TIP3    H155379   0.239   3.285  11.774 -0.2823 -0.8448  0.0405
11296TIP3    H255380   0.166   3.352  11.888  0.0792  0.4024 -0.4475
11297TIP3   OH255381   6.338   1.516  13.376 -0.5813 -0.3906  0.4034
11297TIP3    H155382   6.243   1.506  13.370 -0.3108 -2.2495 -1.2908
11297TIP3    H255383   6.363   1.469  13.456 -0.8171 -2.2048 -0.5638
11298TIP3   OH255384   2.003   1.070  15.741 -0.2028  0.3042  0.1951
11298TIP3    H155385   2.006   1.132  15.813 -1.0823  0.2149  0.3199
11298TIP3    H255386   1.915   1.032  15.746 -0.6506  1.0874 -1.5711
11299TIP3   OH255387   1.455   4.200  16.945 -0.0771 -0.6303  0.1766
11299TIP3    H155388   1.531   4.144  16.929  1.7447  1.4718  1.2073
11299TIP3    H255389   1.470   4.277  16.891 -1.9569 -0.5865 -0.3123
11300TIP3   OH255390   4.667   5.126   5.123  0.3974  0.3491 -0.4641
11300TIP3    H155391   4.634   5.211   5.092  3.0751  1.2427 -1.0233
11300TIP3    H255392   4.689   5.079   5.043  1.2792  0.1170 -0.0869
11301TIP3   OH255393   0.953   4.726  11.499 -0.1714 -0.0179  0.6498
11301TIP3    H155394   0.977   4.634  11.486  2.4297  0.9271 -1.6951
11301TIP3    H255395   0.902   4.749  11.421 -1.1492  0.4373  1.4121
11302TIP3   OH255396   3.558   2.675  17.014  0.0905  0.0485  0.2304
11302TIP3    H155397   3.585   2.711  16.930  0.1581  2.1272  1.0943
11302TIP3    H255398   3.469   2.644  17.000  1.5266 -3.4390 -1.6698
11303TIP3   OH255399   3.482   4.913  15.648 -0.1839  0.0132  0.2477
11303TIP3    H155400   3.500   4.987  15.591  1.1346 -0.1908  0.3813
11303TIP3    H255401   3.396   4.931  15.686 -0.8301  0.4156 -1.3733
11304TIP3   OH255402   6.577   6.415   3.200  0.2229  0.3316 -0.1555
11304TIP3    H155403   6.558   6.323   3.222 -1.7156  0.1964 -2.1538
11304TIP3    H255404   6.617   6.410   3.113  1.7109  1.2924  0.4505
11305TIP3   OH255405   6.669   5.106   4.531 -0.2223  1.0640 -0.0156
11305TIP3    H155406   6.632   5.023   4.563  3.0341 -0.3571  0.3640
11305TIP3    H255407   6.690   5.154   4.611  1.4121  0.5633 -0.1253
11306TIP3   OH255408   5.438   5.505  13.719  0.2006  0.2357  0.1006
11306TIP3    H155409   5.348   5.516  13.749  0.0228 -1.0997  0.0990
11306TIP3    H255410   5.441   5.415  13.685  0.7326  1.2236 -2.6237
11307TIP3   OH255411   0.079   1.066   6.633  0.1886  0.3080  0.0087
11307TIP3    H155412  -0.004   1.109   6.654  0.4806  0.3159  1.1682
11307TIP3    H255413   0.144   1.137   6.634  0.1686  0.3452 -1.1487
11308TIP3   OH255414   0.785   3.779   0.839  0.2773  0.0955 -0.1489
11308TIP3    H155415   0.751   3.856   0.883  0.4394 -0.0858  0.3021
11308TIP3    H255416   0.762   3.706   0.897  0.2148 -0.1824 -0.5199
11309TIP3   OH255417   0.426   3.823  13.148 -0.3417  0.1126  0.1625
11309TIP3    H155418   0.403   3.740  13.188  0.3667  0.4937  1.4044
11309TIP3    H255419   0.518   3.836  13.172  0.3153  0.0219 -2.1832
11310TIP3   OH255420   3.157   3.740   5.976  0.1839  0.1344 -0.2935
11310TIP3    H155421   3.131   3.648   5.981  0.3378  0.1442  0.8870
11310TIP3    H255422   3.105   3.783   6.045 -1.7968  1.4051 -2.4910
11311TIP3   OH255423   2.692   2.327  11.878  0.2101 -0.2481 -0.4964
11311TIP3    H155424   2.777   2.283  11.879 -0.3257 -1.3005  0.5990
11311TIP3    H255425   2.630   2.259  11.851 -0.7087 -0.3575  1.7172
11312TIP3   OH255426   4.649   2.065   3.320  0.3448  0.0942 -0.1476
11312TIP3    H155427   4.624   2.150   3.356 -1.1663 -0.1749 -0.5134
11312TIP3    H255428   4.572   2.010   3.334  1.1737 -1.1085 -0.2547
11313TIP3   OH255429   5.761   0.852   1.616 -0.2220  0.5412  0.3475
11313TIP3    H155430   5.822   0.902   1.670 -1.0104  0.0978  1.6608
11313TIP3    H255431   5.807   0.842   1.533  1.0917  1.0698  0.9846
11314TIP3   OH255432   6.094   3.047  14.449  0.1470 -0.1508 -0.3038
11314TIP3    H155433   6.098   3.143  14.450  1.0482 -0.0719 -4.1017
11314TIP3    H255434   6.000   3.027  14.450 -0.1157  0.8850 -2.1419
11315TIP3   OH255435   5.361   2.487  13.218  0.0200  0.1262  0.2408
11315TIP3    H155436   5.399   2.431  13.149  2.1581 -0.6228  1.9530
11315TIP3    H255437   5.271   2.503  13.189  0.5042 -1.1469 -2.1319
11316TIP3   OH255438   1.067   3.572   4.500  0.0029  0.3337 -0.4365
11316TIP3    H155439   1.070   3.656   4.547  0.5252 -0.1823  0.4675
11316TIP3    H255440   0.975   3.549   4.497  0.2148 -1.2529  3.2776
11317TIP3   OH255441   0.874   1.029   2.297  0.2838  0.0476 -0.5790
11317TIP3    H155442   0.903   1.101   2.353 -0.9829  0.1529 -0.0422
11317TIP3    H255443   0.866   0.954   2.356  0.5997 -0.2779 -0.9422
11318TIP3   OH255444   5.545   2.854   0.434  0.1308  0.1558  0.8478
11318TIP3    H155445   5.493   2.934   0.433  0.0233  0.1246 -1.9029
11318TIP3    H255446   5.631   2.880   0.402 -0.1303 -0.8948 -0.8373
11319TIP3   OH255447   6.721   1.758   3.378  0.1558 -0.2103 -0.1803
11319TIP3    H155448   6.796   1.816   3.388 -0.4422  0.4694  0.4021
11319TIP3    H255449   6.708   1.720   3.465 -1.0537  0.7633  0.0763
11320TIP3   OH255450   2.619   0.850   0.586  0.1971 -0.2777 -0.4018
11320TIP3    H155451   2.685   0.799   0.538 -1.3359 -2.0513 -0.7166
11320TIP3    H255452   2.584   0.911   0.521 -0.9581 -1.7842 -1.2399
11321TIP3   OH255453   4.999   5.999  16.338 -0.4562  0.1405 -0.8407
11321TIP3    H155454   4.930   5.990  16.404  0.0313 -2.1166 -0.5873
11321TIP3    H255455   5.038   6.085  16.355 -0.1807 -0.4959  1.9857
11322TIP3   OH255456   0.399   4.603   4.641 -0.1095 -0.3050  0.1769
11322TIP3    H155457   0.408   4.697   4.625  0.4941 -0.3710  0.0874
11322TIP3    H255458   0.394   4.596   4.736  0.0990 -0.1979  0.1974
11323TIP3   OH255459   5.044   1.753  16.519 -0.3741  0.1801  0.1696
11323TIP3    H155460   5.054   1.818  16.449  0.0646 -0.5345 -0.4390
11323TIP3    H255461   5.057   1.669  16.475  0.9379 -0.2296  1.3131
11324TIP3   OH255462   5.062   6.381   3.094 -0.4959 -0.2852 -0.3743
11324TIP3    H155463   5.011   6.305   3.065 -1.3198 -0.5922  1.7462
11324TIP3    H255464   5.152   6.360   3.071 -0.9007 -1.2409 -1.1345
11325TIP3   OH255465   3.547   3.171   3.152 -0.0056 -0.3862 -0.4627
11325TIP3    H155466   3.519   3.260   3.175  0.9096  0.4036 -2.3110
11325TIP3    H255467   3.471   3.116   3.172 -1.3770  1.1225 -1.3660
11326TIP3   OH255468   3.554   1.782   5.627  0.0921 -0.0303 -0.3877
11326TIP3    H155469   3.578   1.862   5.580  0.2631  1.0804  1.5156
11326TIP3    H255470   3.637   1.735   5.637  0.2937  0.3935 -0.0201
11327TIP3   OH255471   2.459   0.091  13.187  0.0974 -0.7370  0.6469
11327TIP3    H155472   2.524   0.093  13.257  0.8221 -2.3771  0.0461
11327TIP3    H255473   2.383   0.048  13.227 -0.8449  1.6366  1.5021
11328TIP3   OH255474   4.850   3.051   3.915  0.7748 -0.4927  0.4132
11328TIP3    H155475   4.846   3.068   3.821  4.2020 -1.7076 -0.0258
11328TIP3    H255476   4.781   3.105   3.952 -1.0602 -0.4523 -2.8492
11329TIP3   OH255477   4.801   6.591  11.721  0.3529  0.0900  0.4384
11329TIP3    H155478   4.769   6.667  11.671 -0.0876 -0.5038 -0.1846
11329TIP3    H255479   4.733   6.525  11.710  1.1757 -0.7218  0.2140
11330TIP3   OH255480   0.040   3.448   4.232  0.1005  0.0545  0.2387
11330TIP3    H155481   0.077   3.536   4.239  0.7522 -0.0665 -1.3736
11330TIP3    H255482  -0.026   3.455   4.162  2.9525 -1.5907 -2.7858
11331TIP3   OH255483   4.143   3.363  13.348  0.4525  0.9688  0.0675
11331TIP3    H155484   4.176   3.273  13.345 -1.2835  0.3262  0.0099
11331TIP3    H255485   4.175   3.397  13.432 -1.4932 -0.7521  1.5574
11332TIP3   OH255486   3.808   6.709  16.312 -0.1248 -0.3872 -0.2970
11332TIP3    H155487   3.716   6.711  16.287 -0.2710  0.9220  0.3153
11332TIP3    H255488   3.822   6.792  16.358  0.7042 -1.7068  1.9280
11333TIP3   OH255489   6.131   1.462   3.464  0.2504 -0.4555  0.2249
11333TIP3    H155490   6.186   1.406   3.519  1.5516 -0.6895 -1.2666
11333TIP3    H255491   6.066   1.498   3.524  1.5361 -0.8167  1.8866
11334TIP3   OH255492   2.979   4.105  12.352  0.6722  0.3669 -0.4202
11334TIP3    H155493   3.035   4.060  12.415 -0.5291  0.3225  0.6377
11334TIP3    H255494   2.984   4.197  12.377  0.0249  0.3234 -0.1334
11335TIP3   OH255495   5.327   5.154   5.967 -0.3739 -0.6372  0.2135
11335TIP3    H155496   5.422   5.148   5.953 -0.3708  3.7511 -2.9399
11335TIP3    H255497   5.289   5.127   5.883 -1.5902  2.8412 -0.4271
11336TIP3   OH255498   3.205   2.111   5.874  0.5115  0.1477 -0.4787
11336TIP3    H155499   3.199   2.198   5.913 -0.7382 -0.4686  0.8009
11336TIP3    H255500   3.161   2.054   5.938  0.8280 -1.3239 -1.5482
11337TIP3   OH255501   3.304   4.089   1.314 -0.5502  0.1293  0.0143
11337TIP3    H155502   3.253   4.056   1.240  1.4605  4.0992 -3.3231
11337TIP3    H255503   3.260   4.169   1.341 -0.2946 -0.3846  2.0889
11338TIP3   OH255504   2.556   6.579   1.840  0.0812  0.4409 -0.1185
11338TIP3    H155505   2.488   6.634   1.799  0.5674 -0.8120 -2.6862
11338TIP3    H255506   2.536   6.490   1.810  1.3440 -0.3119  1.2258
11339TIP3   OH255507   5.269   0.662   0.659 -0.1735  0.4190  0.2338
11339TIP3    H155508   5.346   0.689   0.709 -1.4423  0.7681  2.0615
11339TIP3    H255509   5.250   0.573   0.689 -0.7442  0.4983  0.1268
11340TIP3   OH255510   4.136   5.811   1.174  0.2715  0.1862 -0.2167
11340TIP3    H155511   4.113   5.904   1.164  1.2186  0.4005 -0.5098
11340TIP3    H255512   4.147   5.800   1.269 -0.7963  0.1350 -0.0964
11341TIP3   OH255513   6.253   1.784   2.110  0.2934 -0.3809 -0.2536
11341TIP3    H155514   6.269   1.807   2.019 -0.3661 -0.6220 -0.4274
11341TIP3    H255515   6.221   1.865   2.150  0.6363 -0.2602 -0.2193
11342TIP3   OH255516   2.265   5.665  12.763 -0.2581  0.3171 -0.1578
11342TIP3    H155517   2.256   5.647  12.669 -2.1038  0.1381  0.0333
11342TIP3    H255518   2.348   5.713  12.771  0.5524 -0.7951 -1.7139
11343TIP3   OH255519   5.972   6.239   5.971  0.2345  0.5552 -0.3568
11343TIP3    H155520   6.055   6.276   6.003 -0.6999  1.4507  1.1035
11343TIP3    H255521   5.963   6.157   6.019  0.5496  0.1713 -0.9470
11344TIP3   OH255522   5.836   0.458   5.324  0.3313  0.4259  0.0444
11344TIP3    H155523   5.868   0.500   5.244 -0.3848  0.9887  0.0492
11344TIP3    H255524   5.882   0.503   5.395  2.1563 -1.1519 -0.1333
11345TIP3   OH255525   2.088   6.350  12.053 -0.2242 -0.2324  1.2767
11345TIP3    H155526   2.033   6.393  12.118 -2.4433  1.1794 -1.3826
11345TIP3    H255527   2.034   6.276  12.022 -0.2488  0.5478 -0.6278
11346TIP3   OH255528   3.788   3.136   2.587 -0.0739  0.2945 -0.0123
11346TIP3    H155529   3.882   3.150   2.576 -0.1404  0.1552 -0.7385
11346TIP3    H255530   3.761   3.090   2.508 -0.8968  1.0010 -0.1411
11347TIP3   OH255531   5.988   1.531   1.803  0.9460 -0.1527 -1.0188
11347TIP3    H155532   6.044   1.511   1.729  0.3069 -1.0130 -1.2810
11347TIP3    H255533   5.955   1.446   1.832  0.4962  0.2582 -0.3051
11348TIP3   OH255534   6.479   2.114  15.896 -0.4764  0.2841  0.1234
11348TIP3    H155535   6.493   2.021  15.876 -1.1520 -0.3684  2.5062
11348TIP3    H255536   6.555   2.138  15.949 -0.8629  0.7860  0.4470
11349TIP3   OH255537   4.268   4.124  15.092 -0.1899 -0.7193  0.4444
11349TIP3    H155538   4.307   4.046  15.131  0.9140 -0.7904 -0.7662
11349TIP3    H255539   4.304   4.197  15.142 -0.5570 -0.9224  1.0187
11350TIP3   OH255540   1.426   5.054   1.227  0.1445 -0.1851  0.2943
11350TIP3    H155541   1.358   5.040   1.292  0.0910 -0.9514  0.0727
11350TIP3    H255542   1.440   4.969   1.187 -0.0039  0.3202 -0.8687
11351TIP3   OH255543   1.524   1.328  16.403 -0.2459 -0.8182  0.1295
11351TIP3    H155544   1.588   1.257  16.412  0.7890 -0.2932 -2.5408
11351TIP3    H255545   1.549   1.391  16.470  1.6270 -0.9513 -0.4126
11352TIP3   OH255546   1.099   3.720   5.665 -0.5083  0.1313 -0.1868
11352TIP3    H155547   1.145   3.794   5.704  0.6670 -1.3377  1.2720
11352TIP3    H255548   1.008   3.750   5.658  0.1806  2.1636 -0.8079
11353TIP3   OH255549   1.438   2.993   4.793  0.6010  0.1421  0.0138
11353TIP3    H155550   1.370   2.998   4.861  0.6996  0.1953  0.1074
11353TIP3    H255551   1.518   2.972   4.841  0.0144 -3.5080 -0.4452
11354TIP3   OH255552   5.588   6.425   0.711  0.0951  0.0684 -0.1962
11354TIP3    H155553   5.519   6.396   0.652 -0.1003  0.6542 -0.2616
11354TIP3    H255554   5.622   6.345   0.749  0.3982 -0.3318 -1.2969
11355TIP3   OH255555   5.539   3.884   1.089  0.0918 -0.1447 -0.3078
11355TIP3    H155556   5.446   3.898   1.104  0.4862  0.1980  2.0951
11355TIP3    H255557   5.574   3.971   1.072 -0.1646 -0.3950 -2.2300
11356TIP3   OH255558   0.650   1.380   2.258 -0.4137 -0.1011 -0.3611
11356TIP3    H155559   0.740   1.350   2.242 -0.6856 -0.8021 -0.6153
11356TIP3    H255560   0.625   1.425   2.178 -1.1311 -2.0178 -1.2568
11357TIP3   OH255561   1.309   5.236  15.343 -0.1812 -0.3670  0.0407
11357TIP3    H155562   1.272   5.162  15.392 -0.3038  0.0737  0.6236
11357TIP3    H255563   1.401   5.240  15.371  0.0928 -0.9305 -0.7611
11358TIP3   OH255564   6.547   6.616  10.811 -0.2306 -0.2418 -0.5129
11358TIP3    H155565   6.575   6.650  10.726 -1.3491  0.4933 -0.6082
11358TIP3    H255566   6.627   6.614  10.863  0.3895 -0.2766 -1.4448
11359TIP3   OH255567   3.170   5.252  11.955  0.5627  0.1733 -0.3620
11359TIP3    H155568   3.094   5.308  11.942 -0.0381 -0.5135  0.1726
11359TIP3    H255569   3.245   5.309  11.939  0.0083  1.6331  2.0437
11360TIP3   OH255570   6.727   3.608  13.430 -0.4807 -0.4806 -0.1116
11360TIP3    H155571   6.805   3.643  13.388 -0.1597 -1.6216 -0.4900
11360TIP3    H255572   6.680   3.562  13.360 -1.2370 -0.2369  0.2255
11361TIP3   OH255573   0.532   6.820  11.227  0.3091 -0.4919  0.1708
11361TIP3    H155574   0.576   6.768  11.294  0.4361 -0.1755  0.3330
11361TIP3    H255575   0.602   6.842  11.165 -0.1432 -2.2647 -0.9967
11362TIP3   OH255576   4.669   5.216  16.780 -0.1341  0.7699 -0.2836
11362TIP3    H155577   4.701   5.133  16.745  0.1851  0.4869  0.6759
11362TIP3    H255578   4.596   5.240  16.722  1.7819  1.4144 -2.5154
11363TIP3   OH255579   3.497   0.163  15.337 -0.2220 -0.7730 -0.3796
11363TIP3    H155580   3.515   0.251  15.306 -1.6722  0.4338  2.0961
11363TIP3    H255581   3.578   0.114  15.319  1.0708  1.3705 -0.5342
11364TIP3   OH255582   1.806   1.657   5.628  0.0664  0.6212  0.0544
11364TIP3    H155583   1.757   1.717   5.572 -0.1256  0.6135  0.2141
11364TIP3    H255584   1.829   1.584   5.571  0.7832  1.1078 -0.2845
11365TIP3   OH255585   6.274   6.643   4.140  0.0857 -0.1146 -0.3123
11365TIP3    H155586   6.189   6.666   4.102  0.7152  1.9565 -0.5516
11365TIP3    H255587   6.254   6.573   4.203 -1.6055 -0.4796 -1.2265
11366TIP3   OH255588   0.886   2.101  15.995 -0.3963 -0.0487 -0.2055
11366TIP3    H155589   0.812   2.115  16.053  0.1099  0.8211  0.2328
11366TIP3    H255590   0.952   2.164  16.023  0.8971 -1.4864  0.0533
11367TIP3   OH255591   1.611   3.052  16.093  0.6999  0.5188 -0.6101
11367TIP3    H155592   1.569   3.102  16.164  1.0058  0.0582 -0.1023
11367TIP3    H255593   1.607   3.111  16.018  0.5370  1.0880 -0.1685
11368TIP3   OH255594   1.974   0.349  11.777  0.0876  0.4026 -0.8149
11368TIP3    H155595   1.921   0.326  11.853  0.1147  0.0680 -0.8986
11368TIP3    H255596   2.024   0.270  11.757  0.7144  0.7589 -0.6560
11369TIP3   OH255597   3.241   1.604  10.981 -0.1976  0.2187  0.1900
11369TIP3    H155598   3.165   1.607  10.922  0.7933  0.0715 -1.1107
11369TIP3    H255599   3.289   1.685  10.962  1.1576 -0.7620 -0.5991
11370TIP3   OH255600   4.647   4.402  13.684 -0.0978 -0.0635  0.2800
11370TIP3    H155601   4.603   4.472  13.734  1.4729  1.8503 -0.9237
11370TIP3    H255602   4.688   4.347  13.751 -2.5953 -0.7438  1.3266
11371TIP3   OH255603   3.273   4.561   4.592 -0.1922  0.5219 -0.0422
11371TIP3    H155604   3.244   4.614   4.518  0.7567 -0.3766 -1.0654
11371TIP3    H255605   3.335   4.618   4.639 -0.7623  1.0768  0.0463
11372TIP3   OH255606   1.318   1.912   5.222 -0.1218 -0.5244 -0.0439
11372TIP3    H155607   1.278   1.841   5.172 -0.6675 -0.7192  0.6521
11372TIP3    H255608   1.271   1.991   5.195 -2.5604 -1.0449  2.3710
11373TIP3   OH255609   3.513   4.686   4.021  0.2583  0.0947 -0.2630
11373TIP3    H155610   3.434   4.645   3.985  0.1488  0.3918 -0.3682
11373TIP3    H255611   3.560   4.615   4.063  0.1716 -0.1793 -0.6233
11374TIP3   OH255612   5.931   1.579  17.070  0.1563 -0.4602  0.2638
11374TIP3    H155613   5.969   1.614  17.151  0.7300  1.0028 -0.6250
11374TIP3    H255614   5.844   1.550  17.096  1.5356 -3.0634  2.1239
11375TIP3   OH255615   0.034   2.444   5.607 -0.9661  0.2946 -0.0194
11375TIP3    H155616   0.025   2.536   5.632  0.8617  0.9926 -1.8722
11375TIP3    H255617   0.103   2.411   5.664 -0.7900  0.3879 -0.1783
11376TIP3   OH255618   3.807   1.443   1.643 -0.4442  0.1886 -0.7221
11376TIP3    H155619   3.773   1.395   1.719 -0.4145  1.0853 -0.1386
11376TIP3    H255620   3.900   1.452   1.660 -0.4351  0.3784 -0.8803
11377TIP3   OH255621   3.685   0.513   5.343  0.2428  0.5828 -0.1192
11377TIP3    H155622   3.633   0.543   5.269  0.3785  1.0940 -0.0125
11377TIP3    H255623   3.627   0.455   5.392  1.3574 -2.7744 -2.6556
11378TIP3   OH255624   3.590   2.368  16.951  0.4091 -0.2370  0.3722
11378TIP3    H155625   3.538   2.444  16.928  1.8059  0.7222  0.3342
11378TIP3    H255626   3.626   2.389  17.038 -1.7328 -2.1963  1.8137
11379TIP3   OH255627   3.393   5.641  12.885  0.4174  0.1596 -0.0060
11379TIP3    H155628   3.465   5.584  12.910 -1.4174 -3.1013 -1.7591
11379TIP3    H255629   3.343   5.653  12.966  2.3738  1.6847  1.0095
11380TIP3   OH255630   6.224   5.611  14.436 -0.3183  0.1006  0.2543
11380TIP3    H155631   6.173   5.599  14.516  0.4391 -0.2639  0.6865
11380TIP3    H255632   6.193   5.542  14.378  0.0849 -0.4877  0.7266
11381TIP3   OH255633   6.407   3.612   3.168 -0.2374 -0.0594  0.2782
11381TIP3    H155634   6.389   3.680   3.104 -2.1512 -0.3826  0.4385
11381TIP3    H255635   6.470   3.554   3.126  0.6652  1.2676 -0.2207
11382TIP3   OH255636   3.751   2.086  11.314 -0.5745 -0.3535 -0.0174
11382TIP3    H155637   3.699   2.007  11.320 -2.1923  0.7441  0.8015
11382TIP3    H255638   3.791   2.083  11.227 -0.5795 -2.0641  0.0314
11383TIP3   OH255639   3.172   6.655  13.836  0.0990  0.2401 -0.1931
11383TIP3    H155640   3.086   6.665  13.794  1.3339  1.8761 -2.4393
11383TIP3    H255641   3.232   6.705  13.780  2.4149 -0.3493  1.6915
11384TIP3   OH255642   0.953   0.193  13.860 -0.2458  0.1598  0.0667
11384TIP3    H155643   1.034   0.145  13.843 -0.9583 -0.5632 -1.3333
11384TIP3    H255644   0.902   0.134  13.915 -1.1182 -0.7013 -1.6468
11385TIP3   OH255645   1.116   1.297   2.964  0.1543  0.1003 -0.0531
11385TIP3    H155646   1.192   1.331   3.012 -1.0630  0.3259  1.7592
11385TIP3    H255647   1.080   1.372   2.918  0.5143  0.1707 -0.2226
11386TIP3   OH255648   1.909   5.431   2.223  0.0447  0.4649 -0.2404
11386TIP3    H155649   1.933   5.453   2.133  1.7034 -0.0755  0.0450
11386TIP3    H255650   1.942   5.341   2.235 -2.5637 -0.5036  0.0514
11387TIP3   OH255651   5.319   3.058   0.097  0.4360 -0.8035  0.1711
11387TIP3    H155652   5.412   3.052   0.075  0.2613 -1.6977 -0.3506
11387TIP3    H255653   5.297   2.971   0.131  0.1867 -0.0865  1.9232
11388TIP3   OH255654   1.996   5.549  14.295  0.7342  0.5361  0.1064
11388TIP3    H155655   2.020   5.471  14.345 -0.0979  0.0399 -0.2526
11388TIP3    H255656   2.039   5.538  14.211 -0.4574 -0.1938 -0.4209
11389TIP3   OH255657   5.984   1.141  14.231  0.1358  0.3700  0.3561
11389TIP3    H155658   5.926   1.079  14.187 -0.0355  0.3824  0.5636
11389TIP3    H255659   6.010   1.202  14.162  2.3940 -1.4460 -0.4651
11390TIP3   OH255660   5.163   2.191  16.844 -0.8704 -0.1687 -0.2671
11390TIP3    H155661   5.077   2.218  16.811 -0.4584  0.9180 -0.4951
11390TIP3    H255662   5.225   2.241  16.792 -0.1161 -0.4788  0.3216
11391TIP3   OH255663   1.113   3.162   3.494 -0.0416  0.2175 -0.5381
11391TIP3    H155664   1.112   3.083   3.439 -1.4001  0.1197 -0.3820
11391TIP3    H255665   1.183   3.215   3.457 -0.3779 -0.2188 -1.8504
11392TIP3   OH255666   4.937   6.101  12.746  0.1960 -0.2517 -0.2749
11392TIP3    H155667   5.017   6.095  12.693  2.2278  1.6368  2.4509
11392TIP3    H255668   4.951   6.177  12.802 -4.5921  1.6107 -1.3708
11393TIP3   OH255669   2.261   4.455  14.898  0.7250  0.1420  0.3254
11393TIP3    H155670   2.244   4.497  14.813 -1.7463  0.0840  0.7561
11393TIP3    H255671   2.231   4.519  14.963  1.2944 -0.3924  1.1238
11394TIP3   OH255672   6.044   5.282  14.304 -0.1583 -0.3151 -0.2612
11394TIP3    H155673   5.964   5.238  14.277 -0.0845 -0.5229 -0.1421
11394TIP3    H255674   6.019   5.374  14.315 -0.5172 -0.4877  0.3648
11395TIP3   OH255675   1.168   2.389   4.005  0.3545 -0.0822 -0.3721
11395TIP3    H155676   1.192   2.473   4.045  1.2703 -0.7998  0.6149
11395TIP3    H255677   1.129   2.338   4.076  0.4237 -0.7381 -0.7985
11396TIP3   OH255678   4.526   4.776   0.002  1.0053  0.1038 -0.1380
11396TIP3    H155679   4.465   4.836  -0.041  0.9891 -0.7329 -1.3057
11396TIP3    H255680   4.470   4.710   0.043  1.1010 -0.7362 -1.3158
11397TIP3   OH255681   1.968   4.108   1.019 -0.3269 -0.4903  0.3448
11397TIP3    H155682   1.895   4.107   0.958 -0.5926  1.0444  0.6281
11397TIP3    H255683   2.047   4.112   0.964 -0.5395  0.2212  0.0970
11398TIP3   OH255684   5.327   1.921  14.934 -0.6957  0.1879 -0.1072
11398TIP3    H155685   5.243   1.943  14.973  0.2029  2.3231  0.6816
11398TIP3    H255686   5.305   1.889  14.846 -2.3522  0.1416  0.3078
11399TIP3   OH255687   3.333   4.198   3.429 -0.2808  0.1730  0.5707
11399TIP3    H155688   3.263   4.136   3.407 -0.3868 -0.3442  2.2416
11399TIP3    H255689   3.299   4.283   3.402  0.2336 -0.5912 -2.5888
11400TIP3   OH255690   1.860   5.255   4.422 -0.0553  0.3914 -0.6495
11400TIP3    H155691   1.776   5.233   4.463 -0.3343  0.3154 -1.2542
11400TIP3    H255692   1.884   5.175   4.375  0.4088  0.3787 -0.3874
11401TIP3   OH255693   6.581   0.464  16.427 -1.1840  0.4623 -0.6663
11401TIP3    H155694   6.650   0.416  16.382  0.3158  1.4636  0.5134
11401TIP3    H255695   6.542   0.400  16.487  0.1322  0.4373  0.1755
11402TIP3   OH255696   0.600   4.004  16.682 -0.2581  0.3503  0.4058
11402TIP3    H155697   0.514   4.021  16.719 -1.0386 -1.0509 -0.7310
11402TIP3    H255698   0.585   3.938  16.614  1.6768  0.2081  0.0791
11403TIP3   OH255699   4.422   5.553   0.118  0.2726  0.1809 -0.4063
11403TIP3    H155700   4.482   5.556   0.193 -0.7903  1.8072  0.3953
11403TIP3    H255701   4.362   5.481   0.138 -0.0770  0.6851  0.3485
11404TIP3   OH255702   0.976   4.934   1.479 -0.0531  0.4528 -0.2058
11404TIP3    H155703   0.953   4.944   1.386  0.4975 -0.6627 -0.4723
11404TIP3    H255704   1.066   4.966   1.484 -0.2499  0.9770  0.0492
11405TIP3   OH255705   0.068   4.671   4.892  0.6305 -0.3073 -0.0958
11405TIP3    H155706   0.017   4.718   4.826  0.2710 -1.9090 -0.9725
11405TIP3    H255707   0.013   4.673   4.970  0.6359  0.7514 -0.1022
11406TIP3   OH255708   6.113   6.246  14.989  0.1053  0.2176 -0.5955
11406TIP3    H155709   6.152   6.227  14.904  0.1720 -1.7612 -0.1479
11406TIP3    H255710   6.022   6.216  14.981  0.5560 -1.5193  0.5391
11407TIP3   OH255711   1.292   5.414  11.620 -0.2011 -0.2489  0.7031
11407TIP3    H155712   1.365   5.363  11.654  0.8518  1.2385  0.6933
11407TIP3    H255713   1.214   5.372  11.657  0.7109 -1.1568  1.6164
11408TIP3   OH255714   2.818   6.729   4.853 -0.1934  0.1762  0.0069
11408TIP3    H155715   2.833   6.823   4.844 -1.5154  0.3823 -0.0645
11408TIP3    H255716   2.755   6.721   4.925  1.0030 -0.7471  0.9792
11409TIP3   OH255717   2.464   6.038  12.372 -0.3922 -0.1987 -0.0706
11409TIP3    H155718   2.418   6.120  12.391  0.7146  1.1141 -2.8433
11409TIP3    H255719   2.395   5.979  12.339 -0.5918  0.8523 -1.5776
11410TIP3   OH255720   3.472   6.415  17.140 -0.0808  0.3210 -0.9837
11410TIP3    H155721   3.483   6.502  17.177  0.1345 -0.4936  0.9687
11410TIP3    H255722   3.381   6.412  17.110 -1.1222  0.1390  2.0087
11411TIP3   OH255723   0.336   2.486  16.361 -0.0204  0.2694 -0.1393
11411TIP3    H155724   0.363   2.578  16.352  1.6122  0.0618  2.0246
11411TIP3    H255725   0.276   2.486  16.435  1.0010 -0.5623  0.7107
11412TIP3   OH255726   0.229   3.240   4.249  0.3935  0.0869 -0.2766
11412TIP3    H155727   0.182   3.160   4.225 -0.8660  1.0417 -1.0306
11412TIP3    H255728   0.163   3.309   4.246  1.2309  0.9906  1.4486
11413TIP3   OH255729   1.463   2.655  15.390 -0.4156  0.4534 -0.3114
11413TIP3    H155730   1.466   2.741  15.349 -0.6161  1.2820  1.3474
11413TIP3    H255731   1.449   2.674  15.483  3.4779 -1.1916  0.7103
11414TIP3   OH255732   2.884   2.132   5.461  0.2205  0.0654 -0.0975
11414TIP3    H155733   2.897   2.108   5.553 -3.4657 -0.3016  0.4246
11414TIP3    H255734   2.897   2.227   5.459  2.0750 -0.1681  0.4417
11415TIP3   OH255735   5.532   2.160   3.198 -0.3444  0.1863  0.2684
11415TIP3    H155736   5.520   2.217   3.123  3.8681 -0.3836 -0.9264
11415TIP3    H255737   5.511   2.072   3.166  1.0668 -0.0023 -0.1656
11416TIP3   OH255738   3.966   5.726   5.985  0.3338 -0.4681 -0.0938
11416TIP3    H155739   3.918   5.719   6.067 -0.1973 -0.4736 -0.3987
11416TIP3    H255740   3.935   5.652   5.933  0.4068 -0.2671 -0.4240
11417TIP3   OH255741   4.941   0.769  11.064  0.2216 -0.4026  0.3063
11417TIP3    H155742   4.854   0.805  11.052  0.7869  1.6827  2.1436
11417TIP3    H255743   4.993   0.805  10.992  0.1663  0.4288  0.6769
11418TIP3   OH255744   6.769   2.198   6.273 -0.2939  0.3324 -0.1953
11418TIP3    H155745   6.789   2.195   6.179 -0.8350  2.3928 -0.3842
11418TIP3    H255746   6.818   2.273   6.306 -1.0570  0.3378  0.9566
11419TIP3   OH255747   6.616   0.963  11.811 -0.3724  0.1391  0.0848
11419TIP3    H155748   6.671   0.914  11.872 -0.0521  0.8903  0.4128
11419TIP3    H255749   6.609   0.907  11.734  1.7234  0.4833 -0.3915
11420TIP3   OH255750   2.150   1.614  14.263 -0.0838 -0.5453  0.3674
11420TIP3    H155751   2.116   1.701  14.286 -1.8475 -1.4396  1.2913
11420TIP3    H255752   2.169   1.619  14.170  1.8027  1.4522  0.8253
11421TIP3   OH255753   4.489   4.812   3.485 -0.5481  0.1213  0.3231
11421TIP3    H155754   4.474   4.890   3.431  0.8853 -0.1521 -0.5073
11421TIP3    H255755   4.505   4.742   3.421  0.7567 -0.2884  1.0907
11422TIP3   OH255756   1.517   5.830   1.753 -0.0469  0.1152  0.3107
11422TIP3    H155757   1.484   5.818   1.664 -1.3290 -1.3744  0.9527
11422TIP3    H255758   1.454   5.889   1.794 -1.4240 -1.9025  1.2216
11423TIP3   OH255759   5.105   2.570  12.078 -0.2864  0.1373 -0.3428
11423TIP3    H155760   5.123   2.651  12.030 -0.1120  0.1068 -0.3301
11423TIP3    H255761   5.071   2.510  12.012 -0.8248  0.3595 -0.2691
11424TIP3   OH255762   1.747   1.324  11.334 -0.1541 -0.0075  0.0032
11424TIP3    H155763   1.757   1.419  11.340 -1.1854 -0.0084  2.0155
11424TIP3    H255764   1.710   1.310  11.247 -0.3044  1.4660 -0.1856
11425TIP3   OH255765   2.305   6.761  13.940  0.0116 -0.4427  0.2558
11425TIP3    H155766   2.219   6.770  13.900 -0.1325  2.7899  1.2161
11425TIP3    H255767   2.287   6.744  14.032  0.3677  1.0417  0.6138
11426TIP3   OH255768   4.532   3.187  16.177 -0.0562 -0.7278  0.0604
11426TIP3    H155769   4.601   3.181  16.111 -0.9754 -0.0273 -0.9951
11426TIP3    H255770   4.506   3.096  16.192  0.1223 -0.8892 -0.5844
11427TIP3   OH255771   3.735   6.811  12.752 -0.0821  0.1874  0.5370
11427TIP3    H155772   3.666   6.747  12.734 -0.5627  0.8306  0.0692
11427TIP3    H255773   3.758   6.797  12.844  0.9258 -1.7219  0.0261
11428TIP3   OH255774   5.943   1.282   2.600 -0.3831  0.4826  0.1180
11428TIP3    H155775   5.874   1.348   2.593  1.2850  2.2398 -0.1616
11428TIP3    H255776   5.965   1.281   2.693 -0.2486  0.4939  0.0863
11429TIP3   OH255777   5.730   5.315   5.945  0.4034  0.3576 -0.2215
11429TIP3    H155778   5.722   5.348   5.855  1.7896 -2.6396 -1.5039
11429TIP3    H255779   5.819   5.340   5.971  0.5412 -0.1005 -0.2512
11430TIP3   OH255780   2.160   5.352   4.641 -0.2670  0.2892 -0.2951
11430TIP3    H155781   2.134   5.284   4.579 -2.2451  0.2908  0.5046
11430TIP3    H255782   2.181   5.427   4.586  0.4584 -0.4836 -1.0953
11431TIP3   OH255783   4.004   1.527  13.479 -0.1503  0.2844  0.4502
11431TIP3    H155784   4.088   1.557  13.445 -0.1435 -0.7767 -0.4954
11431TIP3    H255785   3.940   1.590  13.444  0.1392  0.5655  0.4252
11432TIP3   OH255786   0.619   4.642  15.909 -0.4827  0.3210 -0.4077
11432TIP3    H155787   0.635   4.711  15.972 -0.0668 -1.1842  1.1831
11432TIP3    H255788   0.546   4.674  15.856 -1.0508  1.4856  1.0471
11433TIP3   OH255789   3.266   1.026  16.529 -0.3194 -0.0512 -0.5857
11433TIP3    H155790   3.288   1.047  16.438 -1.8621  1.0044 -0.7329
11433TIP3    H255791   3.337   0.969  16.559  0.7311  0.4406 -2.1272
11434TIP3   OH255792   1.935   6.126   1.051  0.1617 -0.5512 -0.3508
11434TIP3    H155793   1.847   6.097   1.028 -0.2597  2.4815 -2.7519
11434TIP3    H255794   1.923   6.183   1.127  0.1938 -0.9967 -0.0085
11435TIP3   OH255795   6.616   5.468  13.496  0.4593  0.4228  0.5558
11435TIP3    H155796   6.560   5.514  13.433 -0.3693 -1.0604  0.1932
11435TIP3    H255797   6.644   5.389  13.449 -0.2677 -0.7656  2.0917
11436TIP3   OH255798   2.153   0.829  15.923  0.6171  0.3054  0.1282
11436TIP3    H155799   2.069   0.803  15.962  1.0768 -1.5646 -0.0640
11436TIP3    H255800   2.163   0.921  15.947 -1.7523  0.7222 -0.3024
11437TIP3   OH255801   4.519   4.863  11.066 -0.5447  0.1111 -0.1430
11437TIP3    H155802   4.462   4.935  11.092 -1.0195 -0.8357  1.5404
11437TIP3    H255803   4.483   4.832  10.983 -0.4588  1.6580 -0.7669
11438TIP3   OH255804   4.581   3.003   3.790 -0.0716  0.0560 -0.6159
11438TIP3    H155805   4.568   2.964   3.876 -0.5026 -0.3041 -0.8350
11438TIP3    H255806   4.674   2.989   3.770  0.2360  0.9511  0.1720
11439TIP3   OH255807   3.277   2.346  13.574  0.2364 -0.1096  0.0222
11439TIP3    H155808   3.316   2.371  13.658  0.0058 -0.9425  0.3791
11439TIP3    H255809   3.337   2.279  13.539 -1.0275 -1.6252  0.7191
11440TIP3   OH255810   0.681   0.504  12.288  0.2561  0.3240 -0.2064
11440TIP3    H155811   0.660   0.597  12.296  1.6124  0.6174  0.1587
11440TIP3    H255812   0.597   0.461  12.273 -0.5930  1.4148  1.3263
11441TIP3   OH255813   2.482   5.776   6.156  0.0227  0.0440 -0.3095
11441TIP3    H155814   2.397   5.734   6.141 -0.9171  1.5577  0.6198
11441TIP3    H255815   2.463   5.846   6.219  1.9764  0.3668 -0.0627
11442TIP3   OH255816   0.329   2.931  16.784  0.5151 -0.2078 -0.1446
11442TIP3    H155817   0.419   2.958  16.799  0.3323  0.9161 -1.0609
11442TIP3    H255818   0.276   3.008  16.804 -0.2178 -0.7205 -0.0518
11443TIP3   OH255819   0.086   6.391   2.480 -0.1047 -0.4409  0.5874
11443TIP3    H155820   0.048   6.305   2.493  1.0364 -1.0791 -0.1474
11443TIP3    H255821   0.039   6.427   2.404 -0.3435 -0.5568  0.6804
11444TIP3   OH255822   4.394   0.078   0.377  0.0855 -0.0566  0.4061
11444TIP3    H155823   4.336   0.040   0.311 -0.8282  1.2263  0.4331
11444TIP3    H255824   4.443   0.004   0.412 -1.4539 -1.1484  0.2919
11445TIP3   OH255825   6.216   0.320   2.204 -0.1036  0.7146  0.1614
11445TIP3    H155826   6.206   0.357   2.291 -0.7190  1.6030 -0.2735
11445TIP3    H255827   6.172   0.383   2.146 -1.4669 -0.8809 -0.5695
11446TIP3   OH255828   5.036   3.363  11.385  0.3357  0.2356  0.0592
11446TIP3    H155829   5.009   3.392  11.298  0.0489  1.2798  0.4963
11446TIP3    H255830   5.056   3.443  11.433  1.5706 -0.3890  0.6102
11447TIP3   OH255831   2.988   6.742   2.454 -0.3838 -0.2094  0.5985
11447TIP3    H155832   2.993   6.674   2.387  1.3357 -0.5729  1.0676
11447TIP3    H255833   3.001   6.823   2.406  0.1303 -0.4158  0.3768
11448TIP3   OH255834   1.413   6.105  13.590 -0.8543  0.4677 -0.1116
11448TIP3    H155835   1.403   6.012  13.569  0.5201  0.5641 -1.3345
11448TIP3    H255836   1.358   6.119  13.667 -0.3532 -1.5620  0.6423
11449TIP3   OH255837   0.246   5.173   1.213  0.8928  0.1157 -0.2424
11449TIP3    H155838   0.240   5.078   1.205 -0.7269  0.1625  0.2192
11449TIP3    H255839   0.159   5.205   1.189  0.8837  1.3558  1.3335
11450TIP3   OH255840   2.479   5.557   4.016 -0.5833  0.1798  0.2238
11450TIP3    H155841   2.565   5.521   3.994 -0.0899  1.5703 -0.1797
11450TIP3    H255842   2.425   5.540   3.939  0.1068  1.7396 -0.6290
11451TIP3   OH255843   6.673   1.282  14.114  0.3755 -0.2159 -0.2631
11451TIP3    H155844   6.617   1.214  14.078  0.9311  0.0216 -1.6109
11451TIP3    H255845   6.740   1.234  14.164  0.2929 -0.6048 -0.5290
11452TIP3   OH255846   3.187   3.680  14.328  0.1372  0.3695  0.4850
11452TIP3    H155847   3.261   3.619  14.326  0.4199  0.7087  0.5388
11452TIP3    H255848   3.113   3.629  14.294  0.4836  0.1481  0.0593
11453TIP3   OH255849   4.310   0.604  13.688  0.2625 -0.2124  0.0457
11453TIP3    H155850   4.289   0.571  13.775  1.3768 -1.0106  0.0238
11453TIP3    H255851   4.352   0.689  13.704 -2.1049  0.9790  0.1300
11454TIP3   OH255852   5.245   5.072   3.743 -0.1177  0.1745  0.3569
11454TIP3    H155853   5.313   5.020   3.785  1.0515  1.7073  0.4001
11454TIP3    H255854   5.163   5.042   3.783  0.5229 -1.6416  0.3344
11455TIP3   OH255855   4.191   2.643   6.235 -0.0280 -0.3973  0.5744
11455TIP3    H155856   4.190   2.688   6.151 -0.2757  0.4755  1.0374
11455TIP3    H255857   4.206   2.712   6.299  2.1128 -1.3073  1.1108
11456TIP3   OH255858   1.374   4.835   4.164 -0.6187 -0.0365  0.4947
11456TIP3    H155859   1.407   4.882   4.241  0.8943  0.1391 -0.2448
11456TIP3    H255860   1.293   4.793   4.195 -0.0077 -0.0271  2.2074
11457TIP3   OH255861   2.737   2.217  14.411 -0.0764 -0.0323  0.3634
11457TIP3    H155862   2.796   2.150  14.445 -0.3706 -0.0234  0.9076
11457TIP3    H255863   2.734   2.283  14.480  1.3349  1.2500 -0.7734
11458TIP3   OH255864   4.158   1.356  11.084 -0.4387  0.2320  0.2794
11458TIP3    H155865   4.079   1.367  11.136 -2.1797 -1.8983 -1.8077
11458TIP3    H255866   4.172   1.261  11.082  0.7713  0.4221 -1.4126
11459TIP3   OH255867   2.669   4.090   1.284  0.2892 -0.2863 -0.1693
11459TIP3    H155868   2.574   4.094   1.298  0.3064 -1.1298  0.2394
11459TIP3    H255869   2.702   4.040   1.359  1.0507 -0.0402 -0.3375
11460TIP3   OH255870   2.439   0.280  14.949 -0.2612 -0.5378  0.3548
11460TIP3    H155871   2.375   0.321  15.007 -1.9001 -2.5067 -0.0002
11460TIP3    H255872   2.456   0.194  14.987 -0.0307 -1.1648 -1.1024
11461TIP3   OH255873   5.894   5.292   5.170 -0.3242 -0.4781 -0.0877
11461TIP3    H155874   5.951   5.360   5.206  2.0103 -1.9426 -0.9787
11461TIP3    H255875   5.884   5.229   5.241 -0.3471 -0.5397 -0.1458
11462TIP3   OH255876   4.516   0.176   0.967  0.4031  0.2618  0.1686
11462TIP3    H155877   4.423   0.155   0.955  0.6203 -0.1608 -0.7675
11462TIP3    H255878   4.516   0.263   1.006 -0.3810  0.3457 -0.0178
11463TIP3   OH255879   3.862   6.663  12.024 -0.5508 -0.6831 -0.0333
11463TIP3    H155880   3.897   6.627  12.105 -1.5829 -0.9858  0.2799
11463TIP3    H255881   3.818   6.590  11.981  1.3444 -0.9221 -1.6515
11464TIP3   OH255882   0.097   6.078   3.573 -0.2160 -0.7430 -0.5280
11464TIP3    H155883   0.078   6.001   3.627 -0.8994  0.1078  0.4667
11464TIP3    H255884   0.101   6.150   3.636 -0.2056  0.1311 -1.5326
11465TIP3   OH255885   6.046   4.656  12.028  0.0945 -0.0098 -0.1589
11465TIP3    H155886   6.124   4.710  12.042  0.1594 -0.0968 -0.1859
11465TIP3    H255887   6.025   4.622  12.115 -0.2519  0.4774 -0.0506
11466TIP3   OH255888   6.640   6.719   5.591 -0.5869 -0.3557  0.0203
11466TIP3    H155889   6.649   6.627   5.566 -1.0502 -0.4839  0.3172
11466TIP3    H255890   6.650   6.720   5.686 -2.2656 -0.3266  0.2132
11467TIP3   OH255891   4.888   1.645  15.568  0.0187  0.1001  0.1587
11467TIP3    H155892   4.922   1.598  15.492  0.1121  2.0585 -1.0452
11467TIP3    H255893   4.849   1.724  15.532  0.1510  1.1157  2.1676
11468TIP3   OH255894   2.001   4.084  13.633  0.1038 -0.5274  0.4702
11468TIP3    H155895   2.050   4.006  13.657 -0.4938 -0.4368  2.0850
11468TIP3    H255896   2.060   4.135  13.578  1.2319 -1.1654  1.0837
11469TIP3   OH255897   6.427   1.669  10.913  0.0451  0.2946 -0.8424
11469TIP3    H155898   6.504   1.650  10.861  0.1789 -0.3915 -0.4031
11469TIP3    H255899   6.395   1.583  10.941 -0.5001  0.6088 -0.4858
11470TIP3   OH255900   5.411   5.714  11.411  0.0586 -0.7415  0.2023
11470TIP3    H155901   5.358   5.732  11.334  1.1367 -0.1128 -0.3904
11470TIP3    H255902   5.352   5.664  11.469 -0.7423 -1.2329 -1.0146
11471TIP3   OH255903   6.770   4.484   5.875  0.5459  0.2706  0.8286
11471TIP3    H155904   6.732   4.422   5.938 -0.3612  0.8228  0.8141
11471TIP3    H255905   6.862   4.491   5.903  0.2821  0.1050  1.7682
11472TIP3   OH255906   6.775   0.865  14.245 -0.1181  0.1059  0.3393
11472TIP3    H155907   6.754   0.831  14.158 -1.9345 -0.0172  0.8084
11472TIP3    H255908   6.718   0.817  14.304  0.8671  0.4296  1.5769
11473TIP3   OH255909   3.280   2.307   3.961 -0.3012  0.1634 -0.1415
11473TIP3    H155910   3.312   2.391   3.996  1.3170 -1.3661  2.2425
11473TIP3    H255911   3.200   2.289   4.011 -0.4351  0.1115 -0.3763
11474TIP3   OH255912   5.788   6.172   2.032 -0.0265  0.1137  1.2212
11474TIP3    H155913   5.751   6.164   1.944  0.3682  2.9052  0.7636
11474TIP3    H255914   5.794   6.082   2.063 -1.4851 -0.8305 -1.0557
11475TIP3   OH255915   3.030   2.025  17.234 -0.3603  0.1011  0.6643
11475TIP3    H155916   2.955   2.045  17.290 -0.6484 -0.7210  0.5867
11475TIP3    H255917   3.098   1.993  17.294 -0.7874 -1.1053  0.5143
11476TIP3   OH255918   5.269   0.993  12.753  0.0949 -0.1681 -0.4439
11476TIP3    H155919   5.217   0.914  12.744 -0.1456 -0.3481  2.1709
11476TIP3    H255920   5.210   1.056  12.794  1.2993  0.2636  0.6846
11477TIP3   OH255921   0.757   4.847   5.588 -0.3184  0.1371 -0.4114
11477TIP3    H155922   0.832   4.823   5.642 -1.2984 -0.7934  0.5367
11477TIP3    H255923   0.750   4.942   5.598  1.1850  0.3427 -1.1128
11478TIP3   OH255924   3.531   0.727   1.527 -0.4391  0.4727 -0.2916
11478TIP3    H155925   3.612   0.729   1.476 -0.5610  0.4922 -0.4839
11478TIP3    H255926   3.464   0.699   1.465 -0.2231 -1.6342  0.3698
11479TIP3   OH255927   2.798   3.104   4.902 -0.3503 -0.5312  0.3919
11479TIP3    H155928   2.703   3.097   4.917 -1.1988  1.0164 -3.5694
11479TIP3    H255929   2.826   3.174   4.960 -2.1353  0.6534 -0.1192
11480TIP3   OH255930   0.973   0.249  15.834  0.0636  0.4466 -1.0047
11480TIP3    H155931   0.899   0.197  15.863  1.2573 -1.6021 -1.5176
11480TIP3    H255932   0.934   0.322  15.785 -1.6058 -0.4181 -0.9929
11481TIP3   OH255933   0.192   1.349   3.943 -0.3408  0.0306  0.0860
11481TIP3    H155934   0.159   1.296   3.870  0.8575  0.8629 -1.0817
11481TIP3    H255935   0.209   1.286   4.013  1.2812 -1.1840 -1.3557
11482TIP3   OH255936   4.520   5.850   1.367 -0.2421  0.1439 -0.7777
11482TIP3    H155937   4.600   5.818   1.325 -0.6137 -0.2619 -1.1842
11482TIP3    H255938   4.462   5.774   1.368 -1.2965  0.9279 -2.1533
11483TIP3   OH255939   5.001   0.932  16.447 -0.3205  0.6146  0.6430
11483TIP3    H155940   5.061   0.874  16.495  0.8951  0.3312 -1.1748
11483TIP3    H255941   4.984   1.005  16.507  1.6293  0.5626  1.2720
11484TIP3   OH255942   6.453   3.750   0.551  0.2104 -0.0453 -0.2651
11484TIP3    H155943   6.535   3.705   0.573 -1.2390 -1.9587  1.4904
11484TIP3    H255944   6.462   3.836   0.591  2.1635  0.5119 -1.8296
11485TIP3   OH255945   4.289   4.738   3.941 -0.1749  0.0764 -0.5726
11485TIP3    H155946   4.260   4.676   3.874  0.2219 -1.0301  0.2767
11485TIP3    H255947   4.341   4.686   4.002 -0.4029  1.1132  0.5277
11486TIP3   OH255948   2.278   6.434   5.808 -0.1060  0.4518  0.2370
11486TIP3    H155949   2.238   6.478   5.733 -0.1835  0.0826  0.0625
11486TIP3    H255950   2.205   6.413   5.866 -0.0476  0.7219  0.4088
11487TIP3   OH255951   2.702   3.877   2.640  0.1978 -0.3212  0.4077
11487TIP3    H155952   2.756   3.914   2.569 -2.1162 -0.6511 -1.5879
11487TIP3    H255953   2.625   3.933   2.643  0.0978 -0.5394  2.4666
11488TIP3   OH255954   4.473   1.701   5.020  0.3016  0.2702 -0.2894
11488TIP3    H155955   4.567   1.681   5.019  0.1065 -0.7101  0.4957
11488TIP3    H255956   4.454   1.720   5.112 -0.8744 -2.4750  0.0680
11489TIP3   OH255957   2.598   4.727   2.699  0.5599 -0.0495 -0.3954
11489TIP3    H155958   2.605   4.815   2.661 -2.0119  0.6706  0.6774
11489TIP3    H255959   2.537   4.681   2.641 -3.5569  1.1176  2.7531
11490TIP3   OH255960   4.471   4.346   5.237 -0.0701  0.0901 -0.2841
11490TIP3    H155961   4.387   4.348   5.191  0.2003 -2.2323 -0.9463
11490TIP3    H255962   4.522   4.415   5.197 -1.2348  0.6903 -0.7441
11491TIP3   OH255963   4.146   2.075   4.324 -0.1980 -0.2245 -0.1630
11491TIP3    H155964   4.190   2.152   4.287  0.5154  0.0116  1.1388
11491TIP3    H255965   4.108   2.030   4.248  2.7939 -0.7687 -1.3908
11492TIP3   OH255966   4.203   4.110   2.106 -0.2886  0.2875  0.4994
11492TIP3    H155967   4.180   4.066   2.188  0.8800 -2.1722 -0.4459
11492TIP3    H255968   4.120   4.119   2.059 -0.3844 -2.1558  0.1428
11493TIP3   OH255969   3.608   5.462  12.916  0.5354  0.6235  0.1331
11493TIP3    H155970   3.551   5.389  12.891  0.2028  0.8586  0.2123
11493TIP3    H255971   3.696   5.423  12.917  0.1575 -0.2119  1.9228
11494TIP3   OH255972   4.335   0.571   1.492 -0.2438  0.3256  0.4335
11494TIP3    H155973   4.289   0.614   1.419  0.4493  0.2939 -0.0217
11494TIP3    H255974   4.321   0.630   1.566  0.0313  0.9462 -0.0029
11495TIP3   OH255975   5.558   2.863   1.505  0.0882 -0.2652 -0.1828
11495TIP3    H155976   5.551   2.829   1.416  0.5201 -1.1172  0.1077
11495TIP3    H255977   5.607   2.945   1.496  0.8129 -0.7429 -0.6351
11496TIP3   OH255978   4.760   1.845  15.821 -0.3871  0.0939 -0.2439
11496TIP3    H155979   4.747   1.750  15.820  0.0467  0.0191  0.4206
11496TIP3    H255980   4.717   1.877  15.742 -2.3970 -0.4015  0.6203
11497TIP3   OH255981   6.035   4.461  15.846  0.8370 -0.5433  0.0898
11497TIP3    H155982   6.109   4.416  15.888  1.5686  0.5858  0.0180
11497TIP3    H255983   6.014   4.533  15.906 -0.1361 -0.7945  0.0550
11498TIP3   OH255984   3.865   4.747  15.733 -0.3365 -0.2683  0.2181
11498TIP3    H155985   3.947   4.699  15.749  0.0703  0.1186 -0.6466
11498TIP3    H255986   3.825   4.756  15.819  1.1701  0.6461  0.8453
11499TIP3   OH255987   4.511   5.911  11.825  0.0414 -0.0491 -0.2860
11499TIP3    H155988   4.434   5.927  11.880 -0.2196 -0.0548 -0.6456
11499TIP3    H255989   4.586   5.930  11.883 -0.2377  0.4908 -0.0924
11500TIP3   OH255990   4.665   3.685   3.993  0.3876  0.7597  0.0630
11500TIP3    H155991   4.631   3.755   3.938  0.4183  1.1841  0.5742
11500TIP3    H255992   4.684   3.613   3.933 -0.3209  0.9338 -0.3722
11501TIP3   OH255993   6.742   5.672  15.528  0.0375 -0.2264  0.1460
11501TIP3    H155994   6.738   5.747  15.469  2.1367 -0.5306 -0.4247
11501TIP3    H255995   6.679   5.691  15.597 -1.5014  0.7456 -1.4996
11502TIP3   OH255996   5.905   1.066  11.287  0.2167 -0.1247  0.4844
11502TIP3    H155997   5.830   1.126  11.281  0.8210  0.6311  0.3792
11502TIP3    H255998   5.919   1.036  11.197 -0.1426 -0.4972  0.5512
11503TIP3   OH255999   3.303   4.603   2.026 -0.2229  0.2111 -0.0509
11503TIP3    H156000   3.215   4.593   1.990 -0.2312  0.5791 -0.1372
11503TIP3    H256001   3.344   4.517   2.013  0.0571  0.5761 -1.7059
11504TIP3   OH256002   6.283   1.857   1.485 -0.3557 -0.1590 -0.0810
11504TIP3    H156003   6.198   1.894   1.459 -0.0174  0.2346 -0.6372
11504TIP3    H256004   6.262   1.796   1.555 -1.2337 -0.8227 -0.8955
11505TIP3   OH256005   3.268   5.161   1.086 -0.4521 -0.4457 -1.1397
11505TIP3    H156006   3.176   5.171   1.062 -0.7292  0.2033  0.1221
11505TIP3    H256007   3.287   5.239   1.137  0.4718 -1.1490 -0.4031
11506TIP3   OH256008   0.651   2.746  15.961  0.7205  0.1889  0.2994
11506TIP3    H156009   0.595   2.688  15.910 -4.4875  3.2120  2.1819
11506TIP3    H256010   0.630   2.728  16.052  1.7641  2.3926  1.0361
11507TIP3   OH256011   0.263   0.450   2.096 -0.0862 -0.5869 -0.3800
11507TIP3    H156012   0.288   0.359   2.110 -1.1575 -0.9097 -0.5858
11507TIP3    H256013   0.309   0.475   2.016  0.3559 -0.8865 -0.2216
11508TIP3   OH256014   0.581   3.094   1.014 -0.8498 -0.2197  0.2791
11508TIP3    H156015   0.642   3.157   0.976  0.1881 -1.0049  0.6348
11508TIP3    H256016   0.516   3.079   0.944 -0.2354  0.0687 -0.3589
11509TIP3   OH256017   6.088   6.133   2.821  0.0524 -0.0195  0.5925
11509TIP3    H156018   6.017   6.074   2.843  0.3462 -0.2450  0.9521
11509TIP3    H256019   6.056   6.220   2.846 -0.5233  0.0259 -0.2851
11510TIP3   OH256020   5.979   0.322   4.234  0.1398  0.5708 -0.1293
11510TIP3    H156021   5.956   0.405   4.274  1.8318  1.4865 -0.9657
11510TIP3    H256022   5.988   0.342   4.141 -1.5132 -1.0221 -0.6495
11511TIP3   OH256023   5.856   4.750   5.443 -0.1721  0.3164 -0.2273
11511TIP3    H156024   5.765   4.779   5.446 -0.3865 -0.3796  0.1627
11511TIP3    H256025   5.880   4.737   5.535 -0.1003 -0.7710 -0.3943
11512TIP3   OH256026   4.029   5.940   3.552 -0.2310  0.0823 -0.1010
11512TIP3    H156027   3.992   6.008   3.496 -0.7365 -0.2858 -0.2153
11512TIP3    H256028   4.064   5.988   3.627 -1.7767  0.3686  0.4660
11513TIP3   OH256029   1.964   4.093  12.252 -0.2602 -0.2545 -0.1805
11513TIP3    H156030   2.036   4.126  12.197 -0.6893  1.4479  0.2624
11513TIP3    H256031   1.886   4.135  12.216 -0.4830  1.3236  2.0507
11514TIP3   OH256032   3.019   3.192   4.052  0.3020  0.0475 -0.2247
11514TIP3    H156033   3.009   3.151   3.966  1.9775 -0.6359 -0.1148
11514TIP3    H256034   2.964   3.139   4.110 -0.0261 -0.1202 -0.6844
11515TIP3   OH256035   1.187   2.184   1.594 -0.6161  0.5609 -0.1243
11515TIP3    H156036   1.122   2.118   1.572 -0.0687 -0.0295  0.0306
11515TIP3    H256037   1.260   2.135   1.632 -0.7139  1.3729  1.1289
11516TIP3   OH256038   4.860   6.114   0.257 -0.3042 -0.3758 -0.4263
11516TIP3    H156039   4.885   6.030   0.220  0.3801 -0.7000  0.7597
11516TIP3    H256040   4.900   6.179   0.199 -0.4420 -0.8677 -1.0714
11517TIP3   OH256041   1.024   0.138  12.437  0.3839  0.7057  0.5472
11517TIP3    H156042   1.049   0.123  12.528 -0.3206  0.1239  0.6487
11517TIP3    H256043   0.979   0.223  12.438 -2.2184 -0.6336  1.2618
11518TIP3   OH256044   4.857   3.981   1.953  0.6417  0.0937 -0.5965
11518TIP3    H156045   4.940   4.012   1.991  0.9140  0.6219 -1.5983
11518TIP3    H256046   4.798   4.056   1.963 -0.1481 -0.7487  1.3704
11519TIP3   OH256047   2.166   4.887  14.395  0.0922 -0.2116 -0.6778
11519TIP3    H156048   2.162   4.943  14.317  1.3121  2.6757  1.2653
11519TIP3    H256049   2.112   4.932  14.460  1.3065 -1.1661  1.0260
11520TIP3   OH256050   2.647   6.552  15.158 -0.2532 -0.0760  0.2094
11520TIP3    H156051   2.715   6.487  15.181  0.8107  1.2241  0.7950
11520TIP3    H256052   2.634   6.540  15.064  0.5860 -0.5318  0.1445
11521TIP3   OH256053   4.609   4.123  13.159 -0.0885 -0.4915 -0.1715
11521TIP3    H156054   4.656   4.171  13.227 -0.6827 -0.6898  0.3827
11521TIP3    H256055   4.615   4.179  13.082 -0.8848  0.5307  0.5079
11522TIP3   OH256056   4.232   4.388   0.552 -0.0896  0.6088 -0.0769
11522TIP3    H156057   4.220   4.373   0.646  1.2519 -0.5853 -0.0774
11522TIP3    H256058   4.274   4.474   0.547  1.1869  0.0395  0.5261
11523TIP3   OH256059   6.198   3.810  11.492  0.6571 -0.1131  0.1861
11523TIP3    H156060   6.218   3.813  11.586  1.0740 -0.5458  0.1133
11523TIP3    H256061   6.273   3.764  11.453 -0.0352 -0.9010 -0.2203
11524TIP3   OH256062   6.610   1.606  12.727  0.1670  0.5053  0.0285
11524TIP3    H156063   6.671   1.574  12.794 -1.6916  0.1908  1.6118
11524TIP3    H256064   6.597   1.531  12.669  0.1590  0.1251  0.5168
11525TIP3   OH256065   0.992   2.711   2.740 -0.8082 -0.5522 -0.3698
11525TIP3    H156066   0.969   2.618   2.737 -2.4528 -0.1405 -1.1579
11525TIP3    H256067   1.065   2.720   2.678 -2.0147 -0.9569 -1.8695
11526TIP3   OH256068   5.007   5.306  14.789  0.3036 -0.0013  0.0670
11526TIP3    H156069   4.972   5.308  14.700  0.5457  1.0767 -0.0070
11526TIP3    H256070   5.013   5.213  14.810 -0.1407 -0.2532 -0.8932
11527TIP3   OH256071   5.392   2.307   5.668 -0.6980 -0.2321  0.2647
11527TIP3    H156072   5.469   2.284   5.721 -0.3783 -1.5054 -0.7323
11527TIP3    H256073   5.318   2.293   5.728 -0.4048 -2.5292  0.1609
11528TIP3   OH256074   6.265   6.627  10.847  0.3347 -0.3124  0.2477
11528TIP3    H156075   6.345   6.609  10.799  1.4765  1.4596  1.4434
11528TIP3    H256076   6.209   6.551  10.830  1.7024 -0.9046 -1.7446
11529TIP3   OH256077   6.551   4.111   4.043  0.0675 -0.0956  0.0157
11529TIP3    H156078   6.583   4.141   3.958 -0.8123 -0.1353 -0.3335
11529TIP3    H256079   6.594   4.026   4.056 -0.9230 -0.7878 -1.0786
11530TIP3   OH256080   4.754   4.738  13.426  0.1105 -0.1454 -0.0805
11530TIP3    H156081   4.828   4.798  13.428  0.2809 -0.3906  1.6430
11530TIP3    H256082   4.682   4.786  13.468  0.3045 -1.2022  1.4830
11531TIP3   OH256083   5.088   6.548   2.840 -0.4422 -0.1213  0.1415
11531TIP3    H156084   5.051   6.483   2.781  0.1617 -0.8319  0.5309
11531TIP3    H256085   5.064   6.517   2.928  0.0161  0.0691  0.3384
11532TIP3   OH256086   6.074   1.138   0.098  0.4456  0.0827 -0.4302
11532TIP3    H156087   6.000   1.091   0.058 -0.5858  0.3472  1.1149
11532TIP3    H256088   6.077   1.222   0.053 -1.7610  1.0390  1.1011
11533TIP3   OH256089   3.391   1.147  13.750 -0.1630  0.1026 -0.3545
11533TIP3    H156090   3.300   1.119  13.742 -0.1069  0.1332 -1.0738
11533TIP3    H256091   3.435   1.110  13.674  0.6529 -0.7776  0.5322
11534TIP3   OH256092   4.002   2.740   1.722  0.5579 -0.6498 -0.1804
11534TIP3    H156093   3.999   2.813   1.659 -1.6511 -0.5005  0.0780
11534TIP3    H256094   3.935   2.679   1.692 -0.9028 -0.3253  2.3135
11535TIP3   OH256095   6.412   2.450  15.310  0.6210  0.3560  0.0838
11535TIP3    H156096   6.445   2.522  15.258  0.8260  0.3727  0.2353
11535TIP3    H256097   6.490   2.401  15.337  0.3104 -1.6337 -2.4755
11536TIP3   OH256098   6.037   0.719   1.856 -0.0574  0.3698  0.2614
11536TIP3    H156099   6.079   0.767   1.928  3.1832 -0.8449 -0.7602
11536TIP3    H256100   6.063   0.628   1.869  0.0447  0.0426 -2.0839
11537TIP3   OH256101   1.973   3.212  14.750  0.3204 -0.7639 -0.3569
11537TIP3    H156102   1.912   3.277  14.716  0.8551 -0.0720 -0.0158
11537TIP3    H256103   2.053   3.261  14.768  0.6714 -1.4814  0.0840
11538TIP3   OH256104   0.769   1.444  13.464 -0.0007  0.3454  0.1057
11538TIP3    H156105   0.758   1.447  13.559  0.5358  2.4331  0.1149
11538TIP3    H256106   0.700   1.500  13.430 -0.5285 -0.8272 -0.7792
11539TIP3   OH256107   0.713   5.765   2.323 -0.0996 -0.1273 -0.1144
11539TIP3    H156108   0.740   5.825   2.253 -2.7170 -0.6581 -1.6458
11539TIP3    H256109   0.794   5.746   2.370  1.4010  1.7833 -1.7852
11540TIP3   OH256110   6.495   5.203   1.803 -0.1734  0.0906  0.4915
11540TIP3    H156111   6.558   5.241   1.865 -0.0325  2.0953 -0.8303
11540TIP3    H256112   6.540   5.206   1.718 -0.7216 -1.7438  0.1185
11541TIP3   OH256113   4.328   3.823   5.770  0.4173 -1.5799 -0.7783
11541TIP3    H156114   4.391   3.767   5.725  1.7711 -0.1123 -0.7715
11541TIP3    H256115   4.375   3.855   5.847  0.5259  1.3699 -1.9806
11542TIP3   OH256116   3.245   2.086  12.565 -0.0254 -0.3712 -0.2466
11542TIP3    H156117   3.167   2.138  12.546 -1.2094 -1.2612  2.0178
11542TIP3    H256118   3.300   2.143  12.618 -1.1124 -1.2253  1.8369
11543TIP3   OH256119   5.871   1.145  17.071  0.1514  0.4283 -0.5270
11543TIP3    H156120   5.954   1.148  17.024 -0.9986  1.7413 -2.5095
11543TIP3    H256121   5.811   1.097  17.013  0.1781 -2.9537  2.0369
11544TIP3   OH256122   6.469   3.442  11.385 -0.0004  0.0671 -0.5671
11544TIP3    H156123   6.440   3.352  11.368  0.3570 -0.4748  1.4981
11544TIP3    H256124   6.554   3.448  11.342 -0.5037 -0.2539 -1.6029
11545TIP3   OH256125   4.327   4.778  15.980 -0.3423 -0.1761  0.1154
11545TIP3    H156126   4.378   4.846  16.022  1.2130 -1.3492  0.1608
11545TIP3    H256127   4.347   4.698  16.029 -0.2119 -1.1418 -1.4732
11546TIP3   OH256128   4.466   3.529   6.032  0.5217 -0.4185  0.3559
11546TIP3    H156129   4.408   3.533   5.956  0.7830  0.3436  0.1948
11546TIP3    H256130   4.475   3.620   6.060  0.1478 -0.7384  1.5158
11547TIP3   OH256131   0.499   3.021   6.409  0.0981 -0.3090  0.4702
11547TIP3    H156132   0.558   3.095   6.393 -1.9574  1.5865  1.3650
11547TIP3    H256133   0.492   3.016   6.504  0.8175 -2.1601  0.4323
11548TIP3   OH256134   2.412   5.973   0.268  0.2850 -0.2666  0.2979
11548TIP3    H156135   2.507   5.972   0.257  0.1231  1.2506 -1.3136
11548TIP3    H256136   2.396   6.043   0.331  0.2157 -0.5669  0.6206
11549TIP3   OH256137   4.628   1.558  15.317  0.0043  0.0687  0.1708
11549TIP3    H156138   4.626   1.646  15.281 -0.2556 -1.1301 -2.9016
11549TIP3    H256139   4.536   1.539  15.338 -0.0804  0.1589 -0.1147
11550TIP3   OH256140   5.128   3.212  14.762 -0.2551  0.2942  0.0323
11550TIP3    H156141   5.188   3.168  14.822 -0.4782 -2.0054 -1.3305
11550TIP3    H256142   5.053   3.236  14.816 -0.9471 -2.7321  0.5350
11551TIP3   OH256143   0.861   0.411  16.138  0.9053  0.5969 -0.3071
11551TIP3    H156144   0.777   0.451  16.120  1.4001  2.1595  0.7750
11551TIP3    H256145   0.841   0.318  16.153 -0.6922  1.0691  0.5303
11552TIP3   OH256146   3.540   1.570  17.130 -0.1243 -0.1165  0.1741
11552TIP3    H156147   3.586   1.535  17.207  0.1135  1.1157  0.6065
11552TIP3    H256148   3.494   1.494  17.094  1.4058 -1.1639  0.3310
11553TIP3   OH256149   3.169   3.238   3.034  0.3910  0.0742  0.1080
11553TIP3    H156150   3.111   3.232   2.958 -0.0142 -1.2195  0.5030
11553TIP3    H256151   3.195   3.147   3.052  2.0066  0.5604  0.3517
11554TIP3   OH256152   0.350   4.101   1.998 -0.4974 -0.5623 -0.0340
11554TIP3    H156153   0.408   4.027   2.016 -1.1511 -0.9873  0.3244
11554TIP3    H256154   0.301   4.074   1.920  1.2084  0.6254 -1.5650
11555TIP3   OH256155   3.688   6.699  17.207 -0.3488  0.6247 -0.1009
11555TIP3    H156156   3.775   6.661  17.209 -1.3812 -1.7589  2.0632
11555TIP3    H256157   3.702   6.793  17.218  1.8613  0.1115  1.8410
11556TIP3   OH256158   6.074   0.123  16.815  0.3165  0.1176  0.3073
11556TIP3    H156159   6.144   0.065  16.783 -0.1300 -0.2241 -0.0652
11556TIP3    H256160   5.999   0.101  16.761  0.0918  0.9370  0.2811
11557TIP3   OH256161   2.092   2.713  15.907  0.0647  0.1410  0.2898
11557TIP3    H156162   2.151   2.652  15.864 -0.6249 -0.6830  0.4986
11557TIP3    H256163   2.129   2.725  15.995 -0.2175 -0.5758  0.5085
11558TIP3   OH256164   3.716   0.007   0.310  0.2095  0.1111 -0.1566
11558TIP3    H156165   3.689  -0.078   0.346  0.5206 -0.0289 -0.2508
11558TIP3    H256166   3.811   0.009   0.322 -0.1111  1.6455  2.4168
11559TIP3   OH256167   0.822   4.703   6.029  0.1911  0.7989 -0.3350
11559TIP3    H156168   0.863   4.737   6.108 -1.0947  0.7997  0.3329
11559TIP3    H256169   0.752   4.765   6.009  0.2927  0.6164 -1.2827
11560TIP3   OH256170   2.563   5.326  14.276 -0.7655 -0.7160 -0.2742
11560TIP3    H156171   2.644   5.296  14.319  0.9313  2.8003 -0.8397
11560TIP3    H256172   2.493   5.295  14.333  1.1177 -1.5413  1.6666
11561TIP3   OH256173   4.515   3.385   3.844  0.1926 -0.2767 -0.5583
11561TIP3    H156174   4.535   3.478   3.828  2.5185 -0.6918 -0.2661
11561TIP3    H256175   4.420   3.379   3.834  0.0748  2.0206 -1.1978
11562TIP3   OH256176   5.145   4.010  11.734  0.1120 -0.0550 -0.4777
11562TIP3    H156177   5.218   3.961  11.697 -2.2563 -2.7762 -1.7283
11562TIP3    H256178   5.152   3.996  11.829  0.1833 -1.8029 -0.7259
11563TIP3   OH256179   1.968   1.764  16.335 -0.7108  0.7819  0.1572
11563TIP3    H156180   1.924   1.758  16.420 -1.3433 -2.6227 -0.3351
11563TIP3    H256181   1.907   1.813  16.280 -1.5575  0.5981  0.9129
11564TIP3   OH256182   2.858   2.401   1.225  0.3924 -0.3212 -0.4882
11564TIP3    H156183   2.856   2.491   1.193 -0.2899 -0.8083 -1.8650
11564TIP3    H256184   2.950   2.385   1.245  0.6390  0.4342 -0.9884
11565TIP3   OH256185   4.151   4.239  11.187 -0.4882  0.2481 -0.3188
11565TIP3    H156186   4.141   4.144  11.182 -1.0635  0.2674  0.4325
11565TIP3    H256187   4.195   4.263  11.105  1.0937 -0.8428  0.1762
11566TIP3   OH256188   3.095   5.371  12.948 -0.5110 -0.1015  0.6847
11566TIP3    H156189   3.040   5.425  12.892 -0.6027 -1.1928 -0.2811
11566TIP3    H256190   3.177   5.361  12.900 -0.1255  0.0077  1.3107
11567TIP3   OH256191   5.423   6.084  17.217  0.1795  0.1714 -0.7259
11567TIP3    H156192   5.352   6.081  17.281  3.3113 -1.3119  2.8524
11567TIP3    H256193   5.437   6.178  17.201 -2.4643  0.4904 -1.4704
11568TIP3   OH256194   1.923   4.077   2.813  0.4821  0.0480  0.0961
11568TIP3    H156195   1.973   4.113   2.739  1.3889 -0.8071  0.2917
11568TIP3    H256196   1.958   3.989   2.825 -0.3977 -0.1971  0.8750
11569TIP3   OH256197   5.785   4.267  14.679  0.2584 -0.3297 -0.3948
11569TIP3    H156198   5.851   4.250  14.747  1.5199  2.5259 -0.8712
11569TIP3    H256199   5.737   4.343  14.711 -0.9888 -0.6741 -1.4192
11570TIP3   OH256200   5.018   1.240  15.009  0.4185  0.1178  0.8261
11570TIP3    H156201   5.022   1.153  15.049 -1.9850 -0.2896  0.2183
11570TIP3    H256202   5.057   1.298  15.074  2.4327 -1.4385  1.0688
11571TIP3   OH256203   6.784   1.120  13.152  0.0130  0.5834  0.3020
11571TIP3    H156204   6.871   1.132  13.190  0.1164  3.0218 -0.5904
11571TIP3    H256205   6.740   1.058  13.210  2.3991 -0.8121  0.6619
11572TIP3   OH256206   0.166   5.479  16.785 -0.2189  0.0768 -0.0915
11572TIP3    H156207   0.191   5.571  16.788 -1.7595  0.4783  0.8612
11572TIP3    H256208   0.140   5.464  16.694  0.7110  0.3803 -0.4188
11573TIP3   OH256209   0.468   6.065   5.700  0.1290  0.2342  0.0820
11573TIP3    H156210   0.476   6.043   5.793 -0.1612  1.3787  0.3903
11573TIP3    H256211   0.530   6.137   5.687  1.0257 -0.7011 -0.8866
11574TIP3   OH256212   0.116   1.386   4.795 -0.0560 -0.3824  0.0027
11574TIP3    H156213   0.195   1.437   4.774  1.4375 -2.4789  0.3303
11574TIP3    H256214   0.104   1.330   4.718 -0.4880 -0.9917  0.5179
11575TIP3   OH256215   3.081   1.311   0.361  0.1478 -0.1327  0.1147
11575TIP3    H156216   3.031   1.236   0.392  1.3914 -0.4490  1.4401
11575TIP3    H256217   3.127   1.342   0.439  0.3020  1.4874 -0.6068
11576TIP3   OH256218   1.459   0.488  11.351  0.1161 -0.7299  0.3105
11576TIP3    H156219   1.536   0.437  11.324  0.1185 -1.1579  1.1082
11576TIP3    H256220   1.389   0.424  11.361 -0.0475 -0.4944  0.7099
11577TIP3   OH256221   1.383   5.140  12.840  0.0212  0.2607 -0.3719
11577TIP3    H156222   1.451   5.206  12.830 -0.4965  1.1112  1.4414
11577TIP3    H256223   1.312   5.170  12.784  0.5675  0.1622 -1.1216
11578TIP3   OH256224   1.456   4.748  17.215 -0.1444 -0.5992 -0.7833
11578TIP3    H156225   1.443   4.747  17.120  0.0848 -0.1071 -0.8212
11578TIP3    H256226   1.372   4.777  17.250 -1.1631 -3.5253 -0.6599
11579TIP3   OH256227   5.015   4.941  14.200 -0.4871 -0.2280  0.0932
11579TIP3    H156228   4.920   4.943  14.189 -0.5503 -0.7893  0.4933
11579TIP3    H256229   5.028   4.951  14.294 -0.2744 -2.8087  0.3786
11580TIP3   OH256230   3.957   4.909  10.447 -0.2966 -0.3640  0.0687
11580TIP3    H156231   3.971   4.902  10.541  0.3714  2.6371  0.2357
11580TIP3    H256232   3.914   4.993  10.434  2.0717  0.5459 -2.5057
11581TIP3   OH256233   6.055   0.337  15.731 -0.0206  0.3435 -0.2465
11581TIP3    H156234   6.005   0.258  15.709  0.7074  0.0673 -0.9398
11581TIP3    H256235   6.042   0.396  15.657 -0.8100  1.0012  0.4110
11582TIP3   OH256236   5.246   3.446  13.812 -0.5339  0.3459  0.9907
11582TIP3    H156237   5.317   3.383  13.815 -0.8970 -0.2437 -1.2820
11582TIP3    H256238   5.174   3.398  13.770 -0.7960  2.2404 -0.8292
11583TIP3   OH256239   6.555   3.405   1.070 -0.4282  0.3309  0.5085
11583TIP3    H156240   6.643   3.368   1.073  0.2862  1.9640  0.3182
11583TIP3    H256241   6.535   3.412   0.976 -1.1738 -0.9619  0.5598
11584TIP3   OH256242   2.954   2.117   5.745 -0.1053 -0.0690  0.1310
11584TIP3    H156243   2.920   2.103   5.833 -0.2106 -1.4584 -0.1183
11584TIP3    H256244   3.049   2.105   5.754 -0.2558 -1.6811 -0.1997
11585TIP3   OH256245   4.338   5.312  14.618 -0.1611  0.4969  0.2618
11585TIP3    H156246   4.352   5.272  14.532 -0.0482 -0.4029  0.6947
11585TIP3    H256247   4.251   5.350  14.613 -0.2737  0.1854 -0.1451
11586TIP3   OH256248   6.069   2.484   3.331  0.2245 -0.5067 -0.0508
11586TIP3    H156249   6.091   2.500   3.423  0.3090  0.8753 -0.3005
11586TIP3    H256250   6.133   2.420   3.302  1.9643  1.1374  0.0964
11587TIP3   OH256251   4.521   1.974   0.153 -0.3415  0.8013 -0.4324
11587TIP3    H156252   4.468   1.908   0.108 -0.0484 -1.2098  2.0261
11587TIP3    H256253   4.601   1.980   0.100 -0.6599 -0.3342 -1.0742
11588TIP3   OH256254   5.599   0.301   2.999 -0.1155  0.0230 -0.1024
11588TIP3    H156255   5.680   0.316   3.047 -1.0651  0.6774  1.2950
11588TIP3    H256256   5.628   0.286   2.908  1.7276 -1.9154  0.7587
11589TIP3   OH256257   2.267   2.632  15.471  0.5009  0.0743 -0.5377
11589TIP3    H156258   2.269   2.623  15.376  0.3168  2.3770 -0.7928
11589TIP3    H256259   2.286   2.725  15.487 -1.8068  0.2550  1.5425
11590TIP3   OH256260   4.891   2.871   3.056  0.2749 -0.2371 -0.2806
11590TIP3    H156261   4.796   2.867   3.064  0.3149 -0.6287 -0.0033
11590TIP3    H256262   4.909   2.963   3.033 -0.1436 -0.0985 -0.0609
11591TIP3   OH256263   1.793   3.526  15.207 -0.1712  0.1344  0.1491
11591TIP3    H156264   1.880   3.562  15.221  0.5568 -0.1510 -3.1001
11591TIP3    H256265   1.735   3.580  15.260  1.6854  1.9453  0.3952
11592TIP3   OH256266   6.638   1.518  16.157 -0.1784 -0.0165 -0.0554
11592TIP3    H156267   6.702   1.448  16.147  0.2618  0.2628  0.8489
11592TIP3    H256268   6.647   1.569  16.076 -0.2462 -0.7737 -0.5562
11593TIP3   OH256269   3.481   4.192  15.577  0.0387  1.0520 -0.3026
11593TIP3    H156270   3.530   4.256  15.525  1.1357  1.0363  0.6713
11593TIP3    H256271   3.532   4.111  15.569 -0.1681  0.8703  0.2174
11594TIP3   OH256272   3.978   0.908  10.415  0.3908  0.2603 -0.7342
11594TIP3    H156273   4.024   0.946  10.490 -0.4716 -1.0922  0.5387
11594TIP3    H256274   4.046   0.888  10.351  1.3491 -0.0323  0.3616
11595TIP3   OH256275   4.053   3.729   3.707 -0.2324  0.1664  0.1236
11595TIP3    H156276   4.036   3.821   3.688  0.6158  0.1045 -0.9955
11595TIP3    H256277   4.139   3.712   3.668 -0.6810 -1.2666 -0.2605
11596TIP3   OH256278   5.503   1.215   0.367  0.5178 -0.2526 -0.4021
11596TIP3    H156279   5.521   1.234   0.459 -2.3187 -0.0096  0.1379
11596TIP3    H256280   5.589   1.205   0.327  1.7862  0.0927  2.1853
11597TIP3   OH256281   5.825   1.196   4.954 -0.1521  0.0246  0.7218
11597TIP3    H156282   5.793   1.284   4.974 -0.5927 -0.6773  3.3158
11597TIP3    H256283   5.799   1.181   4.863 -1.3388  2.0195  0.7094
11598TIP3   OH256284   2.261   2.614  13.677 -0.4006 -0.1120  0.1588
11598TIP3    H156285   2.167   2.620  13.664 -0.6218 -1.7385  0.9246
11598TIP3    H256286   2.272   2.559  13.754  1.1649  0.4593  0.3715
11599TIP3   OH256287   3.669   5.556   4.491  0.4519  1.0653  0.2353
11599TIP3    H156288   3.645   5.551   4.583  0.2108 -0.0400  0.1196
11599TIP3    H256289   3.675   5.649   4.472  3.5915  1.3094  2.1696
11600TIP3   OH256290   2.265   6.077   4.919  0.5379  0.1092  0.1344
11600TIP3    H156291   2.206   6.002   4.925  0.9819 -0.2409  0.1402
11600TIP3    H256292   2.257   6.107   4.829 -1.7036  1.7510  0.8065
11601TIP3   OH256293   3.622   1.330  16.937 -0.0219  0.6591 -0.1287
11601TIP3    H156294   3.662   1.243  16.929  0.8918  1.0176  0.3597
11601TIP3    H256295   3.528   1.316  16.925  0.2945 -0.1375 -1.8324
11602TIP3   OH256296   5.629   1.564   1.900  0.0491 -0.2303 -0.0391
11602TIP3    H156297   5.659   1.646   1.861 -4.0884  1.9000  0.9836
11602TIP3    H256298   5.634   1.501   1.829 -0.5959  1.8989 -2.0386
11603TIP3   OH256299   0.709   3.175  16.375  0.2679 -0.2383 -0.2626
11603TIP3    H156300   0.745   3.260  16.399  1.8690 -1.6334  2.5666
11603TIP3    H256301   0.785   3.118  16.364 -0.8522 -1.8997  0.2557
11604TIP3   OH256302   0.391   3.419   0.728  0.1982  0.0901  0.0799
11604TIP3    H156303   0.420   3.356   0.662 -0.2004 -0.9501  0.8940
11604TIP3    H256304   0.395   3.504   0.683  0.8742 -0.4875 -0.9729
11605TIP3   OH256305   6.601   4.911   4.194  0.2885 -0.2753  0.0138
11605TIP3    H156306   6.688   4.875   4.178  0.9141  0.9567  0.5558
11605TIP3    H256307   6.606   4.946   4.283 -1.5725 -2.5313  1.0424
11606TIP3   OH256308   6.678   3.144  14.291 -0.3578  0.5844 -0.2814
11606TIP3    H156309   6.718   3.144  14.378  0.9504 -0.3122 -0.8691
11606TIP3    H256310   6.667   3.052  14.270 -0.0511  0.7787 -1.3327
11607TIP3   OH256311   0.519   5.582   3.813 -0.7515  0.4935 -0.0484
11607TIP3    H156312   0.442   5.638   3.809 -1.3611 -0.2033  1.5449
11607TIP3    H256313   0.486   5.494   3.792 -0.5021  0.1010  1.1750
11608TIP3   OH256314   5.947   4.147  11.754  0.2158 -0.0627 -0.1117
11608TIP3    H156315   6.003   4.223  11.771  2.3059 -1.1800 -1.7927
11608TIP3    H256316   5.951   4.096  11.835  0.3435  0.6393  0.3297
11609TIP3   OH256317   4.519   6.395  12.844  0.4434  0.5787  0.5413
11609TIP3    H156318   4.501   6.312  12.888 -2.2534  0.6004 -0.4335
11609TIP3    H256319   4.610   6.388  12.815  0.6196 -1.5298  1.5228
11610TIP3   OH256320   0.619   3.416   6.116 -0.2186 -0.0179  0.4513
11610TIP3    H156321   0.640   3.450   6.203 -2.1412  2.3698  0.0232
11610TIP3    H256322   0.596   3.325   6.131  1.9234 -0.3523  2.0731
11611TIP3   OH256323   6.577   1.136  16.911  0.5735 -0.1191 -0.0691
11611TIP3    H156324   6.522   1.214  16.918  2.9106  1.6912 -1.1813
11611TIP3    H256325   6.641   1.145  16.982  1.9663 -0.0788 -1.2975
11612TIP3   OH256326   2.365   5.664  16.814 -0.0084  0.0263  0.1423
11612TIP3    H156327   2.392   5.587  16.864  2.6176 -0.2448 -1.5968
11612TIP3    H256328   2.309   5.713  16.874  0.1305 -2.1023  2.0640
11613TIP3   OH256329   2.047   5.995   3.990 -0.3862 -0.3299  0.5168
11613TIP3    H156330   2.070   6.038   4.072 -0.1653  1.6821 -0.5432
11613TIP3    H256331   2.128   5.997   3.938 -0.0561 -3.1002  0.8445
11614TIP3   OH256332   0.172   2.530   2.936  0.0443 -0.4899  0.1366
11614TIP3    H156333   0.208   2.611   2.900  1.6216 -1.0157  0.4995
11614TIP3    H256334   0.195   2.532   3.029 -2.3212 -0.0633  0.7394
11615TIP3   OH256335   1.612   5.212  17.139 -0.2022 -0.9643 -0.4475
11615TIP3    H156336   1.696   5.232  17.181 -0.3851  0.8737 -0.8942
11615TIP3    H256337   1.634   5.150  17.069  0.5200 -1.8015  0.5102
11616TIP3   OH256338   0.897   0.864   0.728 -0.2430  0.5690 -0.0862
11616TIP3    H156339   0.849   0.906   0.799  2.8956  2.1996  1.1587
11616TIP3    H256340   0.941   0.936   0.683  1.3627 -0.8879 -0.9075
11617TIP3   OH256341   2.692   3.155  14.300 -0.1247 -0.3713  0.5745
11617TIP3    H156342   2.626   3.161  14.230 -0.3112  0.8954  0.8319
11617TIP3    H256343   2.643   3.175  14.380  0.2251 -1.1517  0.9765
11618TIP3   OH256344   5.528   6.059  15.682  0.2878 -0.1244 -0.0546
11618TIP3    H156345   5.546   6.054  15.776  0.8549 -1.0974 -0.2049
11618TIP3    H256346   5.583   5.990  15.644 -0.5688 -0.2856 -1.0054
11619TIP3   OH256347   4.034   0.583  11.129 -0.5508  0.4068  0.3658
11619TIP3    H156348   4.124   0.574  11.160 -0.3888 -0.6977 -0.3985
11619TIP3    H256349   3.986   0.514  11.176 -0.8513  0.5194  0.2226
11620TIP3   OH256350   1.404   6.372   6.803  0.3989 -0.2221 -0.2449
11620TIP3    H156351   1.400   6.426   6.882  1.5160 -1.2746  0.5450
11620TIP3    H256352   1.477   6.312   6.819  0.0486 -1.0423 -1.6991
11621TIP3   OH256353   0.935   0.236  15.052 -0.0187 -0.6119  0.1401
11621TIP3    H156354   0.847   0.207  15.028 -0.1921 -0.2850  0.3727
11621TIP3    H256355   0.967   0.169  15.112  0.3879 -1.3926 -0.9494
11622TIP3   OH256356   5.473   6.057   0.450  0.1756 -0.1325  0.1258
11622TIP3    H156357   5.560   6.057   0.411  0.1636 -0.5647  0.0891
11622TIP3    H256358   5.415   6.026   0.380 -0.4180  2.6549 -0.6868
11623TIP3   OH256359   4.951   1.424  11.720  0.0654 -0.7420  0.2980
11623TIP3    H156360   4.999   1.373  11.784 -0.0029 -1.7671 -0.4520
11623TIP3    H256361   5.018   1.458  11.660 -0.0011 -0.9402  0.1106
11624TIP3   OH256362   2.128   1.016   4.827  0.1514  0.2016 -0.0509
11624TIP3    H156363   2.115   0.941   4.769  2.6739 -1.6324  1.6592
11624TIP3    H256364   2.114   1.092   4.770 -2.7416 -1.4991 -1.7617
11625TIP3   OH256365   1.500   3.936  14.440 -0.0611 -0.1427  0.1010
11625TIP3    H156366   1.475   4.018  14.398  0.3943  0.0039  0.1090
11625TIP3    H256367   1.568   3.962  14.503 -2.2970 -0.0207  2.5163
11626TIP3   OH256368   4.199   6.747  13.339 -0.1282 -0.3311  0.7714
11626TIP3    H156369   4.270   6.808  13.319  0.4992 -1.0035  0.9286
11626TIP3    H256370   4.134   6.800  13.384 -0.4842  0.6671 -0.8821
11627TIP3   OH256371   6.590   4.025  14.170 -0.3616 -0.4640 -0.0530
11627TIP3    H156372   6.564   4.116  14.181  0.8973 -0.1335  0.1875
11627TIP3    H256373   6.555   3.981  14.248  1.6613  0.3902  1.3738
11628TIP3   OH256374   6.314   1.785  13.030 -0.5611 -0.2285 -0.3666
11628TIP3    H156375   6.239   1.784  13.089  0.6770  2.4381  1.3535
11628TIP3    H256376   6.277   1.812  12.946 -1.7309 -0.2265  0.1332
11629TIP3   OH256377   3.075   3.343  15.049  0.2642  0.3278  0.5837
11629TIP3    H156378   3.083   3.379  15.137  0.0238 -0.0653  0.7684
11629TIP3    H256379   2.984   3.313  15.043  0.3764  0.0369  0.3224
11630TIP3   OH256380   1.792   3.305  16.428  0.5504 -0.0622 -0.3830
11630TIP3    H156381   1.707   3.297  16.385 -0.2486 -0.0603  1.1618
11630TIP3    H256382   1.856   3.286  16.359 -0.7468 -1.7884 -1.1343
11631TIP3   OH256383   1.672   4.194   4.871 -0.1130  0.3698 -0.7315
11631TIP3    H156384   1.727   4.171   4.946  0.7707  0.8912 -1.2088
11631TIP3    H256385   1.632   4.112   4.844  0.5841 -0.0564 -0.4863
11632TIP3   OH256386   1.041   2.873  15.180  0.0354  0.1556  0.0075
11632TIP3    H156387   0.956   2.869  15.136 -0.1371  0.2952  0.3260
11632TIP3    H256388   1.096   2.811  15.131 -0.8940 -1.6644  1.1966
11633TIP3   OH256389   2.401   2.219  12.963  0.2602 -0.6710 -0.0755
11633TIP3    H156390   2.463   2.292  12.974 -0.1469 -0.5071  1.2433
11633TIP3    H256391   2.359   2.236  12.879  0.4515  0.4237  0.0357
11634TIP3   OH256392   2.316   0.461  10.780 -0.5224  0.1381  0.4713
11634TIP3    H156393   2.369   0.509  10.844 -0.5967 -1.3513  1.6880
11634TIP3    H256394   2.228   0.496  10.791 -0.2508  0.9343  0.1340
11635TIP3   OH256395   2.619   0.816   1.959 -0.3163  0.1683 -0.0567
11635TIP3    H156396   2.663   0.862   1.887 -1.4842  0.4283 -0.6206
11635TIP3    H256397   2.533   0.856   1.964 -0.5365 -0.4128  0.9599
11636TIP3   OH256398   3.252   5.929  13.284 -0.1279  0.1911 -0.0450
11636TIP3    H156399   3.294   5.892  13.207  0.2814  0.6865 -0.0652
11636TIP3    H256400   3.160   5.937  13.260  0.0740  0.7570 -0.6481
11637TIP3   OH256401   0.484   4.941  15.387 -0.0218 -0.1137  0.5253
11637TIP3    H156402   0.441   4.857  15.376 -1.5891  0.4645  1.9363
11637TIP3    H256403   0.537   4.931  15.467  0.5071 -0.0397  0.1864
11638TIP3   OH256404   3.972   2.792  12.311  0.1574  0.5602  0.0199
11638TIP3    H156405   3.973   2.864  12.374 -1.0645  0.3149  0.3403
11638TIP3    H256406   3.941   2.832  12.229  0.1349  0.5369  0.0177
11639TIP3   OH256407   3.326   0.990  11.190 -0.9015  0.1083 -0.2202
11639TIP3    H156408   3.366   0.904  11.204 -1.4359 -0.2561 -0.8696
11639TIP3    H256409   3.376   1.049  11.245 -0.5924 -0.6425  0.3136
11640TIP3   OH256410   0.506   0.752  12.084 -0.2030  0.2443 -0.0294
11640TIP3    H156411   0.477   0.767  12.174 -1.6108 -0.6798 -0.3104
11640TIP3    H256412   0.425   0.746  12.033  0.5374 -0.4499 -1.1492
11641TIP3   OH256413   1.310   6.086   1.420 -0.1984  0.6809  0.4654
11641TIP3    H156414   1.280   6.170   1.384  0.5483  0.5947 -0.3726
11641TIP3    H256415   1.400   6.102   1.447 -0.5961  0.6049  1.8660
11642TIP3   OH256416   5.717   0.881  10.476  0.2429 -0.1662 -0.3648
11642TIP3    H156417   5.637   0.904  10.428  1.0825 -0.6733 -2.0393
11642TIP3    H256418   5.775   0.845  10.409  1.7098 -0.2170  0.9240
11643TIP3   OH256419   4.738   1.278  16.363 -0.4064 -0.3913 -0.3506
11643TIP3    H156420   4.742   1.182  16.373 -1.2952 -0.2081  2.3234
11643TIP3    H256421   4.819   1.309  16.402 -1.3358  0.0615  1.2930
11644TIP3   OH256422   3.737   1.641  11.481  0.2215  0.2059 -0.1450
11644TIP3    H156423   3.660   1.591  11.506  1.7427 -1.7022  0.8608
11644TIP3    H256424   3.739   1.715  11.541 -1.4961  0.9505 -0.9879
11645TIP3   OH256425   6.066   0.120  14.091 -0.5025  0.5019 -0.0229
11645TIP3    H156426   6.111   0.051  14.141 -0.5341  0.6250  0.1745
11645TIP3    H256427   5.981   0.081  14.068  0.4422 -0.4547 -2.0622
11646TIP3   OH256428   5.584   6.179   1.814  0.7025 -0.0491 -0.2247
11646TIP3    H156429   5.528   6.117   1.860  0.4777  1.5626  1.7592
11646TIP3    H256430   5.546   6.185   1.727 -0.5997 -1.0192  0.2487
11647TIP3   OH256431   5.636   1.932   0.295 -0.3657 -0.2913  0.2257
11647TIP3    H156432   5.598   1.845   0.283 -0.7739 -0.0428 -0.2931
11647TIP3    H256433   5.574   1.977   0.353  0.3353 -0.6619  1.2755
11648TIP3   OH256434   3.748   1.793   4.569  0.1606  0.0473 -0.1611
11648TIP3    H156435   3.841   1.788   4.549 -0.0655 -1.3663 -0.8866
11648TIP3    H256436   3.724   1.883   4.546  1.1507  0.1679 -0.7755
11649TIP3   OH256437   0.241   2.643  11.546 -0.2895  0.4080  0.5540
11649TIP3    H156438   0.290   2.707  11.495  0.3823 -0.4624  0.0879
11649TIP3    H256439   0.277   2.648  11.634  1.2125 -0.7790  0.0357
11650TIP3   OH256440   1.185   3.929   0.745  0.2933 -0.5455 -0.2300
11650TIP3    H156441   1.132   3.902   0.670  2.4845  0.2889 -2.1594
11650TIP3    H256442   1.244   3.855   0.761 -0.9839 -1.2212  1.5046
11651TIP3   OH256443   3.977   0.924  12.490  0.3468 -0.5267  0.2132
11651TIP3    H156444   4.037   0.858  12.524 -1.9326 -2.8462 -0.1120
11651TIP3    H256445   3.909   0.933  12.557  1.0991  2.1935  0.6705
11652TIP3   OH256446   6.420   6.797   1.391  0.1579 -0.7297  0.3407
11652TIP3    H156447   6.385   6.764   1.309  0.8483 -0.6021 -0.0099
11652TIP3    H256448   6.514   6.810   1.374  0.3191 -0.7801  1.1680
11653TIP3   OH256449   1.679   4.297   4.316 -0.2997  0.2044  0.1329
11653TIP3    H156450   1.687   4.378   4.367  1.0400  0.1955 -0.0352
11653TIP3    H256451   1.767   4.258   4.319 -1.1165 -1.6491  0.8712
11654TIP3   OH256452   3.545   6.238  13.507  0.0820  0.4623 -0.6631
11654TIP3    H156453   3.496   6.308  13.551 -1.3586 -0.1258 -1.3144
11654TIP3    H256454   3.605   6.285  13.448  1.6304  1.2373  1.4582
11655TIP3   OH256455   4.107   2.931   4.873 -0.1159 -0.2364 -0.3194
11655TIP3    H156456   4.187   2.940   4.821 -0.6003  0.8595 -0.9037
11655TIP3    H256457   4.129   2.868   4.941  1.6858  1.0845  0.3613
11656TIP3   OH256458   6.276   5.030   5.777  0.4725 -0.1986 -0.2533
11656TIP3    H156459   6.339   4.969   5.814 -0.8791 -0.5820  1.4912
11656TIP3    H256460   6.298   5.115   5.815 -0.2485 -0.3948  0.6267
11657TIP3   OH256461   3.087   4.871   1.954  0.4643  0.7327 -0.1747
11657TIP3    H156462   3.002   4.912   1.941  0.0654  0.0140  0.1429
11657TIP3    H256463   3.119   4.907   2.037  1.6714  3.0275 -1.5801
11658TIP3   OH256464   5.156   1.262  11.835 -0.2272  0.4257  0.2418
11658TIP3    H156465   5.241   1.301  11.818 -0.3943  0.8890  0.4461
11658TIP3    H256466   5.143   1.273  11.929  0.7049 -2.1492  0.7023
11659TIP3   OH256467   3.933   0.439   6.142  0.7521  0.6432 -0.0585
11659TIP3    H156468   3.895   0.417   6.226 -0.6536  2.0465 -0.3111
11659TIP3    H256469   4.027   0.450   6.160  0.4661  0.9137  1.3181
11660TIP3   OH256470   0.620   4.209   3.733  0.4695 -0.3346 -0.3465
11660TIP3    H156471   0.631   4.299   3.701 -0.2424 -0.6800 -1.5680
11660TIP3    H256472   0.709   4.181   3.754  0.8430  0.2148 -1.1585
11661TIP3   OH256473   0.227   5.710  15.412  0.3312  0.2541  0.4145
11661TIP3    H156474   0.186   5.788  15.373 -0.9346 -0.0820  1.0321
11661TIP3    H256475   0.300   5.744  15.463  2.1694  0.7007 -2.3661
11662TIP3   OH256476   5.445   3.181   1.543  0.2346  0.3284  0.0929
11662TIP3    H156477   5.376   3.121   1.573  0.2397 -0.2797 -1.0663
11662TIP3    H256478   5.407   3.224   1.466  1.5529 -0.8753 -1.2609
11663TIP3   OH256479   5.963   6.480   4.261 -0.0084  0.1799 -0.0277
11663TIP3    H156480   5.995   6.416   4.197  2.7291  1.9585 -0.5781
11663TIP3    H256481   5.905   6.431   4.318  2.1835 -2.8673 -0.2757
11664TIP3   OH256482   3.532   2.499   5.698 -0.2922  0.0574  0.5227
11664TIP3    H156483   3.578   2.446   5.633 -0.5612 -1.0678  1.2481
11664TIP3    H256484   3.594   2.508   5.770 -0.3161  0.5842  0.4821
11665TIP3   OH256485   5.265   1.893  14.418  0.1608  0.2858 -0.2735
11665TIP3    H156486   5.319   1.913  14.342  1.0388  1.6916  0.6927
11665TIP3    H256487   5.206   1.968  14.427  0.8629  0.6989  1.1000
11666TIP3   OH256488   2.310   3.230   3.860  0.0271  0.5957  0.3110
11666TIP3    H156489   2.381   3.284   3.825 -0.1564  1.2792  0.9712
11666TIP3    H256490   2.256   3.210   3.784  0.4892  0.7419 -0.0631
11667TIP3   OH256491   2.134   5.317   2.855  0.5892 -0.7843  0.0553
11667TIP3    H156492   2.137   5.247   2.789  0.4093 -2.6676  2.0047
11667TIP3    H256493   2.139   5.271   2.939  1.1902  1.6070  1.3627
11668TIP3   OH256494   6.534   6.662  16.562 -0.4896 -0.1211 -0.1288
11668TIP3    H156495   6.513   6.662  16.469  3.5593 -2.6345 -1.1857
11668TIP3    H256496   6.595   6.736  16.572 -0.7721  0.0309  0.5051
11669TIP3   OH256497   2.504   3.254  13.605  0.0784  0.5746  0.3529
11669TIP3    H156498   2.539   3.207  13.681  0.5660  0.8422  0.2951
11669TIP3    H256499   2.412   3.272  13.628  0.5179  1.6066  1.3373
11670TIP3   OH256500   1.002   2.790   4.113 -0.1717  0.5751 -0.0862
11670TIP3    H156501   0.949   2.767   4.189  1.0863  2.3645  1.3593
11670TIP3    H256502   1.038   2.876   4.134  0.7850  0.7646 -2.3962
11671TIP3   OH256503   4.486   6.170  11.583  0.3227  0.0274  0.4875
11671TIP3    H156504   4.477   6.090  11.531  1.2505 -1.1654  2.1077
11671TIP3    H256505   4.426   6.232  11.542 -1.4931 -1.9540  0.0287
11672TIP3   OH256506   2.202   2.202  14.275  0.0573 -0.1901  0.4002
11672TIP3    H156507   2.289   2.166  14.288  1.2497  1.4815 -2.4173
11672TIP3    H256508   2.199   2.279  14.331  0.3566 -0.2784  0.5381
11673TIP3   OH256509   4.391   4.246   0.264 -0.1752 -0.0961  0.1306
11673TIP3    H156510   4.351   4.181   0.323  0.1316 -0.9433 -0.5742
11673TIP3    H256511   4.339   4.241   0.184  1.4980 -1.4342 -0.9124
11674TIP3   OH256512   0.156   2.807   1.804  0.2021  0.0426  0.2222
11674TIP3    H156513   0.074   2.800   1.754  0.4413 -1.2931 -0.0077
11674TIP3    H256514   0.189   2.717   1.808  1.1234  0.4185  1.2241
11675TIP3   OH256515   1.093   5.123   1.294  0.3576 -0.5877  0.0994
11675TIP3    H156516   1.099   5.090   1.204 -0.7759  0.2951 -0.3141
11675TIP3    H256517   1.143   5.204   1.293 -0.3548 -0.1450  0.0457
11676TIP3   OH256518   5.165   5.401  15.595  0.0079  0.1007  0.0935
11676TIP3    H156519   5.082   5.416  15.549  0.2428  0.0691 -0.3449
11676TIP3    H256520   5.232   5.417  15.529  0.2979 -1.6824 -0.0628
11677TIP3   OH256521   5.945   1.080  14.732 -0.2462 -0.6808 -0.1091
11677TIP3    H156522   6.029   1.081  14.778 -1.0899 -1.9088  1.4786
11677TIP3    H256523   5.946   0.998  14.682 -0.4746 -0.6450 -0.1735
11678TIP3   OH256524   2.019   2.950  14.837  0.5144  0.3438 -0.6735
11678TIP3    H156525   1.976   3.031  14.811 -1.7646 -0.2416  1.1116
11678TIP3    H256526   2.113   2.969  14.830  0.0035  2.4140 -2.3216
11679TIP3   OH256527   1.192   0.322   4.725  0.4352  0.7090 -0.0604
11679TIP3    H156528   1.164   0.385   4.658 -0.8498  0.0757 -0.1518
11679TIP3    H256529   1.215   0.376   4.800 -2.7375  1.2646  0.6234
11680TIP3   OH256530   3.392   5.955   1.164  0.4803  0.2594  0.4149
11680TIP3    H156531   3.356   5.954   1.252 -0.2215 -1.7759  0.1082
11680TIP3    H256532   3.487   5.960   1.177  0.3316  0.9622  1.2570
11681TIP3   OH256533   2.664   4.268  13.402 -0.3705  0.1906 -0.4099
11681TIP3    H156534   2.643   4.338  13.339  0.8931  0.2165 -0.8100
11681TIP3    H256535   2.730   4.306  13.459  0.7523 -0.8691 -0.9856
11682TIP3   OH256536   1.262   1.493   3.144 -0.1275  0.3028 -0.0264
11682TIP3    H156537   1.181   1.488   3.195  0.1368  0.0755  0.3709
11682TIP3    H256538   1.332   1.492   3.209  0.2337 -0.7773 -0.4246
11683TIP3   OH256539   3.319   1.375   5.492 -0.3192  0.4380 -0.0356
11683TIP3    H156540   3.311   1.459   5.538 -0.0969 -0.8699  2.4577
11683TIP3    H256541   3.253   1.379   5.423 -1.6586  1.8761  1.3049
11684TIP3   OH256542   4.536   4.624   5.151 -0.0562  0.1034 -0.1022
11684TIP3    H156543   4.627   4.598   5.168  0.5592  1.9553 -0.5127
11684TIP3    H256544   4.521   4.699   5.208 -1.4126 -0.3521  0.1455
11685TIP3   OH256545   6.493   0.414   5.699 -0.1022 -0.0530  0.0061
11685TIP3    H156546   6.526   0.497   5.664 -1.9550 -0.0827 -1.8763
11685TIP3    H256547   6.564   0.382   5.754  1.8663  1.2846 -1.6695
11686TIP3   OH256548   4.397   4.734  14.282  0.4718  0.0336  0.2373
11686TIP3    H156549   4.354   4.790  14.218 -0.3414  0.2030  0.9257
11686TIP3    H256550   4.448   4.672  14.230 -0.4283 -0.0247 -0.5716
11687TIP3   OH256551   1.499   5.358  12.736  0.5519 -0.1741 -0.1502
11687TIP3    H156552   1.572   5.367  12.674  0.0061  0.5347 -0.6954
11687TIP3    H256553   1.421   5.364  12.681  0.0544  1.1544  0.6945
11688TIP3   OH256554   1.062   5.517  17.091 -0.2708  0.1718 -0.1588
11688TIP3    H156555   1.049   5.538  17.183 -0.9622 -5.3819  1.1924
11688TIP3    H256556   0.983   5.549  17.048 -1.6435 -0.4517  1.8297
11689TIP3   OH256557   0.698   4.547   4.598  0.0076  0.3307 -0.3348
11689TIP3    H156558   0.630   4.582   4.540  0.3678  0.0640 -0.9127
11689TIP3    H256559   0.708   4.615   4.665 -0.3693  0.6666 -0.6119
11690TIP3   OH256560   0.096   2.642  11.974  0.0721 -0.2399 -0.0643
11690TIP3    H156561   0.093   2.571  12.040  1.8347 -0.6045 -0.3415
11690TIP3    H256562   0.145   2.712  12.017 -2.5682  1.2873  0.5974
11691TIP3   OH256563   1.027   0.516   6.404  0.4888  0.2634 -0.0216
11691TIP3    H156564   1.062   0.548   6.487 -0.6797  0.6113  0.3372
11691TIP3    H256565   0.953   0.461   6.428  0.0527  0.4843 -0.8521
11692TIP3   OH256566   5.746   0.179   5.733  0.2618  0.3054  0.3818
11692TIP3    H156567   5.742   0.087   5.760 -1.0315 -0.0170 -0.8633
11692TIP3    H256568   5.754   0.228   5.815  1.0772 -0.9089  1.0496
11693TIP3   OH256569   3.030   1.948  12.360 -0.2502 -0.3900  0.4175
11693TIP3    H156570   3.005   1.862  12.393  1.0188 -1.5234 -1.4644
11693TIP3    H256571   3.102   1.975  12.416 -1.5970  0.1321  1.9424
11694TIP3   OH256572   1.193   4.543  17.144  0.4111  0.2064 -0.6880
11694TIP3    H156573   1.114   4.595  17.159 -0.8441 -2.3272  1.9156
11694TIP3    H256574   1.241   4.548  17.226  1.2712 -1.0263 -1.0993
11695TIP3   OH256575   3.958   1.164  16.399 -0.5059  0.6068  0.5233
11695TIP3    H156576   4.051   1.153  16.381 -0.9997 -0.6268 -1.4674
11695TIP3    H256577   3.955   1.209  16.484  1.8803  0.6962  0.5998
11696TIP3   OH256578   1.137   5.931   2.528  0.8841  0.8059 -0.3689
11696TIP3    H156579   1.113   5.907   2.438  1.9111 -0.4368 -0.3225
11696TIP3    H256580   1.233   5.938   2.526  0.9865 -0.0917  0.8234
11697TIP3   OH256581   6.800   4.001  12.780  0.1776  0.3077  0.4647
11697TIP3    H156582   6.844   3.917  12.768  1.4594  0.8776  1.0831
11697TIP3    H256583   6.729   3.983  12.842  1.4792  0.0227  1.8805
11698TIP3   OH256584   0.053   3.455  16.233 -0.0452  0.2122  0.0749
11698TIP3    H156585   0.044   3.429  16.325  0.0032  0.0013  0.0232
11698TIP3    H256586   0.047   3.372  16.185  0.0952  0.3042 -0.1010
11699TIP3   OH256587   4.441   0.540  12.689  0.6689 -0.0296 -0.0062
11699TIP3    H156588   4.387   0.505  12.618  1.1384 -1.9229  0.5396
11699TIP3    H256589   4.399   0.509  12.769  1.5150  0.0663  0.4822
11700TIP3   OH256590   1.032   0.881   1.946  0.5798  0.3586 -0.2670
11700TIP3    H156591   0.962   0.835   1.899  1.1591 -0.2740 -0.5096
11700TIP3    H256592   1.027   0.971   1.913 -0.0535  0.2969 -0.3535
11701TIP3   OH256593   0.401   3.627   3.591 -0.3104 -0.5492 -0.3958
11701TIP3    H156594   0.336   3.652   3.526  0.4360 -0.8263 -1.2664
11701TIP3    H256595   0.408   3.532   3.582  0.4452 -0.4854 -0.5431
11702TIP3   OH256596   2.611   3.634   4.091  0.7525 -0.2606 -0.2069
11702TIP3    H156597   2.691   3.666   4.049  0.4598  1.1923  0.3099
11702TIP3    H256598   2.608   3.541   4.069  1.8546 -0.0320 -1.3901
11703TIP3   OH256599   0.339   0.657   2.836 -0.1726  0.1334  0.0386
11703TIP3    H156600   0.344   0.748   2.865 -3.3179  0.4002 -0.1449
11703TIP3    H256601   0.368   0.659   2.745  1.6417  0.6122  0.6065
11704TIP3   OH256602   5.094   4.195   2.687  0.2935  0.2831  0.4193
11704TIP3    H156603   5.150   4.272   2.695  2.1564 -1.1398  1.1605
11704TIP3    H256604   5.121   4.137   2.758  0.6998 -2.1982 -1.6813
11705TIP3   OH256605   0.299   4.463   0.895 -0.3409 -0.3325  0.2354
11705TIP3    H156606   0.329   4.537   0.843  0.1038 -0.6767  0.0040
11705TIP3    H256607   0.240   4.416   0.836 -0.1251 -0.5173  0.1686
11706TIP3   OH256608   3.938   3.600   5.552 -0.3078 -0.1806  0.2772
11706TIP3    H156609   3.983   3.684   5.559  1.8988 -1.5285  3.2904
11706TIP3    H256610   3.869   3.604   5.618 -0.9385 -0.3073 -0.3675
11707TIP3   OH256611   4.745   5.287   1.288 -0.2242 -0.4267 -1.2633
11707TIP3    H156612   4.832   5.326   1.279 -0.8842  1.4725  0.1941
11707TIP3    H256613   4.716   5.272   1.197  2.1993 -2.5197 -1.7497
11708TIP3   OH256614   4.613   0.962  14.729 -0.2900  1.0399  0.1351
11708TIP3    H156615   4.614   1.040  14.784  2.1369  0.1119  1.4882
11708TIP3    H256616   4.704   0.949  14.703 -0.9861 -0.0593 -1.9577
11709TIP3   OH256617   3.348   5.978   6.149  0.0728 -0.2041 -0.2302
11709TIP3    H156618   3.351   6.024   6.066 -1.3075  1.0776  0.4233
11709TIP3    H256619   3.326   5.888   6.126 -1.5474  0.4182 -1.1491
11710TIP3   OH256620   0.322   0.110   4.828  0.3833  0.2111  0.1229
11710TIP3    H156621   0.399   0.157   4.797 -0.3100  1.0928 -0.2925
11710TIP3    H256622   0.357   0.042   4.886  1.4926  0.3458 -0.3719
11711TIP3   OH256623   0.446   1.327  13.378 -0.2207  0.5567  0.2893
11711TIP3    H156624   0.521   1.298  13.327 -0.1760  2.3166 -0.6643
11711TIP3    H256625   0.371   1.286  13.336 -0.0547  0.9635 -0.4121
11712TIP3   OH256626   2.978   1.957  10.909 -0.4823 -0.2732  0.2370
11712TIP3    H156627   2.952   2.045  10.881 -1.1124 -0.2036  1.0252
11712TIP3    H256628   3.057   1.938  10.859 -1.4221 -0.0280 -1.3856
11713TIP3   OH256629   0.441   4.245  15.646  0.3158 -0.1623  0.0873
11713TIP3    H156630   0.397   4.165  15.617  0.5885 -0.7422  1.2199
11713TIP3    H256631   0.531   4.218  15.662  0.2623  0.2152  1.0809
11714TIP3   OH256632   6.144   3.027  12.713 -0.0604 -0.6204 -0.0992
11714TIP3    H156633   6.107   2.940  12.723 -1.8705  0.2902  1.6428
11714TIP3    H256634   6.237   3.017  12.733 -0.3474 -2.0636  0.5022
11715TIP3   OH256635   2.274   4.048   4.780 -0.2381 -0.6572 -0.0644
11715TIP3    H156636   2.181   4.037   4.759 -0.3185  0.0370 -0.0741
11715TIP3    H256637   2.294   4.138   4.754  0.3492 -0.6882  0.2755
11716TIP3   OH256638   2.170   4.967   3.669 -0.1674  0.4382 -0.5164
11716TIP3    H156639   2.163   4.977   3.764  1.4564  2.6724 -0.5893
11716TIP3    H256640   2.090   4.922   3.644 -0.7246  0.0073  1.8928
11717TIP3   OH256641   2.705   6.263   5.793  0.7942  0.0049  0.1499
11717TIP3    H156642   2.694   6.266   5.698  1.3577 -0.8586  0.0463
11717TIP3    H256643   2.697   6.170   5.815 -0.9402  0.3622  1.1535
11718TIP3   OH256644   3.670   4.520   4.164 -0.6006 -0.2063 -0.3539
11718TIP3    H156645   3.752   4.471   4.153 -1.0838 -1.7751  2.4158
11718TIP3    H256646   3.658   4.524   4.259 -3.5151  0.3651 -0.7163
11719TIP3   OH256647   1.044   6.762   3.645 -0.2735 -0.2410 -0.3701
11719TIP3    H156648   1.022   6.846   3.685 -0.6564 -0.6570  0.2899
11719TIP3    H256649   0.963   6.735   3.601 -0.5240 -0.8669  0.4754
11720TIP3   OH256650   4.510   1.811   6.332 -0.2057  0.0588  0.1044
11720TIP3    H156651   4.416   1.827   6.323 -0.7306 -2.4964  0.5817
11720TIP3    H256652   4.525   1.809   6.426  0.3346  0.5057  0.0281
11721TIP3   OH256653   6.619   1.612  13.197 -0.4057  0.1308 -0.0575
11721TIP3    H156654   6.611   1.610  13.293  1.2600 -1.0504  0.0976
11721TIP3    H256655   6.620   1.520  13.172 -2.7158  0.4587 -1.4161
11722TIP3   OH256656   0.769   4.647  15.298 -0.3085 -0.1791 -0.1171
11722TIP3    H156657   0.739   4.558  15.281  0.8091 -0.4746 -0.5882
11722TIP3    H256658   0.744   4.664  15.389 -1.7110 -0.4774 -0.4388
11723TIP3   OH256659   5.481   4.105   3.822 -0.0757 -0.4398  0.3979
11723TIP3    H156660   5.430   4.106   3.741 -1.3442 -0.1727  1.1784
11723TIP3    H256661   5.474   4.015   3.854 -1.2897 -0.0652  1.2446
11724TIP3   OH256662   6.338   0.958  12.219 -0.1436  0.0388 -0.7412
11724TIP3    H156663   6.355   0.916  12.304 -3.3508  0.9907  0.4542
11724TIP3    H256664   6.376   0.897  12.155  4.5896  0.5055  1.3857
11725TIP3   OH256665   0.175   1.328  12.800  0.3464  0.6726 -0.0218
11725TIP3    H156666   0.262   1.344  12.836 -0.0034 -1.5966  2.0191
11725TIP3    H256667   0.187   1.329  12.705  2.3043  1.7707  0.2078
11726TIP3   OH256668   2.660   0.198   5.491 -0.5040 -0.3448  0.0999
11726TIP3    H156669   2.637   0.284   5.455  1.8002  0.2858  0.0692
11726TIP3    H256670   2.595   0.183   5.560 -1.3846  1.0619 -0.3951
11727TIP3   OH256671   6.702   6.801   1.346  0.8918 -0.0551  0.4742
11727TIP3    H156672   6.723   6.724   1.293  1.5626  0.8565 -0.6081
11727TIP3    H256673   6.779   6.813   1.402  1.3811  0.6335 -0.3323
11728TIP3   OH256674   3.997   3.855  16.979  0.2262 -0.0653  0.3882
11728TIP3    H156675   3.908   3.822  16.970 -0.2100  1.2301 -0.1163
11728TIP3    H256676   3.992   3.946  16.951  1.6300  0.1308  0.7405
11729TIP3   OH256677   1.972   5.488  12.011 -0.0904  0.2758  0.1624
11729TIP3    H156678   1.992   5.401  12.045  0.8108  0.4782  0.1480
11729TIP3    H256679   1.896   5.517  12.062 -0.4601 -0.5615  0.0906
11730TIP3   OH256680   5.031   3.431   2.564  1.0330  0.2969  0.2033
11730TIP3    H156681   5.018   3.525   2.576  0.8703  0.1418  1.2963
11730TIP3    H256682   5.050   3.421   2.471  1.6150  1.4726  0.1869
11731TIP3   OH256683   1.741   2.990  14.709 -0.3370 -0.6605 -0.7143
11731TIP3    H156684   1.754   3.084  14.719 -1.0332 -0.6172 -0.1597
11731TIP3    H256685   1.657   2.981  14.664 -1.7325 -1.0580  1.8891
11732TIP3   OH256686   3.577   3.597  15.585 -0.0168 -0.7362 -0.0991
11732TIP3    H156687   3.549   3.636  15.501 -0.3892 -1.1398 -0.1615
11732TIP3    H256688   3.532   3.513  15.589 -1.4501  0.0767  1.3616
11733TIP3   OH256689   4.437   3.398  12.523  0.5119 -0.2040 -0.3616
11733TIP3    H156690   4.410   3.485  12.553  0.7370 -0.0035 -0.7322
11733TIP3    H256691   4.532   3.398  12.533  0.6203 -0.0296 -1.3497
11734TIP3   OH256692   2.917   1.030  13.040  0.0516 -0.2142  0.1427
11734TIP3    H156693   2.855   0.974  12.993  0.9632  0.0549 -1.4027
11734TIP3    H256694   2.872   1.051  13.122 -0.8012 -2.2028  0.2160
11735TIP3   OH256695   2.901   2.719  10.667  0.1615 -0.0099  0.1179
11735TIP3    H156696   2.925   2.808  10.643  0.8548  0.0463  1.0107
11735TIP3    H256697   2.828   2.729  10.728  0.1898 -0.0640  0.1601
11736TIP3   OH256698   4.202   3.519  17.048  0.1174  0.5221  0.1084
11736TIP3    H156699   4.176   3.595  16.996  0.8807  0.7651  0.0732
11736TIP3    H256700   4.251   3.464  16.987  0.9363  0.7626  0.5307
11737TIP3   OH256701   1.428   0.510   1.887 -0.4883 -0.3635  1.1181
11737TIP3    H156702   1.368   0.528   1.814 -0.6601  0.4447  1.4642
11737TIP3    H256703   1.376   0.524   1.965 -0.2795 -1.1649  1.4110
11738TIP3   OH256704   2.934   5.071  12.898  0.3217  0.1526  0.0969
11738TIP3    H156705   2.883   5.072  12.979 -1.6852  2.4045 -1.1334
11738TIP3    H256706   2.957   5.162  12.883  2.9355 -0.5771 -0.5229
11739TIP3   OH256707   2.423   6.520  13.907 -0.1832 -0.1094  0.0557
11739TIP3    H156708   2.511   6.523  13.946 -0.0179  0.7913 -0.3736
11739TIP3    H256709   2.380   6.599  13.939 -0.6349 -0.2492 -0.2102
11740TIP3   OH256710   4.106   3.598   3.360 -0.1672 -0.1304 -0.4719
11740TIP3    H156711   4.126   3.561   3.447  2.2154  1.2293 -0.4028
11740TIP3    H256712   4.085   3.690   3.378 -0.0070  0.0683 -1.3019
11741TIP3   OH256713   6.168   1.712  14.608  0.5002 -0.8728  0.2297
11741TIP3    H156714   6.165   1.625  14.567 -1.7639 -0.1603 -1.2424
11741TIP3    H256715   6.101   1.762  14.561  1.5161  1.5671  1.3154
11742TIP3   OH256716   0.911   2.796  14.621  0.1562 -0.1758 -0.1419
11742TIP3    H156717   0.925   2.822  14.530 -1.1323  0.7245 -0.0914
11742TIP3    H256718   0.835   2.738  14.617 -0.9357  1.1894  0.5644
11743TIP3   OH256719   6.665   0.704  13.485 -0.0129  0.2136 -0.2960
11743TIP3    H156720   6.575   0.703  13.453  0.2213 -1.2057 -0.9613
11743TIP3    H256721   6.664   0.646  13.561  0.4588 -0.2948 -0.6723
11744TIP3   OH256722   6.429   4.930   1.804  0.2033 -0.0511 -0.5446
11744TIP3    H156723   6.391   4.917   1.891  2.2881  1.3070  0.6015
11744TIP3    H256724   6.437   5.025   1.795 -0.2998 -0.1554 -2.3743
11745TIP3   OH256725   3.127   2.064  15.324  0.5143 -0.0887  0.4160
11745TIP3    H156726   3.148   2.119  15.249 -1.1415 -0.7317 -0.5484
11745TIP3    H256727   3.090   2.124  15.388 -1.7718 -0.1170 -0.8317
11746TIP3   OH256728   4.566   0.760   0.464 -0.0653 -0.1245  0.1036
11746TIP3    H156729   4.611   0.679   0.485  0.2095  0.2551  1.0002
11746TIP3    H256730   4.505   0.774   0.537 -0.3035  0.3299 -0.1770
11747TIP3   OH256731   4.894   5.321  16.462  0.0328 -0.6874  0.9797
11747TIP3    H156732   4.935   5.333  16.548 -1.6782 -1.3537  1.9103
11747TIP3    H256733   4.821   5.382  16.461 -0.8241 -1.6988  0.5697
11748TIP3   OH256734   5.210   1.503   1.339 -0.4700  0.2962  0.0015
11748TIP3    H156735   5.158   1.547   1.406 -1.6140 -1.0632  0.0295
11748TIP3    H256736   5.193   1.410   1.353  0.6236 -0.0764 -1.0981
11749TIP3   OH256737   3.990   5.105   1.253 -1.1805 -0.4839 -0.4340
11749TIP3    H156738   3.950   5.155   1.182 -0.0344 -0.9069 -1.4004
11749TIP3    H256739   4.006   5.019   1.215 -0.3586 -0.6537  0.2818
11750TIP3   OH256740   5.685   1.175  10.555 -0.1609 -0.6774  0.1877
11750TIP3    H156741   5.653   1.221  10.478 -1.5612 -3.6487 -1.0978
11750TIP3    H256742   5.779   1.168  10.543 -0.0880  0.8088 -0.1461
11751TIP3   OH256743   4.288   1.008  11.477  0.4963 -0.1666 -0.3919
11751TIP3    H156744   4.289   0.954  11.398 -0.2110  0.2994 -0.7226
11751TIP3    H256745   4.332   0.955  11.543 -1.3126 -1.6974 -0.3642
11752TIP3   OH256746   5.714   2.080   2.908 -0.0151 -0.2121 -0.1306
11752TIP3    H156747   5.689   2.152   2.966  1.5144 -1.1095  1.6948
11752TIP3    H256748   5.706   2.002   2.962  1.9636 -1.0085 -0.9409
11753TIP3   OH256749   1.419   2.758  11.555  1.0340 -0.1792  0.1660
11753TIP3    H156750   1.471   2.687  11.591  2.0159  0.2225 -0.4322
11753TIP3    H256751   1.330   2.723  11.550  1.3102 -0.9949  0.8500
11754TIP3   OH256752   6.581   4.505  15.072  0.0757 -0.4788  0.0163
11754TIP3    H156753   6.568   4.600  15.069 -1.2262 -0.5174  2.6788
11754TIP3    H256754   6.651   4.488  15.010  0.4971  2.2614 -0.3182
11755TIP3   OH256755   0.256   6.806  13.870 -0.1200  0.0965  0.7375
11755TIP3    H156756   0.343   6.846  13.871  0.3444 -0.8078 -0.5708
11755TIP3    H256757   0.197   6.876  13.898  0.8811  1.1214  0.3532
11756TIP3   OH256758   2.439   5.690  16.554 -0.2435 -0.5607  0.3002
11756TIP3    H156759   2.495   5.767  16.567 -0.3100 -0.2777 -1.0275
11756TIP3    H256760   2.380   5.691  16.630  0.1999  0.3033  0.6554
11757TIP3   OH256761   2.603   3.015   1.218  0.6942  0.3187 -0.5797
11757TIP3    H156762   2.633   3.102   1.245  1.8982 -0.0627 -0.6341
11757TIP3    H256763   2.537   2.992   1.282  0.7346  1.0652 -0.2594
11758TIP3   OH256764   2.382   3.874   6.125  0.0357 -0.7652  0.1837
11758TIP3    H156765   2.318   3.829   6.070  1.0934  0.3334 -2.0173
11758TIP3    H256766   2.364   3.843   6.214 -3.6474 -0.3046 -0.3509
11759TIP3   OH256767   2.474   1.297   0.052 -0.0283  0.0058  0.0031
11759TIP3    H156768   2.380   1.290   0.071  0.1914  1.3416  1.7305
11759TIP3    H256769   2.479   1.311  -0.042 -1.5709 -0.0562 -0.0933
11760TIP3   OH256770   1.599   2.984  13.424  0.2316  0.3448 -0.1705
11760TIP3    H156771   1.655   2.934  13.364  0.5587 -0.9001  1.1396
11760TIP3    H256772   1.660   3.017  13.490 -0.0476  2.1507 -0.7669
11761TIP3   OH256773   3.479   2.664  10.172  0.0352  0.3575 -0.0298
11761TIP3    H156774   3.453   2.756  10.167  1.4766  0.7726 -0.2854
11761TIP3    H256775   3.431   2.621  10.102 -1.1835  0.7694  0.5324
11762TIP3   OH256776   2.125   0.767   5.150 -0.0723  0.4893  0.4371
11762TIP3    H156777   2.052   0.769   5.210 -1.8693  2.1836 -1.7050
11762TIP3    H256778   2.109   0.692   5.094  0.9333 -0.3480  1.2526
11763TIP3   OH256779   2.073   1.294  10.741 -0.1443 -0.4507  0.3746
11763TIP3    H156780   2.086   1.319  10.649 -0.1998 -0.6031  0.3268
11763TIP3    H256781   2.112   1.367  10.790  0.6970 -0.7897  0.2281
11764TIP3   OH256782   1.786   2.845   3.347  0.1727 -0.4257  0.5068
11764TIP3    H156783   1.754   2.835   3.437 -0.2498 -1.3390  0.2569
11764TIP3    H256784   1.707   2.844   3.293  0.4434 -0.0949  0.1012
11765TIP3   OH256785   1.632   5.396   4.879 -0.1519 -0.2590  0.1909
11765TIP3    H156786   1.663   5.395   4.970  0.5598  0.2611 -0.0392
11765TIP3    H256787   1.711   5.404   4.827 -0.5764 -0.3507 -0.4714
11766TIP3   OH256788   1.945   6.724   4.309  0.0000 -0.0220  0.1423
11766TIP3    H156789   1.963   6.735   4.403  0.0442 -2.5630  0.4784
11766TIP3    H256790   1.851   6.739   4.301  0.0215  0.3484  0.5699
11767TIP3   OH256791   5.660   3.663  11.404  0.6167  0.0491 -0.1941
11767TIP3    H156792   5.670   3.567  11.405  1.5105  0.1351 -0.4830
11767TIP3    H256793   5.749   3.696  11.399  0.2711  0.8871 -0.8871
11768TIP3   OH256794   3.954   5.486  16.912 -0.4461  0.0349  0.8251
11768TIP3    H156795   4.019   5.502  16.980  0.4480  1.2748 -0.2884
11768TIP3    H256796   4.004   5.483  16.831 -1.4701 -1.6953  0.2416
11769TIP3   OH256797   1.152   4.094   4.203  0.0345 -0.1433  0.1875
11769TIP3    H156798   1.169   4.180   4.164 -2.3164  0.3980  0.3272
11769TIP3    H256799   1.219   4.086   4.271  2.0453  0.3348 -1.6724
11770TIP3   OH256800   2.905   1.742   5.307 -0.3128  0.4231 -0.2805
11770TIP3    H156801   2.847   1.710   5.237 -1.6064 -1.1587  1.4644
11770TIP3    H256802   2.915   1.667   5.365  3.6018  0.6570 -0.5672
11771TIP3   OH256803   1.409   4.092  15.456  0.8480  0.1571 -0.1063
11771TIP3    H156804   1.432   4.185  15.454 -1.4362  0.7702  0.7970
11771TIP3    H256805   1.374   4.074  15.369  2.5001 -0.2134 -0.7182
11772TIP3   OH256806   3.075   1.888  13.416  0.2274  0.2033  0.5553
11772TIP3    H156807   3.058   1.801  13.378  1.2256  0.4323 -0.4547
11772TIP3    H256808   3.007   1.944  13.380  0.7101  0.2460 -0.3225
11773TIP3   OH256809   3.987   2.509   2.683 -0.0744 -0.2455  0.3674
11773TIP3    H156810   4.014   2.420   2.705 -0.2325 -0.1578  0.9441
11773TIP3    H256811   4.052   2.565   2.724 -0.0045 -0.0934  0.0511
11774TIP3   OH256812   3.071   5.568   5.839 -0.3471 -0.0435  0.1453
11774TIP3    H156813   3.023   5.586   5.759  1.1532 -0.5915 -0.8945
11774TIP3    H256814   3.003   5.564   5.907 -1.3555  3.2834 -0.5671
11775TIP3   OH256815   3.756   3.939  17.249  0.4935 -0.0853  0.2702
11775TIP3    H156816   3.739   4.002  17.179  1.8250 -1.7638 -1.6237
11775TIP3    H256817   3.706   3.861  17.224  0.7237 -0.5784  1.3370
11776TIP3   OH256818   1.438   4.460  11.437 -0.0201  0.5767 -0.8155
11776TIP3    H156819   1.509   4.462  11.374  1.0573  0.7427  0.3813
11776TIP3    H256820   1.479   4.486  11.520 -1.1054 -0.9805  0.2425
11777TIP3   OH256821   6.179   5.277   2.670  0.0791 -0.1249  0.1184
11777TIP3    H156822   6.185   5.336   2.745 -0.8074 -0.8525  0.7758
11777TIP3    H256823   6.261   5.228   2.672  1.4390  2.0202 -1.2545
11778TIP3   OH256824   3.121   4.962  15.594 -0.1474  0.5918  0.5687
11778TIP3    H156825   3.159   4.917  15.518 -2.7581 -0.9666  0.1142
11778TIP3    H256826   3.095   5.048  15.561  1.0313  0.8804  0.3630
11779TIP3   OH256827   1.438   1.038  16.059  0.6600  0.1501 -0.4754
11779TIP3    H156828   1.410   0.958  16.015  1.7742 -0.4510 -0.0969
11779TIP3    H256829   1.436   1.017  16.152  3.8346 -0.4256 -0.4873
11780TIP3   OH256830   3.920   6.561   6.366  0.4320  0.2020  0.0500
11780TIP3    H156831   4.010   6.542   6.337  0.6829  0.1987  0.8072
11780TIP3    H256832   3.909   6.509   6.446  0.2465  1.2633  0.7375
11781TIP3   OH256833   2.769   4.132   5.567  0.0244  0.8686  0.2130
11781TIP3    H156834   2.850   4.126   5.617  0.3703  0.9603 -0.3240
11781TIP3    H256835   2.758   4.045   5.528 -0.6589  0.5676  1.0833
11782TIP3   OH256836   0.502   6.223   1.142 -0.5859 -0.0628 -0.1294
11782TIP3    H156837   0.417   6.230   1.186 -0.4301 -2.9094  0.6929
11782TIP3    H256838   0.499   6.139   1.097  1.7546 -0.1140 -0.2338
11783TIP3   OH256839   2.241   2.982  13.142  0.4005  0.9446  0.0555
11783TIP3    H156840   2.283   2.934  13.214  1.0492  0.7615 -0.4309
11783TIP3    H256841   2.252   3.074  13.164 -0.8606  0.8786  1.0014
11784TIP3   OH256842   6.670   4.366   4.918 -0.1685 -0.1554 -0.3591
11784TIP3    H156843   6.660   4.374   4.823 -0.3573 -0.2390 -0.3461
11784TIP3    H256844   6.633   4.280   4.939  1.0445 -0.6930 -0.3732
11785TIP3   OH256845   5.567   6.688  12.212  0.1097 -0.2966  0.2520
11785TIP3    H156846   5.474   6.669  12.201 -0.3633  1.1983  1.4379
11785TIP3    H256847   5.570   6.779  12.241  1.9790 -0.1480 -0.3200
11786TIP3   OH256848   0.284   1.753  16.696  0.3803 -0.1845  0.0671
11786TIP3    H156849   0.327   1.836  16.676  0.8734  0.0288  1.8401
11786TIP3    H256850   0.213   1.747  16.633  0.9616  1.0950 -0.7480
11787TIP3   OH256851   4.884   2.207  15.109 -1.0218 -0.4130 -0.3015
11787TIP3    H156852   4.892   2.112  15.098 -0.5102 -0.2295 -1.5481
11787TIP3    H256853   4.948   2.228  15.176 -1.1344 -0.9406 -0.0197
11788TIP3   OH256854   5.246   3.129   5.855 -0.3293  0.7765  0.6037
11788TIP3    H156855   5.185   3.202   5.864  1.4686  2.2811  1.1487
11788TIP3    H256856   5.268   3.126   5.762  0.7199  1.9249  0.7980
11789TIP3   OH256857   4.714   6.477  14.222 -0.0932 -0.1052 -0.0082
11789TIP3    H156858   4.729   6.493  14.128  0.1808  0.4384  0.1270
11789TIP3    H256859   4.716   6.381  14.230 -2.2953 -0.2704 -0.9140
11790TIP3   OH256860   4.522   3.284   4.580  0.4101 -0.3313 -0.0286
11790TIP3    H156861   4.537   3.294   4.674  0.4867  0.9946 -0.1682
11790TIP3    H256862   4.492   3.370   4.551  0.1244 -0.8035 -1.1706
11791TIP3   OH256863   1.826   2.704  15.951  0.0519 -0.0769 -0.2664
11791TIP3    H156864   1.803   2.745  16.034 -1.2469  0.0081 -0.6556
11791TIP3    H256865   1.917   2.678  15.962  0.2037  0.8518  0.8146
11792TIP3   OH256866   4.622   2.327  15.981  0.1352  0.5123  0.0796
11792TIP3    H156867   4.680   2.364  16.047  0.6991  0.5807 -0.4492
11792TIP3    H256868   4.585   2.249  16.023  0.9897  0.1872  0.2507
11793TIP3   OH256869   2.460   4.919   4.607  0.1898  0.6017  0.4772
11793TIP3    H156870   2.496   4.929   4.519  0.9279 -1.6284  0.5079
11793TIP3    H256871   2.475   5.004   4.649  1.0629  1.2340 -1.0853
11794TIP3   OH256872   1.009   1.723  11.876  0.3678 -0.4547  0.1654
11794TIP3    H156873   1.053   1.807  11.863 -0.5712  0.2885  1.7082
11794TIP3    H256874   0.930   1.728  11.822  0.2456 -0.3040  0.3604
11795TIP3   OH256875   5.534   3.104  15.353  0.9540  0.0199 -0.2037
11795TIP3    H156876   5.545   3.016  15.391  1.7227 -0.2713 -1.0578
11795TIP3    H256877   5.524   3.162  15.428 -0.9714 -0.9748  0.3444
11796TIP3   OH256878   2.037   0.092  12.691  0.3843  0.9088 -0.0023
11796TIP3    H156879   2.112   0.036  12.712  1.6347  1.7284 -2.1922
11796TIP3    H256880   2.001   0.116  12.776  2.1593 -0.0958  1.0611
11797TIP3   OH256881   3.738   5.331  17.292  0.0725  0.1989  0.1253
11797TIP3    H156882   3.728   5.404  17.231  1.3449  0.5724  0.3498
11797TIP3    H256883   3.775   5.370  17.371 -2.9772 -0.0098  1.7207
11798TIP3   OH256884   5.467   4.172   3.113  0.0737  0.1387 -0.3926
11798TIP3    H156885   5.562   4.184   3.117  0.4149 -2.2156 -1.0818
11798TIP3    H256886   5.440   4.224   3.038  0.9416  0.0612 -0.7649
11799TIP3   OH256887   6.811   6.669  16.108  0.0998 -0.4068 -0.0919
11799TIP3    H156888   6.762   6.601  16.062  0.7614 -0.5671 -0.5738
11799TIP3    H256889   6.901   6.636  16.110  0.1162 -0.3035  1.1377
11800TIP3   OH256890   3.864   1.121  14.631  0.0615 -0.2495  0.1256
11800TIP3    H156891   3.905   1.141  14.547 -0.8014  0.8136 -0.0505
11800TIP3    H256892   3.918   1.051  14.668  1.5700  0.5911 -0.4521
11801TIP3   OH256893   0.374   0.361   3.822 -0.1820 -0.2882  0.0982
11801TIP3    H156894   0.417   0.312   3.892 -0.9691 -0.8963  0.1633
11801TIP3    H256895   0.346   0.295   3.759 -0.7484  0.1274 -0.0897
11802TIP3   OH256896   4.891   2.425  16.923  0.1804 -0.0096 -0.2655
11802TIP3    H156897   4.906   2.387  16.837 -0.8048  2.8376 -1.7295
11802TIP3    H256898   4.851   2.354  16.974  1.1829 -1.8395 -1.9730
11803TIP3   OH256899   6.121   3.474   4.587 -0.0074  0.2825 -0.4865
11803TIP3    H156900   6.169   3.403   4.630  0.9840  0.9637 -0.4767
11803TIP3    H256901   6.179   3.503   4.517 -0.3077  1.2549 -0.3376
11804TIP3   OH256902   1.440   6.526  12.556 -0.0374  0.2376  0.6199
11804TIP3    H156903   1.508   6.473  12.598  1.1082 -0.0280 -1.5154
11804TIP3    H256904   1.361   6.472  12.563  1.3733 -2.4832 -2.6992
11805TIP3   OH256905   1.245   1.831  16.841 -0.2375  0.3039  0.2142
11805TIP3    H156906   1.170   1.889  16.853 -1.0036 -0.6342  0.0400
11805TIP3    H256907   1.314   1.887  16.806 -1.5503  0.7420 -1.7736
11806TIP3   OH256908   6.560   6.382  11.864 -0.1373 -0.3197  0.1995
11806TIP3    H156909   6.620   6.307  11.866 -1.9455 -1.8155 -0.4593
11806TIP3    H256910   6.552   6.402  11.771  0.5498  0.8902  0.3925
11807TIP3   OH256911   3.077   6.734  11.629  0.2152  0.7279 -0.2067
11807TIP3    H156912   2.993   6.689  11.637  0.0998  1.2201  1.4651
11807TIP3    H256913   3.130   6.675  11.574 -0.2743 -0.9520  1.0825
11808TIP3   OH256914   4.120   5.330  15.430 -0.5544  0.2003  0.2717
11808TIP3    H156915   4.215   5.336  15.439 -0.5445  0.4167  0.0356
11808TIP3    H256916   4.097   5.401  15.370 -0.9157  0.4219  0.6708
11809TIP3   OH256917   0.998   1.228   0.206  0.5409  0.4790 -1.0430
11809TIP3    H156918   0.920   1.283   0.202 -0.9556 -1.4811  0.2494
11809TIP3    H256919   0.972   1.152   0.259  3.1639 -0.4722 -1.0133
11810TIP3   OH256920   1.800   6.210  14.437  0.2326  0.1154 -0.0075
11810TIP3    H156921   1.783   6.249  14.351  0.9440 -2.7541 -1.5265
11810TIP3    H256922   1.807   6.285  14.496 -1.8728  2.1028 -2.1372
11811TIP3   OH256923   6.233   5.217  13.207  0.5287 -0.3862 -0.3895
11811TIP3    H156924   6.209   5.191  13.119  0.4420 -0.0361 -0.4682
11811TIP3    H256925   6.214   5.311  13.211 -1.7641 -0.8840  0.7885
11812TIP3   OH256926   5.230   5.502  11.383  0.0145  0.1551  0.2167
11812TIP3    H156927   5.254   5.536  11.297 -0.5919 -1.8027 -0.7383
11812TIP3    H256928   5.172   5.428  11.365  1.7468 -1.7527  2.2526
11813TIP3   OH256929   0.408   2.053   3.658  0.4085 -0.4226  0.5809
11813TIP3    H156930   0.425   2.146   3.676 -1.2411  0.2611 -1.2537
11813TIP3    H256931   0.330   2.032   3.709 -1.4277  0.2374 -1.8584
11814TIP3   OH256932   0.021   2.218  16.648 -0.5415  0.1353 -0.0841
11814TIP3    H156933   0.053   2.244  16.735 -3.1148  1.1053  0.6154
11814TIP3    H256934   0.049   2.289  16.590 -1.6955  1.1877  0.6021
11815TIP3   OH256935   5.083   3.152  12.227 -0.4422  0.5197 -0.3747
11815TIP3    H156936   5.040   3.074  12.193  1.3935 -1.1857  1.0929
11815TIP3    H256937   5.039   3.225  12.183 -2.0495 -1.3292 -1.9243
11816TIP3   OH256938   6.603   4.960   2.054 -0.3452  0.4090 -0.2523
11816TIP3    H156939   6.653   4.885   2.021  0.7477  0.3781  1.3905
11816TIP3    H256940   6.518   4.924   2.078 -0.9766  0.3446 -2.5571
11817TIP3   OH256941   3.844   0.080  13.300 -0.3056 -0.2966  0.2282
11817TIP3    H156942   3.816   0.164  13.264 -0.9515 -0.6078 -0.0173
11817TIP3    H256943   3.804   0.015  13.241  0.8997 -0.7539 -0.0991
11818TIP3   OH256944   3.427   0.403  16.805 -0.1895 -0.0505 -0.0841
11818TIP3    H156945   3.503   0.345  16.815 -0.2441 -0.4435 -1.7960
11818TIP3    H256946   3.464   0.491  16.801  0.3875 -0.3909 -3.0495
11819TIP3   OH256947   6.677   3.612   5.465  0.0966 -0.2557  0.7681
11819TIP3    H156948   6.761   3.577   5.492 -0.1339 -1.6014 -0.2146
11819TIP3    H256949   6.622   3.608   5.544  0.7788  0.1323  1.2669
11820TIP3   OH256950   5.430   6.367  12.730  0.5506 -0.1445 -0.2541
11820TIP3    H156951   5.379   6.286  12.731 -1.5570  1.1433  1.5310
11820TIP3    H256952   5.513   6.344  12.772  1.1370 -2.0333 -2.3456
11821TIP3   OH256953   0.091   4.466   5.607  0.0294 -0.2158 -0.1379
11821TIP3    H156954   0.035   4.443   5.681  1.0395  0.2953  0.8014
11821TIP3    H256955   0.093   4.562   5.609  1.3194 -0.2478  0.1262
11822TIP3   OH256956   6.543   5.728   1.851 -0.6142  0.0692  0.4904
11822TIP3    H156957   6.528   5.654   1.909 -1.2666 -2.4467 -2.7224
11822TIP3    H256958   6.457   5.769   1.841  0.1074  2.5937  3.8526
11823TIP3   OH256959   5.156   4.868   2.038 -0.0388  0.0181  0.1330
11823TIP3    H156960   5.154   4.845   2.130 -0.3372  2.4207  0.7634
11823TIP3    H256961   5.153   4.964   2.037 -1.7881 -0.0032 -2.3932
11824TIP3   OH256962   5.846   1.541  15.808  0.0289  0.4149  0.4208
11824TIP3    H156963   5.936   1.524  15.780  0.2175 -0.9218  1.7775
11824TIP3    H256964   5.820   1.619  15.759  1.2199 -0.3626 -1.5118
11825TIP3   OH256965   1.151   0.606  12.755 -0.0427 -0.4957 -0.2528
11825TIP3    H156966   1.156   0.693  12.795 -0.5602 -0.2943 -0.6154
11825TIP3    H256967   1.223   0.604  12.693 -0.6828  0.0833 -1.0251
11826TIP3   OH256968   0.479   6.058   3.292  0.1499  0.1168  0.7114
11826TIP3    H156969   0.429   6.080   3.371  0.2766 -1.4371  1.2497
11826TIP3    H256970   0.498   5.964   3.302 -2.1921 -0.7657 -2.4519
11827TIP3   OH256971   2.954   3.545  13.046  0.5491  0.0741 -0.2176
11827TIP3    H156972   2.989   3.591  12.970  0.5115  1.6115  0.6723
11827TIP3    H256973   2.869   3.513  13.018 -0.5033  2.6913 -0.0928
11828TIP3   OH256974   2.069   6.349   3.074  0.3675  0.3241 -0.3970
11828TIP3    H156975   2.160   6.319   3.069 -0.0517 -0.6577 -2.6685
11828TIP3    H256976   2.059   6.406   2.998 -1.3727 -0.8756 -1.0904
11829TIP3   OH256977   2.370   2.561  16.243  0.0775  0.0883  0.1012
11829TIP3    H156978   2.385   2.522  16.329  0.1605  0.4421  0.2485
11829TIP3    H256979   2.427   2.638  16.241 -0.4525  0.4858  0.0107
11830TIP3   OH256980   6.633   6.440  14.269  0.7140 -0.1543 -0.0550
11830TIP3    H156981   6.578   6.396  14.334 -1.2654  0.2421 -1.4541
11830TIP3    H256982   6.687   6.500  14.321 -0.4637 -0.2205  1.2824
11831TIP3   OH256983   2.944   6.380  13.835 -0.4061  0.7133  0.1915
11831TIP3    H156984   2.858   6.409  13.807 -2.5585 -2.5761  2.9197
11831TIP3    H256985   2.953   6.292  13.799  1.3145  0.6061  0.8304
11832TIP3   OH256986   3.250   2.456  15.848  0.6579  0.5033 -0.3292
11832TIP3    H156987   3.277   2.475  15.938  0.3364 -2.0891  0.3423
11832TIP3    H256988   3.328   2.473  15.795  1.3196  0.5118  0.6349
11833TIP3   OH256989   2.049   5.614  15.802 -0.1372  0.2561  0.0446
11833TIP3    H156990   2.019   5.670  15.730 -0.8680 -0.8499 -0.5267
11833TIP3    H256991   2.060   5.527  15.762  2.2278  0.2545  0.6290
11834TIP3   OH256992   5.000   6.136  13.569 -0.7725  0.3991  0.7342
11834TIP3    H156993   4.940   6.085  13.515 -1.8672  0.4732  1.8546
11834TIP3    H256994   5.035   6.203  13.511 -1.5040  0.1298 -0.0190
11835TIP3   OH256995   1.754   5.788   4.915  0.1200 -0.2673 -0.3273
11835TIP3    H156996   1.675   5.822   4.872 -0.2295 -0.7908 -0.1027
11835TIP3    H256997   1.721   5.727   4.981  0.7868 -1.8484 -1.4324
11836TIP3   OH256998   5.522   1.209  14.290  0.3956 -0.2988 -0.0082
11836TIP3    H156999   5.427   1.211  14.299  0.5832  0.3615  2.1303
11836TIP3    H257000   5.542   1.119  14.263 -0.7762 -0.6879  0.4062
11837TIP3   OH257001   5.629   5.573   6.006 -0.0842 -0.1211 -0.0147
11837TIP3    H157002   5.662   5.484   6.000  1.9013  0.6352 -0.6481
11837TIP3    H257003   5.705   5.625   6.031 -0.3619  1.9002 -3.0839
11838TIP3   OH257004   3.187   1.139  16.754  0.2369  0.2361 -0.1409
11838TIP3    H157005   3.110   1.178  16.713  0.2467 -0.7232 -1.1053
11838TIP3    H257006   3.229   1.090  16.683  0.9259 -0.4568  0.7391
11839TIP3   OH257007   0.596   5.029   1.177 -0.2620  0.3100 -0.4172
11839TIP3    H157008   0.594   5.024   1.272  0.7514 -1.1758 -0.4685
11839TIP3    H257009   0.515   4.987   1.148 -1.6096  2.6342 -0.1717
11840TIP3   OH257010   6.534   5.320   0.724 -0.5954  0.1593 -0.2448
11840TIP3    H157011   6.522   5.243   0.669 -1.3265 -0.0745  0.2344
11840TIP3    H257012   6.468   5.311   0.793  0.2392  0.5065  0.6047
11841TIP3   OH257013   5.835   3.018   1.481 -0.0495 -0.5972  0.0510
11841TIP3    H157014   5.867   2.944   1.533  1.1009  0.5933  1.0445
11841TIP3    H257015   5.889   3.016   1.402  1.0438  0.1048  0.7689
11842TIP3   OH257016   2.792   6.115   1.116  0.2734 -0.3846  0.5378
11842TIP3    H157017   2.707   6.144   1.082  0.5578 -1.1581 -0.8756
11842TIP3    H257018   2.849   6.192   1.109  0.5532 -0.7623 -1.5549
11843TIP3   OH257019   5.360   0.326  16.468 -0.8682  0.5616  0.4976
11843TIP3    H157020   5.429   0.289  16.413 -0.9715 -0.7593  1.2303
11843TIP3    H257021   5.280   0.285  16.438 -0.9618  0.0394  1.4204
11844TIP3   OH257022   4.375   3.875   3.504  0.3133 -0.3295 -0.0909
11844TIP3    H157023   4.331   3.789   3.502 -0.1522 -0.0735 -1.0808
11844TIP3    H257024   4.462   3.858   3.470  0.0774 -0.3273 -0.6965
11845TIP3   OH257025   5.310   0.382   0.761 -0.0589  0.2632  0.4981
11845TIP3    H157026   5.398   0.392   0.726 -0.0665 -0.0954  0.3698
11845TIP3    H257027   5.323   0.367   0.855  0.1029 -1.2253  0.2499
11846TIP3   OH257028   1.097   5.606   2.480 -0.1601  0.2868  0.1100
11846TIP3    H157029   1.012   5.604   2.438 -0.2361 -1.5009  0.3341
11846TIP3    H257030   1.082   5.570   2.567  0.0703  3.6035  1.5970
11847TIP3   OH257031   2.788   3.024   4.186 -0.4494  0.5331  0.0856
11847TIP3    H157032   2.814   2.977   4.265 -3.8936 -1.9317 -0.1291
11847TIP3    H257033   2.746   3.104   4.218 -0.7795  0.0975  0.7542
11848TIP3   OH257034   2.740   1.194   3.486 -0.0180  0.0355  0.0041
11848TIP3    H157035   2.782   1.278   3.506  0.0264 -0.2349  1.0920
11848TIP3    H257036   2.806   1.147   3.435  1.0298 -0.3525  1.6336
11849TIP3   OH257037   2.196   5.061  14.866 -0.1179  0.3021 -0.0872
11849TIP3    H157038   2.133   5.070  14.795 -1.3917 -0.5782  0.9188
11849TIP3    H257039   2.182   5.138  14.921 -0.1617  0.2136  0.0250
11850TIP3   OH257040   0.691   0.655  16.661  0.2365  0.2057 -0.0691
11850TIP3    H157041   0.690   0.610  16.576 -0.7876  0.1753 -0.0384
11850TIP3    H257042   0.629   0.727  16.651  1.3734  1.2391  0.1013
11851TIP3   OH257043   2.785   4.847  17.114  0.6930  0.2473  0.4873
11851TIP3    H157044   2.724   4.920  17.107  1.4404  0.7079 -1.5483
11851TIP3    H257045   2.867   4.880  17.075  2.4795 -0.1210  3.7575
11852TIP3   OH257046   6.733   1.674   2.274  0.6765  0.1736 -0.5196
11852TIP3    H157047   6.641   1.657   2.256  0.5092 -0.5110  0.9177
11852TIP3    H257048   6.755   1.748   2.216 -0.6562  0.0950 -1.1532
11853TIP3   OH257049   5.789   4.797  14.209  0.0071  0.0022 -0.1576
11853TIP3    H157050   5.833   4.712  14.198  1.4961  0.3985  2.3265
11853TIP3    H257051   5.699   4.774  14.230  0.2567 -0.9529 -0.0979
11854TIP3   OH257052   4.380   2.884   0.631  0.1297 -0.2914 -0.1950
11854TIP3    H157053   4.391   2.950   0.563  1.2118 -0.7118 -0.4289
11854TIP3    H257054   4.467   2.848   0.644 -0.4395 -1.6475 -0.0497
11855TIP3   OH257055   4.969   5.264   2.765 -0.0183 -0.4536 -0.1061
11855TIP3    H157056   4.900   5.311   2.718 -0.6270 -0.8240  0.3923
11855TIP3    H257057   4.921   5.207   2.826  0.6744 -2.2620 -1.1898
11856TIP3   OH257058   6.665   0.356  13.602  0.4054 -0.2636  0.0187
11856TIP3    H157059   6.704   0.425  13.654  1.5855 -0.7876 -0.1604
11856TIP3    H257060   6.702   0.368  13.514 -0.9196  0.1003 -0.5045
11857TIP3   OH257061   2.797   6.692  11.352 -0.2051 -0.2620  0.4782
11857TIP3    H157062   2.742   6.744  11.293 -1.1923 -1.3143  0.4528
11857TIP3    H257063   2.875   6.746  11.365 -0.3325  0.3472 -1.1274
11858TIP3   OH257064   4.954   1.052   0.025 -0.5012 -0.3128 -0.2957
11858TIP3    H157065   4.883   1.100   0.067 -0.3402 -1.0031  0.7856
11858TIP3    H257066   5.017   1.120   0.001 -0.3021  0.0501  1.1594
11859TIP3   OH257067   5.961   5.673   2.410  0.2121  0.1828  0.4682
11859TIP3    H157068   5.964   5.702   2.318  0.0282  0.6742  0.6125
11859TIP3    H257069   5.996   5.747   2.459  0.0087  0.0445  0.8231
11860TIP3   OH257070   1.173   2.921   5.844 -0.4318 -0.3145 -0.3230
11860TIP3    H157071   1.085   2.883   5.843 -0.2237 -0.9576 -5.3896
11860TIP3    H257072   1.159   3.015   5.842 -0.9880 -0.4017 -0.5291
11861TIP3   OH257073   4.918   5.068  16.382 -0.4084 -0.2638 -0.0604
11861TIP3    H157074   4.924   5.160  16.409 -1.6051 -0.2924  0.3456
11861TIP3    H257075   4.834   5.062  16.336  0.2329 -0.8838 -1.1841
11862TIP3   OH257076   1.397   1.450  11.864 -0.1859 -0.3267 -0.0470
11862TIP3    H157077   1.426   1.434  11.954  0.6949  0.6884 -0.1407
11862TIP3    H257078   1.399   1.545  11.855 -2.2335 -0.3099 -0.5123
11863TIP3   OH257079   5.508   2.554   1.356  0.1331  0.1676 -0.8101
11863TIP3    H157080   5.589   2.520   1.394  1.6209  1.2481 -2.9154
11863TIP3    H257081   5.462   2.476   1.325 -0.2177 -0.5532  1.4737
11864TIP3   OH257082   2.832   3.762   4.393 -0.3673  0.0238 -0.4584
11864TIP3    H157083   2.819   3.792   4.303 -1.5814  0.0416 -0.2834
11864TIP3    H257084   2.899   3.820   4.428  0.2804 -0.1276 -1.4258
11865TIP3   OH257085   6.213   5.739  16.089 -0.0957  0.6541 -0.0486
11865TIP3    H157086   6.210   5.696  16.174 -0.1347  0.1166 -0.3159
11865TIP3    H257087   6.122   5.742  16.060 -0.1377  1.2912  0.1535
11866TIP3   OH257088   6.820   6.189  11.868 -0.6425 -0.0602 -0.1536
11866TIP3    H157089   6.791   6.110  11.823  0.9057 -1.5144  1.3348
11866TIP3    H257090   6.870   6.157  11.943  1.2031  2.3527 -0.3003
11867TIP3   OH257091   3.566   1.510  13.400 -0.2174 -0.0369 -0.1994
11867TIP3    H157092   3.558   1.497  13.495  0.2705  0.2028 -0.1224
11867TIP3    H257093   3.619   1.436  13.370  0.5542  0.4767 -0.1176
11868TIP3   OH257094   5.575   2.775  15.028 -0.0123 -0.0894  0.4568
11868TIP3    H157095   5.600   2.748  14.939  0.3373  0.3382  0.4226
11868TIP3    H257096   5.656   2.770  15.078  0.3705  2.2076  0.1290
11869TIP3   OH257097   2.819   1.180   4.759  0.1505  0.4216 -0.0598
11869TIP3    H157098   2.812   1.090   4.727 -1.2118  0.8504 -1.0350
11869TIP3    H257099   2.900   1.212   4.720  0.1969 -0.1088 -0.4095
11870TIP3   OH257100   4.579   0.479   2.111 -0.1458  0.0866 -0.1363
11870TIP3    H157101   4.599   0.386   2.124  0.0126  0.0836 -0.3944
11870TIP3    H257102   4.599   0.520   2.195  0.1311 -0.0547 -0.1314
11871TIP3   OH257103   0.528   0.379  15.799  0.2058  0.2879 -0.2349
11871TIP3    H157104   0.578   0.298  15.812 -1.6227 -0.6809  0.8733
11871TIP3    H257105   0.519   0.415  15.888 -0.7128  0.6700 -0.4864
11872TIP3   OH257106   2.257   1.091  10.734 -0.4249  0.2595  0.1262
11872TIP3    H157107   2.179   1.144  10.718 -1.1181  0.2480  3.1953
11872TIP3    H257108   2.224   1.003  10.749  0.1775  0.2063  1.2058
11873TIP3   OH257109   3.822   1.390   4.627 -0.1287 -0.1879 -0.3541
11873TIP3    H157110   3.870   1.308   4.617  0.8665  0.3045  0.3184
11873TIP3    H257111   3.742   1.366   4.674  0.8469 -0.5558  1.1615
11874TIP3   OH257112   1.448   6.546   4.221 -0.1664 -0.2927 -0.3836
11874TIP3    H157113   1.433   6.551   4.315  2.1555 -2.1328  0.1229
11874TIP3    H257114   1.361   6.552   4.183 -1.1630  0.1532  1.8844
11875TIP3   OH257115   4.262   0.304  16.798  0.3831 -0.1487  0.3167
11875TIP3    H157116   4.320   0.323  16.872  0.3482  1.2463  0.0001
11875TIP3    H257117   4.313   0.329  16.721  0.6174 -2.0922 -0.1886
11876TIP3   OH257118   1.120   4.441   3.606  0.0879  0.3027  0.3004
11876TIP3    H157119   1.034   4.439   3.564 -0.0550  1.5660  0.5247
11876TIP3    H257120   1.109   4.390   3.686 -0.6414  1.0301  0.6676
11877TIP3   OH257121   2.520   4.970   1.465  0.0549  0.1441 -0.4746
11877TIP3    H157122   2.507   5.064   1.476 -1.6007 -0.0007 -1.0474
11877TIP3    H257123   2.574   4.962   1.386  2.1335  0.6912  0.8587
11878TIP3   OH257124   3.456   4.072  13.316 -0.3243 -0.4763  0.4039
11878TIP3    H157125   3.397   4.002  13.343 -1.2180 -0.5133 -1.5953
11878TIP3    H257126   3.513   4.031  13.251  0.6280  0.0739  0.8833
11879TIP3   OH257127   0.482   1.284   3.817 -0.2597  0.0615  0.2192
11879TIP3    H157128   0.458   1.252   3.904 -0.8105  0.3335  0.1660
11879TIP3    H257129   0.433   1.228   3.757  0.7552 -0.6701  0.0572
11880TIP3   OH257130   4.122   4.332  16.619  0.2587 -0.7239  0.4252
11880TIP3    H157131   4.167   4.397  16.674  0.6968 -1.3246  0.7928
11880TIP3    H257132   4.160   4.343  16.532 -0.5967  0.3842  0.1924
11881TIP3   OH257133   1.241   1.675  15.221 -0.2242 -0.6880  0.1960
11881TIP3    H157134   1.291   1.602  15.256  0.8650  0.1239  0.3841
11881TIP3    H257135   1.197   1.640  15.144  0.6083 -1.4425  0.0533
11882TIP3   OH257136   4.193   4.398  15.991 -0.3084  0.5134 -0.1316
11882TIP3    H157137   4.225   4.308  15.979 -0.3287  0.4540  0.2504
11882TIP3    H257138   4.260   4.441  16.044 -0.1257  0.8298 -0.6165
11883TIP3   OH257139   5.736   3.484  16.602  0.3900  0.4612 -0.1337
11883TIP3    H157140   5.725   3.571  16.641 -0.7878  1.3710 -2.4478
11883TIP3    H257141   5.831   3.474  16.593  0.5504  1.3373  0.5063
11884TIP3   OH257142   6.490   3.955  17.221  0.2106  0.0673  0.0325
11884TIP3    H157143   6.566   3.978  17.168  0.0956  0.7914  0.1800
11884TIP3    H257144   6.473   3.863  17.200  1.8377 -0.4339  0.8588
11885TIP3   OH257145   2.799   6.288  15.063 -0.1012 -0.0122  0.0402
11885TIP3    H157146   2.790   6.366  15.007 -3.2159 -0.1284  0.2867
11885TIP3    H257147   2.788   6.214  15.003  1.1391 -0.2440  0.0876
11886TIP3   OH257148   5.973   1.562  15.095  0.1535 -0.5639  0.2445
11886TIP3    H157149   6.022   1.615  15.032 -0.0125 -0.1986  0.4230
11886TIP3    H257150   6.040   1.526  15.153  0.2051  0.0106  0.5449
11887TIP3   OH257151   2.073   0.697   1.977  0.2909 -0.0781  0.0982
11887TIP3    H157152   2.077   0.754   1.900  1.0526  2.4433  1.9569
11887TIP3    H257153   2.111   0.749   2.047 -2.4830 -1.4783  2.7324
11888TIP3   OH257154   5.775   1.807   4.117 -0.4634 -0.1495  0.4729
11888TIP3    H157155   5.747   1.868   4.049 -3.0683 -0.6887  1.0057
11888TIP3    H257156   5.782   1.859   4.196  2.3219  0.4265 -0.0833
11889TIP3   OH257157   4.795   4.123  14.861 -0.1605 -0.2981 -0.1818
11889TIP3    H157158   4.716   4.101  14.812  0.1421 -1.3903 -0.1827
11889TIP3    H257159   4.763   4.174  14.936 -0.9507 -1.4034  0.2449
11890TIP3   OH257160   6.474   2.354  13.467 -0.0467 -0.6380  0.6005
11890TIP3    H157161   6.398   2.302  13.493  0.3197 -1.0499  0.8500
11890TIP3    H257162   6.483   2.337  13.373 -0.5607 -0.1989  0.4670
11891TIP3   OH257163   1.039   0.311  14.807  0.6940 -0.9189 -0.0399
11891TIP3    H157164   0.980   0.271  14.744  0.9739 -0.1466 -0.7983
11891TIP3    H257165   0.983   0.332  14.882 -0.0944  0.2541 -0.9443
11892TIP3   OH257166   5.855   0.290  13.743 -0.1688 -0.0305 -0.4658
11892TIP3    H157167   5.780   0.232  13.757  0.6240 -1.3263 -1.4700
11892TIP3    H257168   5.926   0.232  13.717  1.0577  1.2428 -0.0384
11893TIP3   OH257169   0.552   4.660   5.682 -0.7283 -0.1552 -0.0678
11893TIP3    H157170   0.495   4.697   5.615  0.7688 -0.1658 -1.3852
11893TIP3    H257171   0.637   4.701   5.667  0.0383 -1.3857  0.7879
11894TIP3   OH257172   1.126   4.582  15.137  0.5302 -0.2663 -0.2647
11894TIP3    H157173   1.093   4.655  15.085 -1.8512  0.1296  1.7349
11894TIP3    H257174   1.145   4.514  15.072  0.7256  1.3602 -1.9438
11895TIP3   OH257175   3.023   1.643   0.363  0.1152 -0.2263 -0.0072
11895TIP3    H157176   2.991   1.555   0.383  0.8624 -0.6495 -0.6168
11895TIP3    H257177   3.106   1.628   0.317 -1.2928  0.6711 -2.9865
11896TIP3   OH257178   5.408   3.639   0.948 -0.1047 -0.8324  0.4483
11896TIP3    H157179   5.467   3.702   0.908  1.2370 -2.6433 -0.5305
11896TIP3    H257180   5.359   3.689   1.014 -0.2211  1.5417 -1.3884
11897TIP3   OH257181   0.888   2.718  11.401 -0.5207 -0.4325  0.6359
11897TIP3    H157182   0.979   2.737  11.376  0.2948 -1.1553  2.9572
11897TIP3    H257183   0.894   2.689  11.492 -3.0594 -0.7748  0.7116
11898TIP3   OH257184   2.626   5.587  10.593 -0.5010  0.2726  0.5018
11898TIP3    H157185   2.545   5.553  10.556 -0.4838 -1.2885  1.8268
11898TIP3    H257186   2.616   5.575  10.688  2.1624 -2.0556  0.5525
11899TIP3   OH257187   4.956   3.461  12.217 -0.7383  0.0457 -0.2744
11899TIP3    H157188   4.952   3.405  12.140 -0.0433 -0.7804  0.2911
11899TIP3    H257189   4.889   3.426  12.276 -0.6038  0.0795 -0.1001
11900TIP3   OH257190   6.068   6.275   3.169 -0.3873  0.1386 -0.4204
11900TIP3    H157191   6.016   6.342   3.213  0.1984  0.0799  0.3539
11900TIP3    H257192   6.016   6.252   3.092 -0.5515  1.5458 -0.7441
11901TIP3   OH257193   1.002   1.133   4.819 -0.6041 -0.1275 -0.1638
11901TIP3    H157194   1.004   1.161   4.910  3.9236  1.0083 -0.5122
11901TIP3    H257195   0.944   1.057   4.819 -0.2418 -0.5132  3.7498
11902TIP3   OH257196   0.813   4.938  12.858 -0.1885 -0.0225 -0.2896
11902TIP3    H157197   0.793   4.906  12.946 -0.6718 -1.5995 -0.9572
11902TIP3    H257198   0.904   4.969  12.864 -0.5434  0.7965  1.0031
11903TIP3   OH257199   0.237   4.885   1.275 -0.3794  0.1034  0.3154
11903TIP3    H157200   0.164   4.824   1.262 -0.2906  0.5615 -2.6457
11903TIP3    H257201   0.312   4.841   1.234  1.1936 -0.5863  3.7487
11904TIP3   OH257202   0.888   2.560  15.395 -0.4104  0.0858 -0.3847
11904TIP3    H157203   0.926   2.511  15.322 -1.6968 -1.2271 -0.1915
11904TIP3    H257204   0.797   2.574  15.370 -0.5457  0.6999  0.4342
11905TIP3   OH257205   5.732   0.167  16.181  0.3164 -0.0186 -0.4057
11905TIP3    H157206   5.827   0.176  16.172  0.2811 -0.3283 -1.1963
11905TIP3    H257207   5.700   0.166  16.090 -0.5488  1.2419 -0.1181
11906TIP3   OH257208   6.022   5.075   3.941 -0.2045 -0.1352 -0.2140
11906TIP3    H157209   6.006   5.066   3.847  2.9704 -1.8668 -0.6456
11906TIP3    H257210   6.085   5.147   3.948  0.2603 -0.6127  0.5217
11907TIP3   OH257211   0.179   4.559   2.560  0.4982 -0.0289  0.4829
11907TIP3    H157212   0.088   4.583   2.539  0.7829  1.0609  0.4490
11907TIP3    H257213   0.171   4.490   2.625 -0.3564  0.5000  0.9535
11908TIP3   OH257214   0.595   0.307  13.967  0.3669  0.0879 -0.0320
11908TIP3    H157215   0.517   0.340  14.012  0.6654 -0.6189  1.0289
11908TIP3    H257216   0.608   0.219  14.002  1.2669 -0.0542 -0.6821
11909TIP3   OH257217   1.374   1.008  13.753  0.2247  0.3170 -0.1904
11909TIP3    H157218   1.415   1.051  13.677 -2.5188  0.9916 -1.3696
11909TIP3    H257219   1.424   1.039  13.828  3.5458 -1.0271 -1.7813
11910TIP3   OH257220   1.146   4.119   0.142 -0.3534  0.0607  0.0283
11910TIP3    H157221   1.183   4.198   0.102 -0.2898 -0.4517 -0.9401
11910TIP3    H257222   1.099   4.151   0.219  2.0130  0.7353  1.2441
11911TIP3   OH257223   1.628   5.265  15.373  0.1719  0.1304  0.3289
11911TIP3    H157224   1.641   5.225  15.288 -1.4441 -1.1989  0.6621
11911TIP3    H257225   1.685   5.341  15.374  0.4792 -0.0598 -1.7841
11912TIP3   OH257226   3.343   0.120   3.700  0.0187 -0.0265 -0.2387
11912TIP3    H157227   3.326   0.214   3.695  0.6114  0.0454 -0.9912
11912TIP3    H257228   3.306   0.085   3.619  0.0107 -0.4030 -0.0718
11913TIP3   OH257229   0.135   6.427   0.890 -0.3116 -0.0141  0.7090
11913TIP3    H157230   0.175   6.433   0.803  0.5034 -1.4633  0.9687
11913TIP3    H257231   0.091   6.342   0.891  0.4185 -0.3847  2.0164
11914TIP3   OH257232   1.057   0.681   2.991 -0.6078 -0.4252  0.7485
11914TIP3    H157233   0.975   0.632   3.001 -0.4046 -0.9734 -0.2797
11914TIP3    H257234   1.117   0.620   2.949 -1.1366  1.4920 -3.0006
11915TIP3   OH257235   1.836   2.575   5.894 -0.2884  0.8137  0.2282
11915TIP3    H157236   1.850   2.526   5.975 -0.8029  0.4918  0.1234
11915TIP3    H257237   1.911   2.635   5.889  0.6718 -0.3987  0.0359
11916TIP3   OH257238   4.962   6.566  11.469 -0.3424  0.0444  0.0493
11916TIP3    H157239   5.055   6.588  11.469 -0.0736 -1.0349  0.1616
11916TIP3    H257240   4.919   6.641  11.509  0.2434  1.4963 -1.9262
11917TIP3   OH257241   2.977   4.336   6.349 -0.1575  0.5033 -0.3838
11917TIP3    H157242   2.993   4.246   6.321  1.0957  0.2937  0.9661
11917TIP3    H257243   2.882   4.346   6.347 -0.4234 -1.5111  1.5047
11918TIP3   OH257244   6.006   1.002   6.577  0.3170 -0.3574 -0.3322
11918TIP3    H157245   6.036   1.092   6.569  0.5738 -0.5284 -1.3274
11918TIP3    H257246   5.911   1.006   6.563  0.0561 -0.0227  1.3342
11919TIP3   OH257247   2.636   6.315  15.282  0.2344 -0.0494  0.2351
11919TIP3    H157248   2.703   6.294  15.217 -1.0199 -4.5029  0.2424
11919TIP3    H257249   2.685   6.334  15.362  1.6007  1.2513 -0.8830
11920TIP3   OH257250   1.485   3.768  16.842 -0.4597  0.0065  0.0991
11920TIP3    H157251   1.430   3.834  16.883 -1.0568  0.4589 -1.3723
11920TIP3    H257252   1.523   3.719  16.914 -2.2825  0.1154  1.1646
11921TIP3   OH257253   0.690   3.721   0.149  0.1672  0.1433 -0.0256
11921TIP3    H157254   0.752   3.745   0.218  0.3885  0.0885 -0.2032
11921TIP3    H257255   0.617   3.782   0.160  0.6310  0.7623 -0.3382
11922TIP3   OH257256   0.111   1.414  14.016 -0.0966 -0.0934 -0.0304
11922TIP3    H157257   0.036   1.395  14.072  1.3519  0.0350  2.0327
11922TIP3    H257258   0.075   1.416  13.927 -1.9728 -3.0498  0.5893
11923TIP3   OH257259   3.966   2.754  11.142  0.5051 -0.1633 -0.4087
11923TIP3    H157260   4.019   2.808  11.200 -0.7319 -0.0818  0.6600
11923TIP3    H257261   4.030   2.699  11.096  1.5957  0.7083  0.0429
11924TIP3   OH257262   1.601   5.462   0.086 -0.1105 -0.3670 -0.0919
11924TIP3    H157263   1.675   5.457   0.026  2.5823  2.0114  2.8408
11924TIP3    H257264   1.542   5.527   0.047 -0.0454 -1.3316 -1.8146
11925TIP3   OH257265   4.522   6.665   0.457 -0.1984 -0.4166  0.4853
11925TIP3    H157266   4.607   6.707   0.446 -0.8092  1.1873  1.6301
11925TIP3    H257267   4.535   6.603   0.529  0.4171 -1.3977 -0.4572
11926TIP3   OH257268   2.611   1.031  10.732 -0.0098  0.9006  0.0901
11926TIP3    H157269   2.616   0.939  10.709  1.3517  0.4694  1.9867
11926TIP3    H257270   2.517   1.051  10.734 -0.3388 -0.6750  0.5739
11927TIP3   OH257271   5.651   4.509  13.247 -0.1438  0.1003  0.2212
11927TIP3    H157272   5.637   4.417  13.266  1.1669 -0.1264  0.1849
11927TIP3    H257273   5.622   4.555  13.326  0.3697 -0.4423  0.7307
11928TIP3   OH257274   6.750   4.039  10.889  0.0858 -0.3579 -0.3273
11928TIP3    H157275   6.785   4.119  10.928 -3.0418  1.7859 -1.6679
11928TIP3    H257276   6.794   3.968  10.936  1.4458  2.1115  2.3238
11929TIP3   OH257277   1.216   0.495   1.147  0.0518  0.2245 -0.5501
11929TIP3    H157278   1.247   0.492   1.238  0.5018  0.1882 -0.7031
11929TIP3    H257279   1.296   0.505   1.095 -0.1409 -0.4068 -0.9796
11930TIP3   OH257280   6.557   3.683  14.895 -0.5904  0.0053 -0.1022
11930TIP3    H157281   6.589   3.717  14.979  0.0192  0.5628 -0.5510
11930TIP3    H257282   6.548   3.589  14.909  2.5847 -0.4005 -0.3567
11931TIP3   OH257283   0.089   6.699   3.452  0.5971 -0.2979 -0.1071
11931TIP3    H157284   0.123   6.692   3.541  0.5387  0.6070 -0.0071
11931TIP3    H257285   0.050   6.614   3.434  1.7807 -0.9334  0.2548
11932TIP3   OH257286   1.560   3.907   6.219 -0.1198  0.0152 -0.0327
11932TIP3    H157287   1.564   3.909   6.314 -0.8762 -2.2929  0.0736
11932TIP3    H257288   1.613   3.831   6.194  0.4620  0.8786 -1.4792
11933TIP3   OH257289   4.841   1.055  14.571 -0.1459  0.2051  0.4014
11933TIP3    H157290   4.788   1.131  14.547 -2.0038 -0.9292  0.7575
11933TIP3    H257291   4.837   0.998  14.494  0.8518  0.2449  0.3105
11934TIP3   OH257292   3.189   4.394  15.013 -0.2181 -0.1815 -0.4998
11934TIP3    H157293   3.122   4.332  14.983 -0.7862  0.1118  0.1435
11934TIP3    H257294   3.141   4.459  15.064  0.6645 -0.4534  0.7225
11935TIP3   OH257295   5.082   4.554  12.293 -0.2903  0.7369  0.0068
11935TIP3    H157296   5.129   4.590  12.217 -2.3201  0.4602 -1.4079
11935TIP3    H257297   5.066   4.462  12.270 -0.7078  0.5818  0.8909
11936TIP3   OH257298   3.327   4.332   3.905 -0.1430  0.3417  0.2191
11936TIP3    H157299   3.284   4.268   3.848 -1.4178  1.2914  0.0965
11936TIP3    H257300   3.264   4.347   3.976  0.4160  0.9887  0.5766
11937TIP3   OH257301   1.796   6.107  17.278  0.3282  0.0594 -0.4334
11937TIP3    H157302   1.817   6.042  17.211 -2.9799 -1.5791  0.0568
11937TIP3    H257303   1.769   6.184  17.229  0.3020 -0.3152 -1.0088
11938TIP3   OH257304   5.033   1.729   6.104  0.6044 -0.0107  0.0837
11938TIP3    H157305   5.071   1.644   6.082  0.1157 -0.2465  0.1273
11938TIP3    H257306   5.026   1.775   6.020 -0.0487 -0.4041 -0.0854
11939TIP3   OH257307   4.489   5.495  12.165  0.5751 -0.3786 -0.4636
11939TIP3    H157308   4.519   5.405  12.172 -0.4639 -0.8196 -1.4519
11939TIP3    H257309   4.475   5.523  12.256  1.7370 -0.9076 -0.1095
11940TIP3   OH257310   4.909   1.197   5.588 -0.1337  0.3548  0.4553
11940TIP3    H157311   4.821   1.161   5.575  0.6596 -0.9170 -1.7301
11940TIP3    H257312   4.941   1.154   5.667 -0.2391 -1.7640 -0.6038
11941TIP3   OH257313   2.919   2.144   3.895 -0.8742  0.1090 -0.0840
11941TIP3    H157314   2.976   2.146   3.971 -0.8998 -1.6496  0.0002
11941TIP3    H257315   2.978   2.128   3.821 -1.2352 -1.7279  0.0060
11942TIP3   OH257316   3.886   3.138   4.058  0.1296  0.2358 -0.0085
11942TIP3    H157317   3.840   3.066   4.101  1.6027  0.1166  1.4479
11942TIP3    H257318   3.858   3.216   4.107  0.1748  0.3662 -0.1922
11943TIP3   OH257319   0.155   6.023  17.193  0.0681 -0.0093 -0.1742
11943TIP3    H157320   0.128   6.110  17.165 -0.1627 -0.1970 -0.5280
11943TIP3    H257321   0.143   6.024  17.288 -0.1406  0.2705 -0.2017
11944TIP3   OH257322   5.022   2.612  15.067 -0.0679 -0.0988  0.6744
11944TIP3    H157323   5.026   2.617  14.971  1.2650  4.0624  0.8428
11944TIP3    H257324   4.932   2.632  15.088 -0.3926 -1.1351  0.3283
11945TIP3   OH257325   2.893   2.545  16.520  0.3424 -0.2935  0.5229
11945TIP3    H157326   2.846   2.541  16.437  1.2900 -0.5386 -0.0134
11945TIP3    H257327   2.828   2.521  16.586 -1.4931  3.8291  0.3239
11946TIP3   OH257328   4.286   0.205   1.790 -0.0095 -0.3029 -0.3160
11946TIP3    H157329   4.289   0.190   1.695 -1.0422 -2.0459 -0.0928
11946TIP3    H257330   4.341   0.282   1.804  0.2079 -0.0738 -2.3248
11947TIP3   OH257331   6.028   4.240  13.949 -0.7409  0.4425  0.3593
11947TIP3    H157332   6.084   4.164  13.970 -0.6007  0.5105  0.2301
11947TIP3    H257333   6.090   4.307  13.919 -0.9523  0.3428 -0.2832
11948TIP3   OH257334   4.349   0.440  11.728  0.0500  0.2417  0.3907
11948TIP3    H157335   4.266   0.479  11.757  0.1650  0.7225  0.0824
11948TIP3    H257336   4.408   0.450  11.803 -0.5610 -1.2984  1.0870
11949TIP3   OH257337   1.881   2.715   1.273 -0.3189 -0.2824 -0.0471
11949TIP3    H157338   1.919   2.759   1.196  2.1430  2.5408  2.6717
11949TIP3    H257339   1.795   2.755   1.283 -0.3959 -0.2014 -0.9301
11950TIP3   OH257340   6.384   2.294  16.097  0.1075  0.1152 -0.4751
11950TIP3    H157341   6.402   2.252  16.014 -1.7146  1.5891 -1.6521
11950TIP3    H257342   6.289   2.295  16.104  0.1884  1.4901  0.8215
11951TIP3   OH257343   6.155   6.655   3.072  0.5678  0.2518 -0.3535
11951TIP3    H157344   6.221   6.636   3.139  1.9845  2.0190 -1.2144
11951TIP3    H257345   6.167   6.748   3.053 -1.4081  0.3052 -1.3622
11952TIP3   OH257346   1.835   0.316  10.848  0.2492 -1.2060  0.2007
11952TIP3    H157347   1.921   0.326  10.807 -0.2071 -0.7281 -0.6748
11952TIP3    H257348   1.773   0.340  10.778 -0.6273 -2.6430  0.4733
11953TIP3   OH257349   3.041   6.700   4.660  0.5253  0.6692  0.6255
11953TIP3    H157350   2.984   6.742   4.724  0.5100  0.3599  0.8126
11953TIP3    H257351   3.128   6.701   4.701  0.7215  1.4271  0.2104
11954TIP3   OH257352   4.377   3.017  12.098 -0.0222  0.4292  0.2056
11954TIP3    H157353   4.408   3.015  12.189 -0.1268  2.2150  0.2959
11954TIP3    H257354   4.453   2.988  12.047  0.3286  0.3220  0.7740
11955TIP3   OH257355   1.811   5.191  15.790  0.2785 -0.4800  0.4415
11955TIP3    H157356   1.810   5.112  15.844  0.9421  0.7413  2.2699
11955TIP3    H257357   1.735   5.181  15.732 -0.3811 -1.8661  1.5234
11956TIP3   OH257358   6.749   3.703   5.120  0.1835  0.1398  0.2631
11956TIP3    H157359   6.825   3.711   5.062  0.6743 -0.4272  0.8200
11956TIP3    H257360   6.772   3.754   5.197 -0.2398  0.4374  0.1917
11957TIP3   OH257361   0.878   3.077  13.160 -0.1972  0.0264 -0.0738
11957TIP3    H157362   0.946   3.109  13.219  2.3948 -0.4598 -2.6979
11957TIP3    H257363   0.848   2.995  13.201  1.1752 -0.0254  0.8597
11958TIP3   OH257364   6.469   6.439  15.369 -0.3398  0.6441 -0.2507
11958TIP3    H157365   6.502   6.355  15.399  1.6848  1.5291  0.0516
11958TIP3    H257366   6.398   6.460  15.430  0.4511  0.0791  0.8675
11959TIP3   OH257367   2.914   1.863   5.657 -0.4967  0.2539 -0.0170
11959TIP3    H157368   2.954   1.805   5.721  2.1890  1.2572 -0.7126
11959TIP3    H257369   2.915   1.949   5.700  0.9907  0.8608 -1.2293
11960TIP3   OH257370   1.512   1.121  13.539  0.3591 -0.2158 -0.3366
11960TIP3    H157371   1.499   1.083  13.452 -0.0902  2.3270 -1.4098
11960TIP3    H257372   1.582   1.184  13.528 -0.0706  0.5122  1.0221
11961TIP3   OH257373   0.653   2.015   1.162 -0.1376  0.1025  0.1028
11961TIP3    H157374   0.682   2.038   1.251 -2.3637  1.2180  0.5804
11961TIP3    H257375   0.632   2.099   1.121  0.1886 -0.4591 -1.2459
11962TIP3   OH257376   5.625   4.185  15.594  0.3143  0.1681  0.4463
11962TIP3    H157377   5.560   4.252  15.573 -0.5750 -1.4590 -2.2384
11962TIP3    H257378   5.706   4.217  15.555  0.7596  1.3438  2.2622
11963TIP3   OH257379   1.313   0.875  15.633  0.6115  0.2415 -0.1433
11963TIP3    H157380   1.355   0.944  15.582  1.3968 -0.8053 -0.9264
11963TIP3    H257381   1.220   0.887  15.617  0.6866  1.5765  0.3243
11964TIP3   OH257382   3.989   2.557   2.967 -0.5170 -0.3962 -0.5242
11964TIP3    H157383   3.941   2.573   2.885 -0.0333  0.1630 -0.7081
11964TIP3    H257384   4.037   2.476   2.951 -1.0368 -0.7005 -0.5157
11965TIP3   OH257385   5.705   3.706   0.983  0.3752  0.0932 -0.1633
11965TIP3    H157386   5.642   3.767   1.022 -0.3965  0.0600 -1.3057
11965TIP3    H257387   5.720   3.640   1.050 -1.5723 -0.4369 -0.2192
11966TIP3   OH257388   0.481   5.276  15.053 -0.5149  0.0286 -0.0035
11966TIP3    H157389   0.531   5.195  15.063 -0.4443  0.2204  1.3219
11966TIP3    H257390   0.533   5.342  15.097 -2.0837  0.1562  1.7189
11967TIP3   OH257391   5.197   6.807   4.881 -0.2761  1.3699  0.1819
11967TIP3    H157392   5.260   6.863   4.836  0.3041 -0.3479 -1.2071
11967TIP3    H257393   5.251   6.747   4.933 -0.8863  1.9867  1.5474
11968TIP3   OH257394   6.512   4.538   6.211 -0.3060 -0.1978  0.4590
11968TIP3    H157395   6.431   4.584   6.186 -0.3984 -1.3281 -1.4125
11968TIP3    H257396   6.497   4.512   6.302 -2.7900 -1.8928 -0.3659
11969TIP3   OH257397   6.154   4.659  13.686  0.0856  0.0430  0.8917
11969TIP3    H157398   6.235   4.700  13.718  1.2340  0.3043 -2.1760
11969TIP3    H257399   6.087   4.727  13.697  0.6886  0.5377  1.5861
11970TIP3   OH257400   6.177   1.799  15.381  0.1792 -0.0114  0.2259
11970TIP3    H157401   6.088   1.809  15.347  0.7690 -1.0027 -1.7134
11970TIP3    H257402   6.223   1.879  15.354  0.4157 -0.4127 -0.5746
11971TIP3   OH257403   0.155   2.948  12.959 -0.6243 -0.6981  0.0014
11971TIP3    H157404   0.181   2.994  12.879  1.0832  0.3553  1.1195
11971TIP3    H257405   0.234   2.903  12.987 -0.8665 -0.0811  1.7309
11972TIP3   OH257406   6.370   4.916   3.326  0.0269  0.2362 -0.3185
11972TIP3    H157407   6.437   4.889   3.388  0.9413 -2.0770 -2.2504
11972TIP3    H257408   6.288   4.909   3.376  0.7408 -1.4765  0.6699
11973TIP3   OH257409   2.468   4.141   1.452 -0.0889  0.3940 -0.1985
11973TIP3    H157410   2.422   4.057   1.452  0.5761 -0.0174  2.7055
11973TIP3    H257411   2.399   4.206   1.441 -1.0183 -0.3775  0.9551
11974TIP3   OH257412   1.227   0.618  16.738  0.3116  0.4264  0.6318
11974TIP3    H157413   1.227   0.714  16.740 -1.1673  0.4571 -0.2080
11974TIP3    H257414   1.290   0.596  16.669 -1.6696  0.8800 -1.3629
11975TIP3   OH257415   2.437   1.143  11.790  0.2254 -0.3666 -0.5313
11975TIP3    H157416   2.477   1.223  11.756 -0.8732  0.9052  1.1195
11975TIP3    H257417   2.508   1.101  11.839  0.0439  1.0394  0.9774
11976TIP3   OH257418   2.445   5.393  13.186 -0.0229  0.2284  0.3149
11976TIP3    H157419   2.376   5.438  13.137 -0.7369  0.7173  1.7373
11976TIP3    H257420   2.448   5.305  13.148 -1.9481 -0.0374  0.7144
11977TIP3   OH257421   5.194   5.133  16.228 -0.2496  0.2326 -0.5631
11977TIP3    H157422   5.172   5.076  16.155 -2.1117  1.6846 -1.1546
11977TIP3    H257423   5.136   5.105  16.299  0.3864 -0.0547 -0.1456
11978TIP3   OH257424   3.182   2.143  14.098 -0.3740 -0.3290 -0.1911
11978TIP3    H157425   3.089   2.159  14.111 -0.5343  0.3737 -2.1016
11978TIP3    H257426   3.202   2.069  14.156 -2.0498 -0.3325  0.4055
11979TIP3   OH257427   1.024   6.364   5.095 -0.8014  0.2502 -0.3936
11979TIP3    H157428   1.084   6.400   5.160 -0.6877 -0.6036 -0.0266
11979TIP3    H257429   1.026   6.270   5.109 -1.8991  0.1801 -0.6622
11980TIP3   OH257430   5.582   4.770  15.813 -0.2561  0.1128 -0.2445
11980TIP3    H157431   5.619   4.768  15.725  0.9874 -0.8239  0.2823
11980TIP3    H257432   5.578   4.679  15.840 -0.2781  0.4108  0.7989
11981TIP3   OH257433   5.283   0.734  13.590  0.2660  0.2757  0.1763
11981TIP3    H157434   5.211   0.693  13.542 -0.3823  0.9206  0.5790
11981TIP3    H257435   5.249   0.747  13.678  1.0050  0.2597  0.4685
11982TIP3   OH257436   2.545   0.477   1.486  0.6027  0.3301 -0.2426
11982TIP3    H157437   2.500   0.539   1.543 -1.5136 -0.8011 -0.6443
11982TIP3    H257438   2.526   0.506   1.397  0.6228 -0.1839 -0.4177
11983TIP3   OH257439   4.202   4.085   3.418 -0.3000  0.3171  0.2348
11983TIP3    H157440   4.265   4.013   3.426 -0.5297  0.0977  0.0381
11983TIP3    H257441   4.119   4.043   3.397 -0.0981  0.7505 -1.5391
11984TIP3   OH257442   0.087   5.857  13.597  0.3807  0.8494  0.2961
11984TIP3    H157443   0.042   5.917  13.538 -0.5571  0.2821  0.4316
11984TIP3    H257444   0.017   5.807  13.639  1.0755  0.7261  1.3308
11985TIP3   OH257445   3.315   4.170   2.857 -0.1298  0.2233  0.2186
11985TIP3    H157446   3.336   4.077   2.860 -2.1036 -0.2386  0.5021
11985TIP3    H257447   3.328   4.194   2.765  1.8379  0.0520  0.4224
11986TIP3   OH257448   2.843   5.226  17.183 -0.5996 -0.2285 -0.3764
11986TIP3    H157449   2.937   5.207  17.188 -0.1010  2.0461 -0.7031
11986TIP3    H257450   2.811   5.214  17.273 -0.1037 -1.4563 -0.3522
11987TIP3   OH257451   0.872   1.086  17.099  0.5451  0.4112  0.6426
11987TIP3    H157452   0.940   1.067  17.035 -1.1357  0.9829 -1.3549
11987TIP3    H257453   0.850   1.178  17.085 -1.1586  0.0423  0.7238
11988TIP3   OH257454   3.819   5.543  11.827 -0.1703  0.2078  0.0827
11988TIP3    H157455   3.791   5.621  11.875  1.8235  1.4937 -0.7663
11988TIP3    H257456   3.884   5.503  11.884 -1.5182 -1.1280  0.7211
11989TIP3   OH257457   0.849   4.461   3.992  0.0445  0.4026 -0.1524
11989TIP3    H157458   0.815   4.385   4.039  0.6615  0.0928 -0.2113
11989TIP3    H257459   0.849   4.531   4.057  4.1318 -0.8287  1.3327
11990TIP3   OH257460   4.291   3.728   2.461 -0.6036  0.5078 -0.1059
11990TIP3    H157461   4.347   3.662   2.419  0.3196  0.2787  1.4478
11990TIP3    H257462   4.213   3.679   2.488  0.3258 -0.0864  1.5465
11991TIP3   OH257463   4.563   6.206  13.393  0.2042  0.5372 -0.8039
11991TIP3    H157464   4.489   6.267  13.397 -0.3642 -0.2231  1.1528
11991TIP3    H257465   4.557   6.157  13.475  1.1343 -1.5934 -1.9875
11992TIP3   OH257466   1.588   4.434   2.693 -0.1651  0.1632 -0.1460
11992TIP3    H157467   1.634   4.378   2.756 -0.8468  1.1703  1.2783
11992TIP3    H257468   1.515   4.380   2.662  0.3389 -0.4422 -0.2962
11993TIP3   OH257469   2.248   0.305  14.066  0.3652 -0.2889  0.9431
11993TIP3    H157470   2.263   0.370  14.134 -0.2344  2.2134 -1.2128
11993TIP3    H257471   2.333   0.293  14.024  0.4560 -0.8209  1.2806
11994TIP3   OH257472   1.385   1.325   4.353  0.4693 -0.0643  0.0613
11994TIP3    H157473   1.463   1.374   4.379  1.5039 -1.6620  0.0657
11994TIP3    H257474   1.359   1.278   4.433  0.7519 -1.1520 -0.4758
11995TIP3   OH257475   5.143   0.815   2.819  0.2660 -0.5311  0.7112
11995TIP3    H157476   5.189   0.898   2.826  1.1100 -1.0151  0.9894
11995TIP3    H257477   5.111   0.798   2.908  0.1626 -0.5381  0.6722
11996TIP3   OH257478   3.013   1.401   5.848  0.1281  0.3723  0.1462
11996TIP3    H157479   3.073   1.333   5.816  0.7178  1.3766 -0.9442
11996TIP3    H257480   2.933   1.354   5.870  0.6283 -0.7165 -0.2979
11997TIP3   OH257481   0.297   2.296  10.446  0.1414  0.1283  0.0915
11997TIP3    H157482   0.340   2.274  10.363  2.3204  2.9770  0.3710
11997TIP3    H257483   0.336   2.236  10.509  0.4625 -0.2458 -0.4549
11998TIP3   OH257484   1.909   6.049   2.490 -0.5662 -0.4390  0.5456
11998TIP3    H157485   1.892   6.039   2.584  1.1088 -1.6085  0.7523
11998TIP3    H257486   1.979   5.986   2.472  0.1707  0.8464 -1.1888
11999TIP3   OH257487   1.801   3.994  15.843  0.2948 -0.0192 -0.6350
11999TIP3    H157488   1.882   3.980  15.793  0.0370  2.2522 -1.7215
11999TIP3    H257489   1.733   3.998  15.777 -0.5483 -0.5258  0.1891
12000TIP3   OH257490   1.074   3.288  12.715  0.3183  0.1534 -0.4099
12000TIP3    H157491   1.048   3.222  12.780  1.3509  0.1098 -0.0401
12000TIP3    H257492   1.047   3.250  12.631  3.0359 -1.8584 -0.4477
12001TIP3   OH257493   6.431   0.964   2.115 -0.4992  0.3616 -0.6144
12001TIP3    H157494   6.464   1.027   2.178 -1.3299  1.3521 -1.1604
12001TIP3    H257495   6.443   1.006   2.030  0.5992 -0.9529 -1.1287
12002TIP3   OH257496   5.619   5.359   1.523 -0.3149  0.3152 -0.2829
12002TIP3    H157497   5.635   5.376   1.616  1.3299 -0.6388 -0.3738
12002TIP3    H257498   5.557   5.287   1.521 -0.0083  0.0410  0.0808
12003TIP3   OH257499   0.094   0.915   5.127 -0.0235 -0.0200  0.0139
12003TIP3    H157500   0.029   0.931   5.059  0.7873 -1.5581 -1.1560
12003TIP3    H257501   0.078   0.984   5.192 -3.4112 -0.9219  0.2282
12004TIP3   OH257502   2.143   0.472   0.101  0.3510 -0.2740 -0.1277
12004TIP3    H157503   2.121   0.507   0.187 -0.8165  0.1410 -0.5863
12004TIP3    H257504   2.224   0.516   0.077  0.6194 -0.3025  0.7024
12005TIP3   OH257505   3.148   1.349  11.865 -0.1228  0.5201 -0.3030
12005TIP3    H157506   3.085   1.302  11.810  0.5202  0.3855 -0.9358
12005TIP3    H257507   3.102   1.363  11.948 -1.0506  0.5793 -0.8159
12006TIP3   OH257508   3.337   1.854  10.178  0.0739 -0.1327  0.1063
12006TIP3    H157509   3.314   1.806  10.258 -2.4559  0.6285 -0.1389
12006TIP3    H257510   3.410   1.804  10.140  0.5221 -1.1603  2.2483
12007TIP3   OH257511   1.563   3.499   5.512  0.3395  0.2695  0.1837
12007TIP3    H157512   1.624   3.479   5.583  0.7003  1.1213  0.1221
12007TIP3    H257513   1.477   3.487   5.551  0.5344  0.7131  0.7680
12008TIP3   OH257514   0.338   5.960   1.334  0.1711  0.6203 -0.3939
12008TIP3    H157515   0.400   5.946   1.406  1.1848  0.2147 -1.3447
12008TIP3    H257516   0.392   5.959   1.255 -0.9204  1.2335 -1.1527
12009TIP3   OH257517   4.077   1.614   0.296  1.1054 -0.5384 -0.1143
12009TIP3    H157518   4.097   1.647   0.383  1.6342 -0.2958 -0.3260
12009TIP3    H257519   4.149   1.644   0.241  0.1637  0.3579 -0.8942
12010TIP3   OH257520   2.148   4.544   3.819 -0.8768  0.5140 -0.0350
12010TIP3    H157521   2.073   4.554   3.761 -2.1067  0.3214  1.4706
12010TIP3    H257522   2.111   4.551   3.907  0.9979  1.2854  0.7363
12011TIP3   OH257523   4.744   5.962  11.976 -0.4552  0.1610 -0.3588
12011TIP3    H157524   4.773   5.955  12.067  1.2161 -0.2515 -0.9069
12011TIP3    H257525   4.739   6.057  11.959  0.7527  0.2414 -0.3004
12012TIP3   OH257526   2.023   4.418  12.843  0.3794  0.7522  0.0756
12012TIP3    H157527   1.935   4.393  12.815 -0.9635  1.4636  3.4089
12012TIP3    H257528   2.045   4.494  12.789 -0.9257  0.3618 -1.0160
12013TIP3   OH257529   2.921   3.239   2.550 -0.0849  0.1991  0.0825
12013TIP3    H157530   2.864   3.246   2.474 -1.4969  1.4069  1.2304
12013TIP3    H257531   2.907   3.150   2.583 -0.0050 -0.0808 -0.6354
12014TIP3   OH257532   0.897   4.687   4.175 -0.1644 -0.4128  0.4656
12014TIP3    H157533   0.845   4.766   4.156 -0.5988 -0.9362 -0.6053
12014TIP3    H257534   0.910   4.688   4.269  0.9870  1.6637  0.3162
12015TIP3   OH257535   4.816   0.124  13.600  0.6511 -0.0725  0.0630
12015TIP3    H157536   4.905   0.156  13.618  0.1563  1.2182  0.2558
12015TIP3    H257537   4.801   0.145  13.508  0.6331 -0.5239 -0.0396
12016TIP3   OH257538   2.760   2.231   0.052 -0.4169  0.0202 -0.3432
12016TIP3    H157539   2.783   2.162   0.115 -0.7598  0.3376  0.1352
12016TIP3    H257540   2.742   2.184  -0.029 -1.4668 -0.5410  0.1964
12017TIP3   OH257541   4.309   5.372  11.676  0.3462  0.0979  0.0282
12017TIP3    H157542   4.324   5.279  11.660  0.0918 -0.1135  0.9909
12017TIP3    H257543   4.236   5.375  11.738  0.3715  0.9359  0.0302
12018TIP3   OH257544   0.609   1.056   6.397  0.4538  0.4285 -0.1449
12018TIP3    H157545   0.679   1.107   6.437  1.5299 -1.2180  0.1456
12018TIP3    H257546   0.600   0.979   6.454 -0.9192  0.1401 -0.7239
12019TIP3   OH257547   1.229   5.063  13.864  0.1775  0.7868  0.0579
12019TIP3    H157548   1.194   5.148  13.839 -2.5988 -0.6574 -1.2032
12019TIP3    H257549   1.238   5.068  13.959 -2.5533  1.6243  0.3272
12020TIP3   OH257550   5.381   2.715   4.627  0.0389  0.1370 -0.3644
12020TIP3    H157551   5.445   2.677   4.567 -0.0507 -0.4552 -0.0881
12020TIP3    H257552   5.344   2.789   4.579  0.8075  0.3822 -0.5882
12021TIP3   OH257553   4.821   6.285  13.379 -0.4510 -0.1757 -0.6524
12021TIP3    H157554   4.726   6.269  13.381 -0.5921  0.3647 -2.4555
12021TIP3    H257555   4.835   6.351  13.447 -1.2175 -0.9532  0.2923
12022TIP3   OH257556   2.792   2.734   3.517 -0.0178 -0.2387 -0.1069
12022TIP3    H157557   2.815   2.824   3.494 -0.8109 -0.2061 -0.8239
12022TIP3    H257558   2.726   2.743   3.586  1.4290 -0.3154  1.3120
12023TIP3   OH257559   5.799   5.537  15.493  0.0676 -0.2944  0.0277
12023TIP3    H157560   5.705   5.528  15.478  0.6330 -2.8245 -2.3351
12023TIP3    H257561   5.805   5.586  15.575 -3.2821  0.5208 -0.1233
12024TIP3   OH257562   6.414   1.117  15.382 -0.6181 -0.5366 -0.0014
12024TIP3    H157563   6.376   1.138  15.296  1.2284 -1.2133 -0.9944
12024TIP3    H257564   6.385   1.189  15.438 -1.3402  0.2462 -1.3413
12025TIP3   OH257565   1.043   0.362   6.169 -0.0102  0.2419  0.3215
12025TIP3    H157566   1.032   0.417   6.246 -0.9297 -1.5249  1.4760
12025TIP3    H257567   1.065   0.276   6.204  2.4183  0.0766 -1.4879
12026TIP3   OH257568   4.138   2.701  13.095  0.2718 -0.1029  0.1484
12026TIP3    H157569   4.169   2.671  13.181 -1.3645 -0.3404  0.6753
12026TIP3    H257570   4.103   2.788  13.111 -0.2458 -0.2385 -0.2196
12027TIP3   OH257571   6.138   4.790   3.432  0.6356 -0.3156 -0.2705
12027TIP3    H157572   6.050   4.820   3.452  1.3040  0.0662  2.2636
12027TIP3    H257573   6.132   4.695   3.431  0.0388 -0.2729 -0.8929
12028TIP3   OH257574   5.391   2.754   1.236  0.0164 -0.2919 -0.2515
12028TIP3    H157575   5.453   2.684   1.257 -0.7436 -0.6698  0.7901
12028TIP3    H257576   5.361   2.785   1.321 -0.9786  0.1150 -0.7499
12029TIP3   OH257577   6.568   2.571   3.552 -0.5199  0.4184 -0.2106
12029TIP3    H157578   6.592   2.623   3.474  2.2058 -1.8054 -0.9484
12029TIP3    H257579   6.508   2.504   3.518  1.2043 -0.9746 -0.5912
12030TIP3   OH257580   0.551   4.590   4.307 -0.0554 -0.1227  0.1143
12030TIP3    H157581   0.633   4.542   4.297 -0.1317 -0.3043  0.3538
12030TIP3    H257582   0.484   4.533   4.269  0.1020  0.5660 -1.2156
12031TIP3   OH257583   1.454   4.904  11.935  0.4655 -0.6342 -0.7434
12031TIP3    H157584   1.547   4.882  11.940  0.4792 -0.2226  1.3542
12031TIP3    H257585   1.409   4.825  11.963  0.2159 -0.5478 -0.8978
12032TIP3   OH257586   1.324   6.347  15.876  0.9474  0.3137 -0.7191
12032TIP3    H157587   1.354   6.263  15.843  0.2135  0.0119 -0.6177
12032TIP3    H257588   1.229   6.338  15.882  1.0629  0.4157  1.3488
12033TIP3   OH257589   3.436   0.654  14.840  0.1858 -0.5440 -0.0308
12033TIP3    H157590   3.445   0.664  14.935  1.0910 -2.7505  0.1348
12033TIP3    H257591   3.347   0.685  14.822  0.2711  0.6481  1.3989
12034TIP3   OH257592   6.578   4.251  12.324 -0.3011 -0.8731  0.4906
12034TIP3    H157593   6.631   4.172  12.310  1.2345  0.1267  0.4866
12034TIP3    H257594   6.582   4.265  12.419  1.5400  0.5864  0.2326
12035TIP3   OH257595   5.535   3.389  16.070  1.0882 -0.0799 -0.4512
12035TIP3    H157596   5.471   3.456  16.045  0.7780 -0.7430 -1.4753
12035TIP3    H257597   5.565   3.415  16.157 -1.3120 -0.3097  0.4709
12036TIP3   OH257598   6.091   0.295  17.043 -0.1594 -0.1764 -0.7366
12036TIP3    H157599   6.093   0.259  16.954 -1.0600 -0.3490 -0.6911
12036TIP3    H257600   6.004   0.334  17.051  0.5319  1.3459 -0.5163
12037TIP3   OH257601   2.314   1.136  14.910 -0.0980 -0.5616 -0.4376
12037TIP3    H157602   2.340   1.077  14.981 -0.7340 -1.7559 -1.1844
12037TIP3    H257603   2.396   1.155  14.864  0.0988 -0.9501 -0.2540
12038TIP3   OH257604   6.083   6.524   5.729  0.3198 -0.0464 -0.0186
12038TIP3    H157605   6.122   6.436   5.734 -1.1633 -0.7279 -0.1902
12038TIP3    H257606   6.048   6.529   5.640 -0.2345  0.4476  0.2281
12039TIP3   OH257607   1.028   2.757   5.271  0.3401  0.1524  0.2021
12039TIP3    H157608   0.941   2.742   5.234 -0.1291  1.0461  0.9173
12039TIP3    H257609   1.015   2.751   5.366  1.5317 -2.1374  0.2341
12040TIP3   OH257610   3.826   0.528   2.829 -0.2166 -0.1696  0.3812
12040TIP3    H157611   3.878   0.504   2.752 -0.5773 -0.9649  0.3781
12040TIP3    H257612   3.852   0.464   2.896  0.4282  0.7927  1.0646
12041TIP3   OH257613   4.978   6.474   3.713  0.2916 -0.8096 -0.3556
12041TIP3    H157614   4.959   6.473   3.619 -1.1323 -2.5511 -0.0764
12041TIP3    H257615   5.040   6.403   3.726  2.2421  0.8393 -0.2697
12042TIP3   OH257616   0.937   0.740  13.003 -0.3266  0.0361 -0.2778
12042TIP3    H157617   1.008   0.765  12.943 -1.1639  0.5520 -1.0586
12042TIP3    H257618   0.981   0.729  13.088  0.5962  0.9714 -0.6167
12043TIP3   OH257619   4.510   4.662   2.325  0.7565 -0.3925  0.0260
12043TIP3    H157620   4.509   4.680   2.419  2.2133 -0.5037  0.0810
12043TIP3    H257621   4.484   4.571   2.317  1.8258 -0.7400  0.4289
12044TIP3   OH257622   0.384   6.535  16.358 -0.4387 -0.3019  0.2601
12044TIP3    H157623   0.311   6.476  16.375 -1.0306 -0.2104 -1.7810
12044TIP3    H257624   0.343   6.619  16.337  0.3591  0.5159  1.8655
12045TIP3   OH257625   0.665   4.277   6.032 -0.0543 -0.0366 -0.4599
12045TIP3    H157626   0.594   4.264   6.094  0.7722 -0.3695  0.4404
12045TIP3    H257627   0.644   4.218   5.959  0.1958 -1.4752  0.5965
12046TIP3   OH257628   5.545   6.125   1.300 -0.3848 -0.2655 -0.4219
12046TIP3    H157629   5.465   6.099   1.254 -1.4959  1.0447  0.7111
12046TIP3    H257630   5.515   6.187   1.366  1.3162 -1.3332  1.4050
12047TIP3   OH257631   5.167   3.175   3.787  0.2402 -0.4522  0.2961
12047TIP3    H157632   5.253   3.190   3.747  0.7743 -0.8301  1.3119
12047TIP3    H257633   5.175   3.093   3.834 -1.0244 -1.0731 -0.5320
12048TIP3   OH257634   6.314   5.055  14.784 -0.0323  0.6556  0.2276
12048TIP3    H157635   6.220   5.072  14.770  0.1991  2.2688  0.4960
12048TIP3    H257636   6.321   5.034  14.877 -0.4825 -2.1796 -0.3459
12049TIP3   OH257637   3.283   2.017   1.272  0.0807 -0.1210  0.2470
12049TIP3    H157638   3.370   1.982   1.292  0.2787  0.2430  0.0088
12049TIP3    H257639   3.298   2.108   1.249 -0.2891 -0.2286 -0.4393
12050TIP3   OH257640   6.136   1.139  16.952 -0.2779  0.2735  0.1333
12050TIP3    H157641   6.134   1.202  17.024 -1.9393 -0.0924  0.4045
12050TIP3    H257642   6.189   1.066  16.986 -0.4380  0.4254  0.7167
12051TIP3   OH257643   6.624   1.175  15.890 -0.5151  0.1690 -0.5272
12051TIP3    H157644   6.626   1.098  15.833 -0.5882  0.7966 -1.3979
12051TIP3    H257645   6.595   1.142  15.975 -0.9220 -0.6960 -0.9982
12052TIP3   OH257646   6.207   3.644  14.797  0.6231  0.0470 -0.0662
12052TIP3    H157647   6.239   3.599  14.719  0.0315 -1.4292  0.5186
12052TIP3    H257648   6.119   3.609  14.811  0.2647  1.1746  0.5811
12053TIP3   OH257649   1.782   1.301   3.234 -0.2711 -0.2348 -0.0800
12053TIP3    H157650   1.871   1.270   3.215  0.4338  2.3792 -1.2428
12053TIP3    H257651   1.747   1.236   3.295  3.2479 -0.1439  2.1929
12054TIP3   OH257652   6.080   4.544  13.083  0.0320  0.0815  0.2015
12054TIP3    H157653   6.164   4.500  13.068  0.7183  1.1587  0.8237
12054TIP3    H257654   6.043   4.502  13.160 -0.7874 -1.5193 -1.0335
12055TIP3   OH257655   3.347   6.394  13.863  0.2973 -0.2826  0.2778
12055TIP3    H157656   3.255   6.374  13.877  0.6250 -1.6427  0.5474
12055TIP3    H257657   3.385   6.397  13.951  0.5840 -0.1336  0.1508
12056TIP3   OH257658   4.206   1.408  15.992 -0.0554 -0.3784 -0.5134
12056TIP3    H157659   4.209   1.395  15.898  1.6220 -0.2323 -0.4999
12056TIP3    H257660   4.292   1.444  16.014 -0.4657 -0.3103  1.0510
12057TIP3   OH257661   5.982   5.638   5.134  0.1071 -0.3950  0.0101
12057TIP3    H157662   6.054   5.688   5.095  0.6814 -1.0940  0.1609
12057TIP3    H257663   5.950   5.582   5.063 -0.4882  0.1333 -0.1388
12058TIP3   OH257664   6.100   3.809   3.619 -0.3032  0.0637 -0.4274
12058TIP3    H157665   6.110   3.715   3.602  0.2922  0.1629 -0.6284
12058TIP3    H257666   6.152   3.825   3.699  2.8517  0.9413 -2.5428
12059TIP3   OH257667   3.830   2.757  10.914 -0.4544 -0.2114 -0.3822
12059TIP3    H157668   3.861   2.838  10.874  2.7329 -2.1399 -2.0560
12059TIP3    H257669   3.878   2.751  10.996 -0.1861 -0.7534 -0.5811
12060TIP3   OH257670   4.732   1.138  13.678 -0.8062  0.2062 -0.4527
12060TIP3    H157671   4.729   1.186  13.760  1.7095  2.2998 -1.5022
12060TIP3    H257672   4.706   1.202  13.612  0.9066 -0.3280 -1.6883
12061TIP3   OH257673   3.921   2.167  13.472  0.0345  0.4271  0.0682
12061TIP3    H157674   4.012   2.193  13.486  0.3395 -1.5550  2.0260
12061TIP3    H257675   3.873   2.212  13.542 -0.1285 -0.3702  0.4798
12062TIP3   OH257676   2.739   2.360   5.580 -0.4511 -0.4237 -0.0345
12062TIP3    H157677   2.770   2.291   5.638 -0.8901 -2.0501 -1.6914
12062TIP3    H257678   2.648   2.336   5.560 -0.8445  1.0265 -0.0629
12063TIP3   OH257679   5.185   5.917   2.745  0.2708 -0.1823  0.7112
12063TIP3    H157680   5.138   5.889   2.823 -0.1932  0.6375  0.7303
12063TIP3    H257681   5.267   5.954   2.778 -1.0332  2.5202  1.0131
12064TIP3   OH257682   1.803   0.277   3.872 -0.2030 -0.0201  0.3973
12064TIP3    H157683   1.799   0.242   3.961  0.5265 -1.7665 -0.2282
12064TIP3    H257684   1.878   0.337   3.873 -0.5213  0.3653  1.0953
12065TIP3   OH257685   4.074   2.421  16.408  0.0508 -0.3115 -0.3696
12065TIP3    H157686   4.037   2.334  16.395  2.5287 -1.4596 -0.1173
12065TIP3    H257687   4.140   2.430  16.339 -0.2192  1.3820 -0.4288
12066TIP3   OH257688   5.878   3.259  14.743 -0.4952 -0.1405 -0.1834
12066TIP3    H157689   5.875   3.308  14.825  1.2376  0.1487 -0.2756
12066TIP3    H257690   5.922   3.177  14.765 -0.3113 -0.2005 -0.7708
12067TIP3   OH257691   3.254   0.297   4.478 -0.2653 -0.3884  0.2097
12067TIP3    H157692   3.341   0.337   4.484 -0.0093 -0.9295  0.1890
12067TIP3    H257693   3.256   0.246   4.397 -0.0529 -1.6735  1.0088
12068TIP3   OH257694   2.460   1.110   3.440 -0.5770 -0.2602  0.4726
12068TIP3    H157695   2.534   1.159   3.476 -0.0832 -2.1194  2.0182
12068TIP3    H257696   2.391   1.120   3.505 -0.6745 -1.1127  0.5012
12069TIP3   OH257697   4.091   4.420   4.251 -0.1117 -0.2580  0.1264
12069TIP3    H157698   4.133   4.384   4.329 -2.6604 -0.6225  1.3861
12069TIP3    H257699   4.114   4.513   4.252 -1.2670  0.0430  2.1531
12070TIP3   OH257700   6.566   6.096   0.299 -0.8837  0.4061  0.5667
12070TIP3    H157701   6.549   6.009   0.263  0.5634  1.4241 -2.7572
12070TIP3    H257702   6.638   6.084   0.361  0.5129 -0.4989 -1.2063
12071TIP3   OH257703   2.121   0.288   2.644  0.4398 -0.2976 -0.0455
12071TIP3    H157704   2.126   0.194   2.661  1.2076 -0.3583 -0.5878
12071TIP3    H257705   2.159   0.329   2.722  0.2639 -0.4425  0.1161
12072TIP3   OH257706   0.386   3.989   0.060 -0.4848 -0.4456 -0.6182
12072TIP3    H157707   0.405   4.024  -0.028 -0.3595 -1.0819 -0.8465
12072TIP3    H257708   0.346   3.904   0.043 -3.7490  0.8993 -0.1618
12073TIP3   OH257709   0.108   4.657   0.687  0.1161  0.0289 -0.2467
12073TIP3    H157710   0.111   4.576   0.736  0.8798 -0.3478 -0.8981
12073TIP3    H257711   0.043   4.642   0.619 -0.0814  0.1294 -0.0804
12074TIP3   OH257712   0.302   5.757   0.966 -0.5412 -0.3302  0.1689
12074TIP3    H157713   0.319   5.707   0.886  3.6664 -2.6534  2.3639
12074TIP3    H257714   0.235   5.707   1.012 -0.3571 -0.9523 -0.2314
12075TIP3   OH257715   0.297   3.546  16.767  0.5462 -0.1789  0.5583
12075TIP3    H157716   0.369   3.605  16.748 -0.2390  0.1854 -1.3997
12075TIP3    H257717   0.280   3.558  16.861  0.8226  2.2355  0.3274
12076TIP3   OH257718   1.975   3.286   2.870  0.3796  0.0245  0.2100
12076TIP3    H157719   1.920   3.339   2.927 -0.1358 -0.3415  0.0627
12076TIP3    H257720   2.035   3.348   2.829 -0.9741  0.6688 -0.8498
12077TIP3   OH257721   1.971   5.526   1.243 -0.0537  0.0525  0.2955
12077TIP3    H157722   1.876   5.536   1.246 -0.6668 -3.1709 -3.6854
12077TIP3    H257723   1.988   5.439   1.278  1.2847  0.1470 -0.0739
12078TIP3   OH257724   4.418   0.010  15.740 -0.1296  0.1241  0.6837
12078TIP3    H157725   4.381  -0.008  15.653  0.0139  0.7847  0.4795
12078TIP3    H257726   4.382   0.096  15.764  1.4041  0.8665  0.3974
12079TIP3   OH257727   0.588   1.649  16.587 -0.7997 -0.0668 -0.0155
12079TIP3    H157728   0.563   1.713  16.521  1.6457  0.1134 -0.8197
12079TIP3    H257729   0.594   1.699  16.668 -2.4790 -0.0180  0.0838
12080TIP3   OH257730   1.261   5.769  12.541  0.0247 -0.0749  0.4003
12080TIP3    H157731   1.186   5.752  12.484 -1.0811  1.6032  1.3243
12080TIP3    H257732   1.223   5.788  12.626  1.4808  0.9393  0.8507
12081TIP3   OH257733   2.259   0.214  16.038 -0.1524 -0.1228  0.0769
12081TIP3    H157734   2.332   0.171  16.083 -1.5031 -1.6377  0.8810
12081TIP3    H257735   2.296   0.295  16.004  1.4920 -0.0420  1.9498
12082TIP3   OH257736   5.772   5.306  12.554 -0.0244 -0.5701  0.8073
12082TIP3    H157737   5.704   5.373  12.563 -1.0536 -1.5253  0.2913
12082TIP3    H257738   5.853   5.355  12.540 -0.6804  0.5701  0.9693
12083TIP3   OH257739   0.740   1.913   0.278 -0.1596  0.2760  0.4337
12083TIP3    H157740   0.705   1.827   0.304 -0.5695  0.3881  0.2669
12083TIP3    H257741   0.665   1.958   0.239  0.5217 -0.0251 -1.2829
12084TIP3   OH257742   4.560   3.702   2.570 -0.0037  0.2876  0.0432
12084TIP3    H157743   4.468   3.701   2.596 -0.4358 -2.4999 -1.4678
12084TIP3    H257744   4.560   3.741   2.483  0.0748 -1.1010 -0.5759
12085TIP3   OH257745   4.234   1.352  14.140  0.3101 -0.1080 -0.5733
12085TIP3    H157746   4.166   1.300  14.097  0.9616 -1.0422 -0.5108
12085TIP3    H257747   4.316   1.318  14.102  0.7756  0.5031 -0.1181
12086TIP3   OH257748   4.070   6.775  16.739  0.5103 -0.8327  0.3050
12086TIP3    H157749   4.088   6.864  16.708 -0.0467 -1.2286 -1.1692
12086TIP3    H257750   4.084   6.780  16.833 -1.2628  1.2559  0.4904
12087TIP3   OH257751   6.332   0.368  11.711  0.5283 -0.0385 -0.0168
12087TIP3    H157752   6.303   0.294  11.657 -0.9589  0.9693 -0.6328
12087TIP3    H257753   6.337   0.332  11.799 -1.4193 -0.5813 -0.1047
12088TIP3   OH257754   0.533   3.382  12.034 -0.0682 -0.0716 -0.1104
12088TIP3    H157755   0.575   3.425  12.109  0.6607 -1.1021  0.0790
12088TIP3    H257756   0.562   3.433  11.958  0.0591  0.3138  0.1922
12089TIP3   OH257757   1.961   3.728   4.144 -0.7543  0.4060 -0.3461
12089TIP3    H157758   1.945   3.727   4.049  0.7744 -1.0711 -0.6266
12089TIP3    H257759   1.990   3.639   4.164 -1.7635  0.5119  1.6479
12090TIP3   OH257760   2.141   3.179  15.836  0.1046 -0.5756 -0.0919
12090TIP3    H157761   2.215   3.196  15.778 -1.7199 -1.9427 -2.9058
12090TIP3    H257762   2.080   3.251  15.819 -0.6083 -1.1945 -0.2030
12091TIP3   OH257763   0.498   2.889  14.419  0.1098 -0.0867  1.0877
12091TIP3    H157764   0.462   2.977  14.412  0.4710  0.0470  0.9609
12091TIP3    H257765   0.592   2.901  14.428  0.0940 -0.4267  1.7951
12092TIP3   OH257766   1.787   5.767   4.408 -0.2489  0.0691  0.1949
12092TIP3    H157767   1.878   5.755   4.436 -0.2549 -0.1143  0.1385
12092TIP3    H257768   1.738   5.705   4.461 -0.3796  0.3690  0.4258
12093TIP3   OH257769   1.380   3.506   2.528 -0.1745  0.0819 -0.3743
12093TIP3    H157770   1.306   3.545   2.574 -0.6479 -3.3794  1.9392
12093TIP3    H257771   1.341   3.443   2.468  0.8384 -2.3725  1.4532
12094TIP3   OH257772   0.122   0.763  13.478  0.1678 -0.6676  0.0158
12094TIP3    H157773   0.167   0.710  13.412  0.8247  0.3645 -0.3790
12094TIP3    H257774   0.029   0.757  13.454  0.4628  0.2073 -1.3681
12095TIP3   OH257775   3.178   2.056  12.064 -0.9087 -0.6426 -0.0959
12095TIP3    H157776   3.268   2.071  12.033 -0.8532 -0.8637 -0.0380
12095TIP3    H257777   3.136   2.142  12.057 -1.7068 -1.2137 -3.4189
12096TIP3   OH257778   6.121   3.512   3.227 -0.0497  0.3255 -0.4842
12096TIP3    H157779   6.209   3.543   3.207  0.2582  0.0731  0.4809
12096TIP3    H257780   6.063   3.578   3.188  0.5849  1.4753  0.4959
12097TIP3   OH257781   3.133   0.664   6.016  0.3994  0.2420  0.5326
12097TIP3    H157782   3.134   0.755   6.044  0.9499  0.5276 -0.4198
12097TIP3    H257783   3.105   0.616   6.094 -0.9333  1.3183  0.7231
12098TIP3   OH257784   0.481   1.927   2.241  0.0523  0.3739 -0.1928
12098TIP3    H157785   0.542   1.892   2.175  1.1971  0.5297  0.7616
12098TIP3    H257786   0.455   1.851   2.293  1.3469  0.6776  0.9237
12099TIP3   OH257787   1.371   6.810   2.007  0.3445 -0.0285 -0.1990
12099TIP3    H157788   1.431   6.848   2.070  0.6105 -1.5147  0.4772
12099TIP3    H257789   1.349   6.724   2.044  0.3257 -0.8305 -1.9951
12100TIP3   OH257790   3.977   4.533   3.488  0.3832 -0.4148  0.3547
12100TIP3    H157791   3.995   4.609   3.543  0.4664 -0.7278  0.7681
12100TIP3    H257792   3.993   4.563   3.399  1.6871 -0.3144  0.6060
12101TIP3   OH257793   3.749   0.786  10.370  0.3506 -0.3828  0.3158
12101TIP3    H157794   3.770   0.725  10.300 -0.7749 -1.3209  0.7779
12101TIP3    H257795   3.833   0.823  10.396  0.9769 -1.3559 -0.3050
12102TIP3   OH257796   1.391   2.126  12.006 -0.5671 -0.1447  0.7098
12102TIP3    H157797   1.442   2.089  11.934 -1.4185  1.2586 -0.6333
12102TIP3    H257798   1.456   2.145  12.073  0.6615  1.3010 -0.8534
12103TIP3   OH257799   3.436   2.671  13.025  0.3816  0.7201 -0.0649
12103TIP3    H157800   3.501   2.719  12.974  0.9978  1.8287  1.6753
12103TIP3    H257801   3.358   2.727  13.023 -0.2511 -0.2124 -1.4697
12104TIP3   OH257802   1.177   4.782  13.812 -0.0204  0.0666 -0.5355
12104TIP3    H157803   1.147   4.863  13.771  0.5986  0.2727 -0.5771
12104TIP3    H257804   1.215   4.811  13.895 -1.0865 -0.3247  0.0969
12105TIP3   OH257805   0.141   3.108   3.211  0.0431  0.4974  0.4596
12105TIP3    H157806   0.073   3.134   3.273 -0.3720 -0.4813  0.4247
12105TIP3    H257807   0.094   3.072   3.137  0.5605  1.1260 -0.1832
12106TIP3   OH257808   4.522   1.885   1.455 -0.3077  0.1015 -0.2121
12106TIP3    H157809   4.554   1.848   1.373  1.4155 -1.5412  1.1520
12106TIP3    H257810   4.431   1.855   1.461  0.2002 -1.5852 -0.5131
12107TIP3   OH257811   3.989   3.911   6.497  0.3002  0.2331  0.0609
12107TIP3    H157812   3.934   3.890   6.573 -0.3408  0.5022 -0.3165
12107TIP3    H257813   4.065   3.955   6.534  0.7293 -1.0127  0.6752
12108TIP3   OH257814   2.350   6.694  13.337  0.1644 -0.0037  0.3684
12108TIP3    H157815   2.398   6.638  13.398  0.2896  0.8136  1.0407
12108TIP3    H257816   2.304   6.634  13.279 -0.7144 -0.7994  1.8589
12109TIP3   OH257817   0.509   1.737   3.591  0.3431 -0.5792  0.3563
12109TIP3    H157818   0.496   1.689   3.510  1.3833  0.6087 -0.5288
12109TIP3    H257819   0.463   1.685   3.657  1.0095 -2.4906 -0.6605
12110TIP3   OH257820   1.912   6.215   7.019  0.1435  0.3454 -0.1768
12110TIP3    H157821   1.877   6.292   6.974 -0.8088  0.9108  1.4614
12110TIP3    H257822   1.846   6.146   7.004  0.4742  0.1560 -0.7543
12111TIP3   OH257823   4.539   4.241   5.891 -0.5874  0.1547  0.4850
12111TIP3    H157824   4.505   4.189   5.964  2.6993 -1.6794  0.8051
12111TIP3    H257825   4.616   4.285   5.926 -0.9384  1.9861 -0.9621
12112TIP3   OH257826   4.911   6.005   3.617  0.0406  0.5081 -0.5681
12112TIP3    H157827   4.851   6.078   3.603 -1.2992  0.4329  4.1847
12112TIP3    H257828   4.855   5.928   3.624  1.0902 -0.3064 -0.8885
12113TIP3   OH257829   5.366   1.243   4.955 -0.0569  0.3803 -0.4146
12113TIP3    H157830   5.417   1.324   4.953  0.3471  0.1443  0.0908
12113TIP3    H257831   5.277   1.271   4.973  0.1161  0.6941 -0.0457
12114TIP3   OH257832   6.687   2.664  13.957  0.2237 -0.0942  0.0298
12114TIP3    H157833   6.620   2.604  13.990  0.4214 -0.6540 -0.5608
12114TIP3    H257834   6.643   2.710  13.885 -0.8052  2.4831  2.2547
12115TIP3   OH257835   5.763   1.697  13.402  0.0187 -0.1672  0.8776
12115TIP3    H157836   5.783   1.788  13.378 -1.2082  0.2585  1.3911
12115TIP3    H257837   5.670   1.699  13.424 -0.2370 -1.7403  0.0151
12116TIP3   OH257838   6.613   0.551  11.686  0.7914 -0.1637 -0.8055
12116TIP3    H157839   6.674   0.599  11.741  0.4645  0.6501 -1.1510
12116TIP3    H257840   6.631   0.458  11.705 -1.6689  0.0529  3.3189
12117TIP3   OH257841   2.826   0.404   2.184  0.5283  0.3304 -0.6946
12117TIP3    H157842   2.852   0.338   2.120  2.2970  1.8228 -1.5264
12117TIP3    H257843   2.746   0.443   2.147 -0.6801 -1.4813 -0.0710
12118TIP3   OH257844   3.180   6.649   3.162 -0.1819  0.0352 -0.0799
12118TIP3    H157845   3.146   6.621   3.077 -0.9928 -0.4673  0.4092
12118TIP3    H257846   3.205   6.741   3.149 -0.2262 -0.0629 -0.8757
12119TIP3   OH257847   4.394   1.318   5.179 -0.5365 -0.2184  0.2506
12119TIP3    H157848   4.476   1.362   5.203 -0.1090 -1.8733  1.9921
12119TIP3    H257849   4.378   1.257   5.252 -3.2903  0.0420 -0.0956
12120TIP3   OH257850   6.515   6.308   5.285  0.0146 -0.1797  0.2056
12120TIP3    H157851   6.459   6.241   5.324  0.3708 -0.4446  0.2690
12120TIP3    H257852   6.454   6.373   5.251 -0.4745 -1.9558 -2.4893
12121TIP3   OH257853   5.670   1.640  16.011 -0.6306 -0.7032  0.5151
12121TIP3    H157854   5.720   1.591  15.946  1.0142  0.2254  1.0733
12121TIP3    H257855   5.714   1.623  16.094 -0.5184  1.0526  0.8333
12122TIP3   OH257856   4.427   4.315  12.239 -0.2897  0.4117 -0.6155
12122TIP3    H157857   4.340   4.305  12.201 -0.1937 -1.1329 -0.4699
12122TIP3    H257858   4.473   4.235  12.214  1.3313  1.5517 -1.2995
12123TIP3   OH257859   2.084   4.009  13.062 -0.3807  0.3322  0.7744
12123TIP3    H157860   2.146   3.948  13.102 -0.2495 -0.2971 -0.3711
12123TIP3    H257861   2.003   3.959  13.054 -0.6952  0.7737  1.1692
12124TIP3   OH257862   1.879   1.016  12.177  0.0379 -0.1956 -0.3627
12124TIP3    H157863   1.822   1.066  12.236  1.9812  2.1574 -0.4016
12124TIP3    H257864   1.905   0.939  12.229 -1.0115  0.0903  0.6053
12125TIP3   OH257865   4.122   1.951  13.977 -0.6598 -0.1133 -0.3538
12125TIP3    H157866   4.066   2.009  13.924 -1.7248 -0.4077  0.4291
12125TIP3    H257867   4.138   2.001  14.057  0.5647  0.1407 -0.7495
12126TIP3   OH257868   5.995   3.963  12.264  0.8673  0.7101  0.3685
12126TIP3    H157869   6.020   3.872  12.249 -1.2190  0.1689  0.0829
12126TIP3    H257870   5.962   3.993  12.179  1.4911  1.7296  0.4788
12127TIP3   OH257871   4.160   3.266   2.956 -0.0360  0.1724 -0.0602
12127TIP3    H157872   4.211   3.278   3.036 -0.0087 -2.5379  0.3679
12127TIP3    H257873   4.224   3.272   2.886  0.1854  1.0405  0.2095
12128TIP3   OH257874   3.418   5.583   1.093 -0.4134  0.0606  0.5793
12128TIP3    H157875   3.367   5.504   1.110  0.5110 -0.2840  1.8985
12128TIP3    H257876   3.474   5.592   1.170  1.1963  0.6699 -0.6280
12129TIP3   OH257877   4.793   3.344  12.420 -1.0448 -0.9672  0.0419
12129TIP3    H157878   4.722   3.398  12.454 -0.8298 -0.4549 -0.3107
12129TIP3    H257879   4.822   3.292  12.495 -0.1842  0.5658  0.8020
12130TIP3   OH257880   1.904   5.786   1.051  0.6669  0.4490 -0.1756
12130TIP3    H157881   1.917   5.694   1.071  0.3319  0.5168  0.3902
12130TIP3    H257882   1.972   5.832   1.101  1.4824  0.4378 -1.2676
12131TIP3   OH257883   1.514   6.572  11.862  0.1309 -0.3190  0.0357
12131TIP3    H157884   1.579   6.567  11.932  1.4168  0.7423 -1.0378
12131TIP3    H257885   1.550   6.638  11.802 -0.0504 -2.4517 -2.4988
12132TIP3   OH257886   2.309   5.276   1.447  0.0307 -0.2548 -0.3014
12132TIP3    H157887   2.295   5.261   1.541  0.9595 -0.6363 -0.2139
12132TIP3    H257888   2.243   5.221   1.404  0.2586 -0.8622  0.1143
12133TIP3   OH257889   4.636   3.329   1.007 -0.1334  0.6379 -0.3264
12133TIP3    H157890   4.623   3.316   0.913  1.6289 -0.4585 -0.4500
12133TIP3    H257891   4.721   3.288   1.025 -0.9106 -0.0796  1.9319
12134TIP3   OH257892   5.458   1.198  13.717 -0.2906 -1.3039 -0.6543
12134TIP3    H157893   5.495   1.109  13.724 -0.1418 -1.1632  0.3959
12134TIP3    H257894   5.424   1.216  13.804 -0.1973 -0.2662 -0.8355
12135TIP3   OH257895   0.144   1.669   1.336  0.0960  0.1998 -0.0443
12135TIP3    H157896   0.171   1.581   1.364  0.1607 -0.1786 -1.2514
12135TIP3    H257897   0.048   1.665   1.334  0.0217  0.7903  1.8732
12136TIP3   OH257898   0.726   5.955  15.440  0.0293 -0.4168 -0.2618
12136TIP3    H157899   0.696   6.031  15.390  0.9229 -0.9099 -1.5736
12136TIP3    H257900   0.814   5.938  15.406  0.9167 -0.3814  1.9177
12137TIP3   OH257901   4.568   3.821  17.014  0.5327  0.3005 -0.2561
12137TIP3    H157902   4.544   3.911  17.038 -0.0298  0.1307 -0.1699
12137TIP3    H257903   4.557   3.771  17.095 -0.8672 -0.1794 -0.7232
12138TIP3   OH257904   4.698   1.594  16.535 -0.0938  0.0634 -0.2259
12138TIP3    H157905   4.639   1.667  16.520 -3.5373 -2.5923 -0.2967
12138TIP3    H257906   4.701   1.548  16.451  0.3757 -1.0474  0.3867
12139TIP3   OH257907   2.793   1.604  10.889 -0.2936 -0.3330  0.2738
12139TIP3    H157908   2.887   1.599  10.869 -0.2404 -0.0381  0.4578
12139TIP3    H257909   2.760   1.673  10.832 -0.2509  0.1050  0.7722
12140TIP3   OH257910   4.279   3.211   4.976 -0.4597  0.0696 -0.1355
12140TIP3    H157911   4.243   3.288   4.933 -1.1075 -0.2716 -0.2246
12140TIP3    H257912   4.314   3.158   4.905 -0.2639  0.1578 -0.1031
12141TIP3   OH257913   6.615   6.251   6.262 -0.1331 -0.1091  0.2693
12141TIP3    H157914   6.642   6.319   6.201 -0.8687 -2.1030 -2.3532
12141TIP3    H257915   6.520   6.254   6.262 -0.1954 -1.5627 -0.4130
12142TIP3   OH257916   4.696   1.650   5.648  0.2073 -0.3940  0.1622
12142TIP3    H157917   4.698   1.606   5.733  1.8415 -0.1145  0.2884
12142TIP3    H257918   4.753   1.597   5.592  0.3947  0.3034 -0.3169
12143TIP3   OH257919   4.772   6.442   0.198 -0.7631  0.1827 -0.3955
12143TIP3    H157920   4.783   6.452   0.293  0.2416 -0.2701 -0.4574
12143TIP3    H257921   4.858   6.416   0.166 -0.9592  0.8480 -1.5116
12144TIP3   OH257922   2.408   1.821   0.101  0.0213  0.3441 -0.1066
12144TIP3    H157923   2.455   1.882   0.157 -1.5859  1.0778  0.4674
12144TIP3    H257924   2.321   1.814   0.140  0.3995 -2.9140  0.2851
12145TIP3   OH257925   5.359   5.246   3.082 -0.2297 -0.2741 -0.5775
12145TIP3    H157926   5.355   5.190   3.004 -0.7700 -1.6340  0.4013
12145TIP3    H257927   5.361   5.184   3.155 -0.7319  0.9970  0.5210
12146TIP3   OH257928   2.504   3.026  16.049 -0.0392  0.0979  0.3455
12146TIP3    H157929   2.537   3.108  16.085 -3.6160  2.5719 -1.6957
12146TIP3    H257930   2.535   3.024  15.959  0.2300 -0.9161  0.4517
12147TIP3   OH257931   4.115   1.381   4.904  0.4072  0.6038  0.3763
12147TIP3    H157932   4.204   1.408   4.927 -0.2439 -0.1699  4.1967
12147TIP3    H257933   4.064   1.462   4.907  0.6683  0.7843 -0.0959
12148TIP3   OH257934   4.685   1.739  12.450  0.3109 -0.0238 -0.1878
12148TIP3    H157935   4.653   1.714  12.364 -0.5644 -1.5416  0.5583
12148TIP3    H257936   4.629   1.692  12.511  0.2207  1.8683  1.2422
12149TIP3   OH257937   5.147   5.544  14.836 -0.4218  0.6095 -0.5608
12149TIP3    H157938   5.101   5.462  14.855  1.5578 -0.4871 -0.2490
12149TIP3    H257939   5.179   5.533  14.746  0.3331  0.7902 -0.3163
12150TIP3   OH257940   5.664   6.343   2.235  0.1991  0.3847 -0.2866
12150TIP3    H157941   5.612   6.286   2.292 -1.2876  0.9293 -1.0599
12150TIP3    H257942   5.698   6.285   2.167  0.0086  0.1305 -0.1646
12151TIP3   OH257943   3.670   6.567   0.429 -0.3519 -0.3330 -0.3832
12151TIP3    H157944   3.599   6.537   0.487 -1.0678  0.9001 -0.5912
12151TIP3    H257945   3.749   6.531   0.468 -0.5365  2.2564  2.6996
12152TIP3   OH257946   3.985   2.021   4.545 -1.0285  0.7027 -0.0453
12152TIP3    H157947   4.013   2.092   4.487  3.3643 -0.6132  0.2448
12152TIP3    H257948   4.002   1.941   4.496  1.1075 -0.3779  2.3194
12153TIP3   OH257949   6.279   0.057  15.087 -0.3237 -0.0254 -0.0166
12153TIP3    H157950   6.287   0.020  14.999 -3.3965  0.3932 -0.5081
12153TIP3    H257951   6.281  -0.018  15.145  0.3270 -0.4040 -0.5157
12154TIP3   OH257952   4.626   1.962   1.702  0.2621 -0.0128  0.2270
12154TIP3    H157953   4.707   2.009   1.685 -0.4056  0.4213 -1.9434
12154TIP3    H257954   4.599   1.930   1.616 -0.7153 -2.0532  1.2548
12155TIP3   OH257955   0.232   4.987   4.331  0.2357 -0.2927 -0.3051
12155TIP3    H157956   0.314   4.938   4.316  0.6706  0.2729  0.2057
12155TIP3    H257957   0.164   4.930   4.295  0.7593 -1.1856  0.0864
12156TIP3   OH257958   1.029   2.148   4.259 -0.0164 -0.3278 -0.1006
12156TIP3    H157959   0.987   2.065   4.237  0.5596 -0.7756  0.4551
12156TIP3    H257960   0.972   2.215   4.221 -0.5856 -0.9700 -0.3891
12157TIP3   OH257961   0.703   4.174   1.156 -0.6401 -0.1348 -0.5588
12157TIP3    H157962   0.682   4.172   1.063 -1.6659 -1.0560 -0.3190
12157TIP3    H257963   0.618   4.170   1.200 -0.0957 -1.5868  0.4259
12158TIP3   OH257964   0.763   2.119   1.400  0.1891  0.6030  0.1082
12158TIP3    H157965   0.711   2.190   1.438 -0.1004  1.1884 -1.3450
12158TIP3    H257966   0.806   2.078   1.475 -1.4921  0.8129  1.2064
12159TIP3   OH257967   5.386   5.578   5.899  0.2696 -0.2973 -0.3959
12159TIP3    H157968   5.422   5.578   5.810  1.4902  0.8770  0.0903
12159TIP3    H257969   5.462   5.583   5.956 -0.4714 -1.6142  0.7483
12160TIP3   OH257970   3.524   0.893   3.394  0.1504 -0.3112 -0.1001
12160TIP3    H157971   3.572   0.847   3.325  0.2253 -1.4470  0.6974
12160TIP3    H257972   3.592   0.934   3.448  0.0844  0.7336 -0.7987
12161TIP3   OH257973   4.501   6.582  15.833 -0.0484 -0.4222  0.2308
12161TIP3    H157974   4.488   6.677  15.834  1.1889 -0.2376  3.0324
12161TIP3    H257975   4.464   6.554  15.749 -0.7076  2.4805 -0.5140
12162TIP3   OH257976   0.170   6.425   0.319  0.1020  0.4191 -0.5025
12162TIP3    H157977   0.262   6.450   0.334 -0.4351  1.2894  1.6559
12162TIP3    H257978   0.158   6.347   0.373 -0.2354 -0.1101 -1.3470
12163TIP3   OH257979   2.431   2.079   4.467 -0.1562 -0.1245  0.0472
12163TIP3    H157980   2.485   2.086   4.546  1.7489 -0.5629 -1.1924
12163TIP3    H257981   2.449   1.992   4.433 -1.0531  0.0257 -0.8239
12164TIP3   OH257982   2.520   6.717  11.462  0.4871  0.6311  0.3834
12164TIP3    H157983   2.569   6.635  11.468  0.3738  0.5321 -0.0128
12164TIP3    H257984   2.573   6.771  11.402  0.8041  1.0183  1.0109
12165TIP3   OH257985   4.302   4.040  10.725 -0.2706 -0.7290  0.0964
12165TIP3    H157986   4.355   4.077  10.654 -1.3034  0.5327 -0.0312
12165TIP3    H257987   4.297   3.947  10.704  0.1436 -0.5138 -1.0364
12166TIP3   OH257988   3.815   6.648  11.203 -0.3142  0.7320  0.4119
12166TIP3    H157989   3.758   6.617  11.132  0.7373 -1.5190  0.4900
12166TIP3    H257990   3.884   6.696  11.160  0.2100 -0.4571 -0.0956
12167TIP3   OH257991   6.597   0.473  11.999 -0.6323 -0.6291 -0.2899
12167TIP3    H157992   6.559   0.421  12.070  0.0710  0.3046  0.7764
12167TIP3    H257993   6.633   0.407  11.939 -0.9075 -1.4182  0.3890
12168TIP3   OH257994   0.530   0.182   5.826  0.6691 -0.2029  0.1168
12168TIP3    H157995   0.495   0.094   5.819 -2.0458  0.4952  3.3475
12168TIP3    H257996   0.562   0.187   5.916 -1.5864  2.8637  0.8264
12169TIP3   OH257997   6.355   1.905  12.043  0.2223  0.0091 -0.2160
12169TIP3    H157998   6.431   1.885  12.097  1.5333  0.3237 -1.9118
12169TIP3    H257999   6.366   1.997  12.019  0.4211 -0.5092 -2.2008
12170TIP3   OH258000   6.515   6.685  15.134 -0.5174  0.5830  0.3534
12170TIP3    H158001   6.488   6.605  15.179 -1.5793  0.9356  0.3769
12170TIP3    H258002   6.598   6.709  15.175  0.1535 -0.8616 -0.1188
12171TIP3   OH258003   1.906   4.243   1.324 -0.1334  0.1975  0.4499
12171TIP3    H158004   1.825   4.193   1.313  0.6878 -0.9158 -0.7681
12171TIP3    H258005   1.919   4.284   1.239  1.4410 -0.9838  0.0928
12172TIP3   OH258006   1.304   2.661  17.063  0.1557  0.1905  0.2682
12172TIP3    H158007   1.370   2.599  17.031 -0.1887  0.8078 -1.6975
12172TIP3    H258008   1.352   2.744  17.073  0.0310  0.2505  0.3729
12173TIP3   OH258009   0.260   3.374  15.317 -0.2509 -0.4393 -0.0318
12173TIP3    H158010   0.254   3.292  15.267 -1.0065 -0.0644 -0.5447
12173TIP3    H258011   0.349   3.405  15.300 -0.5021 -0.3152 -1.1284
12174TIP3   OH258012   0.677   5.103  13.237  0.2514  0.3468  0.0217
12174TIP3    H158013   0.619   5.180  13.240  0.5372  0.6240 -1.5937
12174TIP3    H258014   0.765   5.139  13.249  0.4438  0.3450 -1.3591
12175TIP3   OH258015   5.852   2.448   0.145  0.6602 -0.0351  0.3220
12175TIP3    H158016   5.902   2.411   0.217 -1.1496  1.8415  2.6050
12175TIP3    H258017   5.916   2.459   0.074  2.4121 -2.0666  1.5454
12176TIP3   OH258018   1.281   2.877  14.029  0.0288 -0.1965 -0.0505
12176TIP3    H158019   1.248   2.834  13.950 -1.6543  1.3373 -0.2249
12176TIP3    H258020   1.294   2.968  14.003 -0.4187  0.2912  1.3935
12177TIP3   OH258021   3.289   4.132  11.310 -0.7297 -0.4461 -0.4412
12177TIP3    H158022   3.223   4.137  11.379  0.1302  0.7840  0.3179
12177TIP3    H258023   3.269   4.206  11.253  2.1608  2.2379  1.8202
12178TIP3   OH258024   2.076   2.546   3.070 -0.0735 -0.3304  0.1060
12178TIP3    H158025   2.111   2.635   3.071 -1.7233  0.3978 -1.8327
12178TIP3    H258026   2.150   2.490   3.093  1.2646  1.4665  0.2249
12179TIP3   OH258027   3.466   2.580   5.011  0.3150 -0.3431  0.0262
12179TIP3    H158028   3.493   2.521   5.082  2.7548  1.0348  0.3078
12179TIP3    H258029   3.489   2.667   5.042 -0.4987  0.4809 -1.6226
12180TIP3   OH258030   3.116   5.614   1.589  0.5753  0.3836  0.8893
12180TIP3    H158031   3.159   5.622   1.504 -1.1619  2.2001  0.1449
12180TIP3    H258032   3.179   5.650   1.651  1.5418 -0.2526  0.2947
12181TIP3   OH258033   2.838   4.358  14.317  0.1539  0.6586 -0.4069
12181TIP3    H158034   2.849   4.338  14.224 -1.0653  0.8649 -0.6016
12181TIP3    H258035   2.920   4.329  14.358  1.2789  1.8596 -1.7477
12182TIP3   OH258036   2.717   4.564  16.665  0.4809  0.4806  0.2010
12182TIP3    H158037   2.788   4.621  16.694  0.5896 -0.2415  1.3997
12182TIP3    H258038   2.681   4.528  16.746 -0.5964  0.0669 -0.4589
12183TIP3   OH258039   1.099   1.234  15.364  0.1923  0.1044 -0.4900
12183TIP3    H158040   1.011   1.261  15.393  0.6741  1.3266 -0.1482
12183TIP3    H258041   1.090   1.219  15.270 -0.5430 -0.4524 -0.3416
12184TIP3   OH258042   1.149   6.242   2.918  0.6161 -0.2972  0.3379
12184TIP3    H158043   1.139   6.220   3.010  2.1649  0.4466  0.6976
12184TIP3    H258044   1.189   6.329   2.918 -0.3238  0.1615 -1.0410
12185TIP3   OH258045   1.789   1.978   0.701  0.1104 -0.0134  0.1425
12185TIP3    H158046   1.858   2.042   0.715 -0.2421  0.4581 -0.2514
12185TIP3    H258047   1.722   2.000   0.766 -0.6802  0.9760 -0.9876
12186TIP3   OH258048   3.774   1.908  15.066  0.4752  0.3539 -0.3443
12186TIP3    H158049   3.769   1.934  15.158  0.9915 -0.7335  0.0058
12186TIP3    H258050   3.696   1.855  15.052 -0.2036  1.4969 -0.8501
12187TIP3   OH258051   6.526   1.702   2.984  0.7006 -0.2706 -0.6026
12187TIP3    H158052   6.455   1.709   2.920  1.0061 -2.3553 -1.1915
12187TIP3    H258053   6.595   1.653   2.939  1.3886 -0.7264  0.9187
12188TIP3   OH258054   6.581   2.646   0.888 -0.2922  0.8697  0.3286
12188TIP3    H158055   6.621   2.585   0.826 -0.5865  1.2481 -0.2374
12188TIP3    H258056   6.639   2.721   0.890  0.9351 -0.0888  2.2627
12189TIP3   OH258057   2.900   5.043   1.895  0.3705 -0.6280 -0.0080
12189TIP3    H158058   2.862   5.013   1.813 -0.0302 -1.3715  0.4500
12189TIP3    H258059   2.828   5.083   1.942  0.2077 -1.7703  0.7318
12190TIP3   OH258060   2.398   3.341  11.800 -0.5902  0.0493  0.8775
12190TIP3    H158061   2.317   3.389  11.819 -0.1238  1.9620 -1.5290
12190TIP3    H258062   2.385   3.309  11.710  0.6514 -1.0570  1.0930
12191TIP3   OH258063   0.504   3.361  15.905 -0.1925  0.0121 -0.1119
12191TIP3    H158064   0.546   3.425  15.848  0.0897  1.6997  1.9118
12191TIP3    H258065   0.445   3.313  15.848  1.1774  0.6308 -2.1101
12192TIP3   OH258066   0.386   0.351   3.415 -0.1355  0.3750 -0.1449
12192TIP3    H158067   0.380   0.262   3.382  0.9807  0.0890  0.3928
12192TIP3    H258068   0.477   0.359   3.446 -0.1698  1.7587 -0.3763
12193TIP3   OH258069   3.722   3.651  11.393 -0.1905 -0.1958 -0.3571
12193TIP3    H158070   3.714   3.743  11.419  0.6252 -0.2462  0.0706
12193TIP3    H258071   3.637   3.613  11.416  0.1886 -0.0288  1.3605
12194TIP3   OH258072   5.142   0.745   6.235 -0.1579 -0.0250 -0.5513
12194TIP3    H158073   5.090   0.730   6.156 -1.6971 -1.6730  0.7289
12194TIP3    H258074   5.183   0.661   6.253  2.2811  1.0065 -1.0009
12195TIP3   OH258075   5.128   5.678   4.821  0.2212  0.0760 -0.0837
12195TIP3    H158076   5.044   5.677   4.776  0.8281  1.3862 -1.2778
12195TIP3    H258077   5.188   5.718   4.758  1.0846  1.9705  1.9036
12196TIP3   OH258078   3.913   0.101  11.143  0.2134 -0.1445 -0.2377
12196TIP3    H158079   3.900   0.196  11.146  1.5922  0.0601 -0.7324
12196TIP3    H258080   4.008   0.089  11.139  0.0014 -1.4786 -2.4086
12197TIP3   OH258081   5.535   5.458   3.740 -0.0408 -0.2332  0.0650
12197TIP3    H158082   5.585   5.408   3.805 -0.5843  1.5684  1.9291
12197TIP3    H258083   5.450   5.413   3.735  0.0636 -0.4829  0.5020
12198TIP3   OH258084   0.925   1.477  15.638  0.3377 -0.1383  0.1062
12198TIP3    H158085   0.982   1.551  15.616 -0.6145 -0.0991 -2.3836
12198TIP3    H258086   0.837   1.516  15.643  0.0182 -0.8617  0.1387
12199TIP3   OH258087   4.436   0.744   5.400 -0.7645  1.2383 -0.8459
12199TIP3    H158088   4.491   0.806   5.352  0.4981 -0.8265 -2.1417
12199TIP3    H258089   4.393   0.693   5.332 -2.7581  1.4831  0.1931
12200TIP3   OH258090   2.597   4.500  13.264  0.0957 -0.3870 -0.3593
12200TIP3    H158091   2.555   4.522  13.180  2.0732  0.5846 -1.1316
12200TIP3    H258092   2.543   4.544  13.330 -1.9495 -1.8281 -1.0337
12201TIP3   OH258093   6.196   5.143  12.194 -0.5825  0.4969 -0.4573
12201TIP3    H158094   6.173   5.129  12.102 -0.1844  4.2561 -1.2157
12201TIP3    H258095   6.150   5.223  12.218  0.3806  0.2830  2.2452
12202TIP3   OH258096   0.454   3.864   2.410 -0.0119 -0.1929 -0.3298
12202TIP3    H158097   0.375   3.891   2.364 -0.9456  0.7193  1.7400
12202TIP3    H258098   0.499   3.946   2.431  0.1812 -0.5530  0.7242
12203TIP3   OH258099   1.313   2.104   2.981 -0.6496  0.4862  0.0005
12203TIP3    H158100   1.306   2.026   3.035 -0.1255  1.5226  1.5842
12203TIP3    H258101   1.240   2.097   2.919 -1.1223 -0.8048  0.6921
12204TIP3   OH258102   6.461   0.155  11.936 -0.5757  0.9650 -0.2213
12204TIP3    H158103   6.387   0.154  11.997 -0.9458  2.3992 -0.6195
12204TIP3    H258104   6.484   0.063  11.924 -2.7039  0.4704 -0.6141
12205TIP3   OH258105   5.430   4.887  11.700  0.1781 -0.7708 -0.0475
12205TIP3    H158106   5.451   4.825  11.630 -0.9197 -1.4944  0.2628
12205TIP3    H258107   5.469   4.969  11.671  2.7521 -1.8783  0.1190
12206TIP3   OH258108   6.642   1.349  13.124 -0.1463 -0.4978 -0.5170
12206TIP3    H158109   6.687   1.265  13.133  3.3198  1.3130  0.2456
12206TIP3    H258110   6.550   1.329  13.136  0.6860 -4.0297  0.5756
12207TIP3   OH258111   6.471   2.118   3.262  0.2929 -0.0941 -0.3817
12207TIP3    H158112   6.475   2.037   3.313  1.2776  0.5411  0.5536
12207TIP3    H258113   6.446   2.089   3.174  1.1629 -1.4654 -0.1909
12208TIP3   OH258114   2.650   2.384  16.997  0.1993  0.6495 -0.9479
12208TIP3    H158115   2.559   2.409  17.015  0.9702  3.1849 -0.2853
12208TIP3    H258116   2.660   2.298  17.037 -1.8456  0.4610 -0.7889
12209TIP3   OH258117   2.509   5.226   2.428  0.1075 -0.2392  0.0348
12209TIP3    H158118   2.473   5.173   2.356 -2.4579  1.0979  0.2452
12209TIP3    H258119   2.541   5.305   2.385 -0.6963  0.2101  0.2423
12210TIP3   OH258120   2.151   0.119   0.956  0.2946 -0.2559 -0.1668
12210TIP3    H158121   2.174   0.174   1.030 -0.3930 -0.1153 -0.0502
12210TIP3    H258122   2.183   0.167   0.879  1.2418 -0.5327  0.0591
12211TIP3   OH258123   1.185   2.478   1.632 -0.8745  0.1677 -0.2468
12211TIP3    H158124   1.144   2.397   1.602  2.8324 -2.0073  0.1751
12211TIP3    H258125   1.165   2.481   1.726 -2.0752  0.3940 -0.5123
12212TIP3   OH258126   4.197   3.752   6.085  0.1484 -0.2662  0.0612
12212TIP3    H158127   4.124   3.755   6.024  0.8564 -0.6675 -0.8103
12212TIP3    H258128   4.271   3.789   6.037  0.2264  1.3382  1.3757
12213TIP3   OH258129   4.305   0.337   4.145  0.1808 -0.0096 -0.1016
12213TIP3    H158130   4.279   0.272   4.080 -0.3154 -0.5788  0.6535
12213TIP3    H258131   4.401   0.334   4.145  0.1647 -0.6558 -0.1592
12214TIP3   OH258132   2.343   4.232   2.461 -0.3779  0.0629 -0.5407
12214TIP3    H158133   2.421   4.285   2.448  0.0699 -0.5097 -0.2180
12214TIP3    H258134   2.298   4.232   2.377 -0.6400  1.3608 -0.4122
12215TIP3   OH258135   6.181   0.896  11.344  0.0279  0.0038  0.0051
12215TIP3    H158136   6.159   0.805  11.322 -0.3267  0.5274 -1.8872
12215TIP3    H258137   6.158   0.946  11.266 -1.2383  1.9561  1.5643
12216TIP3   OH258138   4.198   4.906   0.342  0.7279 -0.3804 -0.1561
12216TIP3    H158139   4.282   4.861   0.333  0.3071 -0.9767 -1.2294
12216TIP3    H258140   4.165   4.879   0.427  0.2696 -2.4886 -0.9718
12217TIP3   OH258141   0.998   4.705   1.627  0.3584  0.4907 -0.1747
12217TIP3    H158142   0.977   4.785   1.579 -0.5923  1.1309  1.2389
12217TIP3    H258143   1.076   4.728   1.678  0.9341  0.0553 -0.8690
12218TIP3   OH258144   3.491   0.524  11.883  0.3192 -0.1804  0.2713
12218TIP3    H158145   3.447   0.609  11.879  0.8549  0.1006  0.3205
12218TIP3    H258146   3.567   0.539  11.939 -0.3537 -1.0448  1.4533
12219TIP3   OH258147   4.065   0.117   6.141  0.2275 -0.0255  0.4233
12219TIP3    H158148   4.084   0.075   6.225 -0.0002  1.6760  1.3489
12219TIP3    H258149   4.118   0.196   6.141 -1.5709  1.2088 -0.0020
12220TIP3   OH258150   6.490   2.063   0.122  0.9462  0.0722  0.3563
12220TIP3    H158151   6.511   2.001   0.192  0.2131  0.3506  0.8367
12220TIP3    H258152   6.549   2.041   0.051  0.2724 -1.5737  0.2958
12221TIP3   OH258153   6.064   6.784  11.748  0.1135  0.5803 -0.0663
12221TIP3    H158154   6.005   6.850  11.785  0.9010  0.7117  0.9975
12221TIP3    H258155   6.148   6.829  11.740  0.3118  0.1086 -0.6347
12222TIP3   OH258156   0.248   0.580  11.264 -0.6027  0.6930  0.4528
12222TIP3    H158157   0.291   0.526  11.329  1.0750  1.7386  0.2398
12222TIP3    H258158   0.220   0.658  11.312 -0.6823  0.8109  0.2193
12223TIP3   OH258159   5.363   0.681  11.235 -0.2400 -0.3875  0.1244
12223TIP3    H158160   5.269   0.689  11.223 -0.5455  2.0816  3.6053
12223TIP3    H258161   5.400   0.753  11.185 -0.3059 -0.4603 -0.0286
12224TIP3   OH258162   5.389   2.467  15.493 -0.3670  0.8532  0.2943
12224TIP3    H158163   5.338   2.460  15.413 -0.6534  0.4834  0.5071
12224TIP3    H258164   5.479   2.480  15.463 -0.5843  1.5537 -0.0789
12225TIP3   OH258165   4.737   4.243   5.347  0.2446  0.1132  0.2138
12225TIP3    H158166   4.652   4.285   5.333  1.7097  2.0523 -3.7579
12225TIP3    H258167   4.724   4.153   5.315 -0.7399 -0.1460  1.2905
12226TIP3   OH258168   2.653   5.815  15.618  0.0804  0.1650 -0.0461
12226TIP3    H158169   2.558   5.805  15.617 -0.0234  1.1534 -1.1152
12226TIP3    H258170   2.668   5.909  15.627  0.9344  0.1535 -1.1269
12227TIP3   OH258171   0.473   4.799   3.969 -0.3874 -0.3039 -0.2786
12227TIP3    H158172   0.546   4.857   3.991 -1.8447  1.1248  0.8984
12227TIP3    H258173   0.515   4.718   3.940  1.6684  1.5632 -2.6328
12228TIP3   OH258174   0.482   5.103  17.228 -0.3450 -0.9284 -0.0379
12228TIP3    H158175   0.544   5.031  17.220 -1.5090 -1.9010 -0.5015
12228TIP3    H258176   0.493   5.135  17.318  2.3583  0.3704 -0.7629
12229TIP3   OH258177   0.973   0.975   6.785  0.0995  0.8148 -0.2296
12229TIP3    H158178   1.045   1.020   6.829  0.3656 -0.2375  0.4361
12229TIP3    H258179   0.900   1.037   6.787  0.8640  1.7182 -0.5269
12230TIP3   OH258180   3.991   3.064   3.148 -0.3945  0.1796 -0.1185
12230TIP3    H158181   4.077   3.031   3.176 -0.4011  1.0536  0.9379
12230TIP3    H258182   3.992   3.156   3.172 -1.9458  0.0069  0.6292
12231TIP3   OH258183   2.023   0.278  16.258  0.5845 -0.2564  0.1942
12231TIP3    H158184   2.079   0.351  16.284  2.1861 -1.8235  1.2563
12231TIP3    H258185   1.934   0.313  16.262  1.1808  1.0673  2.6167
12232TIP3   OH258186   0.858   4.940   0.384  0.0775  0.4192 -0.0130
12232TIP3    H158187   0.820   5.023   0.413  0.6475  0.2687  1.1891
12232TIP3    H258188   0.788   4.897   0.336 -1.5885 -0.2597  2.9411
12233TIP3   OH258189   3.998   4.678   3.772 -0.0717  0.3125  0.3747
12233TIP3    H158190   3.912   4.634   3.775 -0.4166  1.0095  0.8283
12233TIP3    H258191   4.003   4.725   3.855  1.0900 -0.3525  0.6788
12234TIP3   OH258192   1.128   0.855  13.160  0.4705  0.0417 -0.4438
12234TIP3    H158193   1.197   0.905  13.203  0.0130  0.0815  0.2498
12234TIP3    H258194   1.059   0.920  13.143  0.8731  0.1401 -1.7250
12235TIP3   OH258195   6.791   5.374   0.500 -0.1933 -0.5014 -0.0585
12235TIP3    H158196   6.875   5.387   0.455 -0.1863  0.9817  0.3530
12235TIP3    H258197   6.815   5.325   0.579  0.2298 -0.4104 -0.1255
12236TIP3   OH258198   2.371   1.995   1.030 -0.0367 -0.0303  0.2758
12236TIP3    H158199   2.390   1.953   0.946  5.1394  2.2771  0.1339
12236TIP3    H258200   2.320   2.072   1.007  0.4323  0.0214 -0.6296
12237TIP3   OH258201   1.662   5.851   0.027  0.2719 -0.4094 -0.5949
12237TIP3    H158202   1.708   5.934   0.038  1.3556 -0.8922 -1.4794
12237TIP3    H258203   1.730   5.788   0.003 -0.5314 -1.5767  0.1393
12238TIP3   OH258204   5.819   4.919  12.221  0.6481  0.0982 -0.1560
12238TIP3    H158205   5.904   4.917  12.265  0.8998  0.5690 -0.6232
12238TIP3    H258206   5.830   4.861  12.145  0.8125  0.8251 -0.6891
12239TIP3   OH258207   5.843   0.244   3.723 -0.5046  0.8390 -0.2820
12239TIP3    H158208   5.838   0.170   3.784 -0.8995  0.6336 -0.5608
12239TIP3    H258209   5.772   0.228   3.660  1.4358 -0.2182 -2.2411
12240TIP3   OH258210   2.826   2.413   3.317  0.2129 -0.4415 -0.0347
12240TIP3    H158211   2.807   2.491   3.265 -1.8769 -1.2784 -0.5740
12240TIP3    H258212   2.873   2.355   3.257 -1.0243 -0.8676 -0.6091
12241TIP3   OH258213   4.554   4.957   5.887 -0.4299 -0.5807 -0.2244
12241TIP3    H158214   4.474   4.951   5.835 -0.8944 -0.9928  0.5202
12241TIP3    H258215   4.576   4.866   5.907 -0.3980 -0.4155  0.5065
12242TIP3   OH258216   0.371   2.129   3.227  0.1642  0.2768 -0.2463
12242TIP3    H158217   0.331   2.196   3.283 -0.1438 -0.2259  0.1303
12242TIP3    H258218   0.386   2.055   3.285  0.2485 -0.0885 -0.7362
12243TIP3   OH258219   3.542   3.420   3.414 -0.1792  0.3219 -0.5081
12243TIP3    H158220   3.585   3.350   3.464 -0.0752 -0.2011 -1.3277
12243TIP3    H258221   3.451   3.392   3.407 -0.2912  0.6104 -0.2364
12244TIP3   OH258222   0.931   0.429   1.218 -0.1628  0.2940  0.0807
12244TIP3    H158223   1.021   0.437   1.185 -0.2749  0.6797 -0.1313
12244TIP3    H258224   0.929   0.343   1.260 -0.6891 -1.2007 -2.8994
12245TIP3   OH258225   5.347   0.538  12.623  0.2570 -0.3153 -0.2111
12245TIP3    H158226   5.368   0.523  12.531 -0.4022 -2.5564 -0.0122
12245TIP3    H258227   5.286   0.612  12.623  1.4243  0.6776 -1.4283
12246TIP3   OH258228   4.466   0.899   5.796 -0.1977  0.3146 -0.0609
12246TIP3    H158229   4.555   0.922   5.769 -0.4383 -0.0643 -1.1839
12246TIP3    H258230   4.420   0.983   5.801 -0.4898  0.2906 -2.0635
12247TIP3   OH258231   5.721   3.459   1.155  0.0557 -0.5670 -0.1009
12247TIP3    H158232   5.752   3.371   1.177 -0.2328 -0.5337  0.4361
12247TIP3    H258233   5.634   3.445   1.118  0.8784 -0.7064 -2.0549
12248TIP3   OH258234   3.381   4.995  12.794  0.2328  0.1604 -0.6928
12248TIP3    H158235   3.440   4.981  12.720  0.4952  1.0671 -0.6673
12248TIP3    H258236   3.432   5.047  12.855 -0.4148  0.4964 -0.4343
12249TIP3   OH258237   4.753   4.719  12.614 -0.0553  0.5164 -0.1009
12249TIP3    H158238   4.711   4.655  12.556  2.3379  0.3484 -1.7013
12249TIP3    H258239   4.844   4.720  12.587  1.1641  0.4636  3.6990
12250TIP3   OH258240   1.493   4.706  11.588  0.2455  0.4756  0.3630
12250TIP3    H158241   1.442   4.639  11.632  0.9958 -0.5383 -0.3047
12250TIP3    H258242   1.441   4.786  11.598 -1.1088 -0.3881  0.3377
12251TIP3   OH258243   2.603   0.372   2.028  0.0018  0.5472  0.1232
12251TIP3    H158244   2.605   0.279   2.008 -0.2291  0.4819  0.4036
12251TIP3    H258245   2.546   0.379   2.105  1.0150  0.7853  0.8531
12252TIP3   OH258246   5.012   6.204  14.354 -0.1984 -0.1504  0.4517
12252TIP3    H158247   5.093   6.178  14.399  0.0589  0.8743  0.5971
12252TIP3    H258248   5.028   6.294  14.327 -0.6399 -0.5108 -1.0475
12253TIP3   OH258249   5.252   0.428  11.106  0.3601  0.6028 -0.2968
12253TIP3    H158250   5.243   0.469  11.020 -0.3832  1.5914  0.2407
12253TIP3    H258251   5.275   0.499  11.165  1.5808 -0.1906  0.2044
12254TIP3   OH258252   5.931   3.708  15.011  0.2319  0.2428 -0.2225
12254TIP3    H158253   5.837   3.705  15.025  0.1182  0.0102 -1.0124
12254TIP3    H258254   5.942   3.767  14.936  0.6310 -0.5965 -0.8298
12255TIP3   OH258255   5.135   6.107  15.009 -0.2551  0.2405 -0.2341
12255TIP3    H158256   5.089   6.156  15.077 -0.3526  1.5576 -1.2240
12255TIP3    H258257   5.065   6.072  14.954 -0.1624 -0.4839  0.1048
12256TIP3   OH258258   0.323   5.289   2.714  0.7751  0.2852 -0.0116
12256TIP3    H158259   0.270   5.210   2.712 -0.4840  1.1219  0.0210
12256TIP3    H258260   0.320   5.317   2.806 -1.7833  2.3599 -0.6684
12257TIP3   OH258261   5.722   0.535   4.486 -0.0695  0.3171 -0.4689
12257TIP3    H158262   5.679   0.595   4.546  1.3673 -1.3686  2.3592
12257TIP3    H258263   5.678   0.451   4.499  0.4630 -0.1473 -1.5412
12258TIP3   OH258264   0.188   3.872  16.220 -0.7165 -0.2170 -0.4913
12258TIP3    H158265   0.138   3.948  16.192 -0.6372 -0.7136 -2.0335
12258TIP3    H258266   0.261   3.868  16.158 -0.7024 -1.5194 -0.3982
12259TIP3   OH258267   6.799   3.932   2.433 -0.3273  0.4180 -0.0827
12259TIP3    H158268   6.738   3.884   2.490 -2.4124  1.2177 -1.5732
12259TIP3    H258269   6.879   3.939   2.484 -1.5908 -0.3917  2.0777
12260TIP3   OH258270   0.610   2.817  12.197 -0.0650 -0.5912  0.2162
12260TIP3    H158271   0.682   2.880  12.191 -0.4526  0.0069  1.5818
12260TIP3    H258272   0.602   2.781  12.109  1.4017 -0.1041 -0.1322
12261TIP3   OH258273   5.982   0.010   2.838  0.0172 -0.3678 -0.2489
12261TIP3    H158274   5.959   0.084   2.782 -0.3632  0.4197  0.9338
12261TIP3    H258275   6.046   0.045   2.900  1.7543 -1.6566 -1.2574
12262TIP3   OH258276   1.041   3.897  14.548 -0.6348  0.1032  0.2331
12262TIP3    H158277   1.052   3.902  14.453  0.9951  0.3899  0.4241
12262TIP3    H258278   1.019   3.805  14.565  0.9946 -0.3879 -0.2479
12263TIP3   OH258279   3.832   4.539   1.888  0.1509  0.0632 -0.7123
12263TIP3    H158280   3.834   4.627   1.924 -0.0700  0.3695 -1.4418
12263TIP3    H258281   3.771   4.544   1.815 -0.1522 -0.7839 -0.5277
12264TIP3   OH258282   0.404   6.582   2.304  0.0478 -0.1927  0.1105
12264TIP3    H158283   0.410   6.527   2.382 -2.3685 -4.0199 -2.2522
12264TIP3    H258284   0.337   6.647   2.326  0.2905 -0.4579  1.6718
12265TIP3   OH258285   5.483   3.997   4.834 -0.7338 -0.4634  0.3716
12265TIP3    H158286   5.499   3.991   4.928  2.8150  0.5132 -0.1213
12265TIP3    H258287   5.517   3.915   4.798  0.3156  0.2648 -0.3330
12266TIP3   OH258288   6.507   5.557   4.433 -0.1728 -0.3593  0.2440
12266TIP3    H158289   6.422   5.530   4.398  0.0530 -0.6745 -0.0731
12266TIP3    H258290   6.493   5.564   4.527 -0.9293  1.0406  0.0388
12267TIP3   OH258291   6.040   6.308  13.873 -0.0951 -0.2743 -0.0777
12267TIP3    H158292   6.034   6.325  13.967  0.0063 -2.3008  0.3201
12267TIP3    H258293   5.962   6.350  13.836  1.0792  2.5882  0.5528
12268TIP3   OH258294   0.914   5.475  10.715 -0.1727 -0.1476 -0.1304
12268TIP3    H158295   0.820   5.478  10.735  0.5962  2.3786  3.4024
12268TIP3    H258296   0.955   5.442  10.794  2.0739  0.0823 -1.1551
12269TIP3   OH258297   1.835   1.968   3.667 -0.1240 -0.0699  0.2367
12269TIP3    H158298   1.798   1.940   3.751 -0.2360 -0.3610  0.0914
12269TIP3    H258299   1.887   1.893   3.638  1.4895  0.7436  0.9680
12270TIP3   OH258300   6.582   3.726  10.951  0.4431  0.0131 -0.5321
12270TIP3    H158301   6.675   3.748  10.953  0.3505  0.2285  2.2250
12270TIP3    H258302   6.552   3.762  10.867  2.7170  0.3771 -1.2327
12271TIP3   OH258303   5.378   6.590   0.839  0.4598  0.1970 -0.0317
12271TIP3    H158304   5.443   6.531   0.800  1.0841  0.5999  0.4032
12271TIP3    H258305   5.313   6.602   0.769 -0.0265 -1.5179  0.0873
12272TIP3   OH258306   4.198   6.615  11.872 -0.2496  0.8100  0.2349
12272TIP3    H158307   4.121   6.629  11.817 -0.5437  0.5112  0.5582
12272TIP3    H258308   4.185   6.674  11.946 -1.3896 -0.9582  1.4968
12273TIP3   OH258309   2.974   1.451   0.915  0.5012  0.7249  0.1613
12273TIP3    H158310   2.962   1.384   0.848 -2.9072 -0.2768  1.6611
12273TIP3    H258311   2.915   1.521   0.890 -1.1051  0.1857  2.2184
12274TIP3   OH258312   0.189   1.912   1.552 -0.0167 -0.0507 -0.4099
12274TIP3    H158313   0.190   1.852   1.477 -2.2686  2.2815 -2.3885
12274TIP3    H258314   0.214   1.857   1.626  2.3169 -2.4210 -2.8390
12275TIP3   OH258315   1.851   5.559   3.700 -0.1829  0.4276 -0.1124
12275TIP3    H158316   1.893   5.638   3.664 -0.6961  0.6589 -0.2024
12275TIP3    H258317   1.897   5.487   3.658  1.4595  0.6413  1.2467
12276TIP3   OH258318   0.505   2.933   3.554 -0.0528  0.0395  0.6194
12276TIP3    H158319   0.595   2.901   3.558  0.0267  0.3020  0.8975
12276TIP3    H258320   0.498   2.996   3.625 -0.6095 -0.3587  0.9235
12277TIP3   OH258321   1.644   1.439   2.197  0.6364  0.0636  0.3384
12277TIP3    H158322   1.608   1.351   2.191 -0.8357  0.7598 -1.5626
12277TIP3    H258323   1.687   1.454   2.112 -0.2109  1.6089  0.1542
12278TIP3   OH258324   5.187   0.164  12.144  0.5129  0.1472  0.1623
12278TIP3    H158325   5.278   0.153  12.171  0.6202 -0.1364 -0.3175
12278TIP3    H258326   5.175   0.103  12.071 -0.1678 -0.0858  0.4644
12279TIP3   OH258327   1.993   2.069  12.448 -0.2214  0.2254  0.4037
12279TIP3    H158328   1.906   2.036  12.425 -1.2832  2.1238  1.6000
12279TIP3    H258329   2.046   2.053  12.369 -1.5304 -1.2641 -0.2072
12280TIP3   OH258330   4.377   4.087  15.984 -0.7669 -0.2096  0.5772
12280TIP3    H158331   4.417   4.001  15.992  0.2858  0.1196 -0.9750
12280TIP3    H258332   4.283   4.071  15.990 -0.5261 -1.3177  1.4732
12281TIP3   OH258333   5.706   4.731   1.880  0.3214 -0.2906 -0.0716
12281TIP3    H158334   5.644   4.659   1.890 -1.3016  1.2895  1.5388
12281TIP3    H258335   5.788   4.697   1.917 -0.5452 -1.1820  1.0646
12282TIP3   OH258336   1.537   1.527  15.022 -0.2528 -0.1509 -0.1713
12282TIP3    H158337   1.474   1.529  15.094  0.7908 -0.8839  0.7828
12282TIP3    H258338   1.556   1.433  15.010  1.1829  0.1075  0.0221
12283TIP3   OH258339   3.779   5.995   5.325  0.4597 -0.4582 -0.8219
12283TIP3    H158340   3.819   6.005   5.411 -1.7771  0.8721  0.1186
12283TIP3    H258341   3.794   6.080   5.281  4.3880 -2.1754 -3.0470
12284TIP3   OH258342   1.391   5.944   0.361 -0.3886  0.0983  0.1131
12284TIP3    H158343   1.386   6.037   0.338  1.0704 -0.0788 -0.9569
12284TIP3    H258344   1.476   5.915   0.328 -1.1616 -1.8142 -0.2701
12285TIP3   OH258345   1.449   3.580   4.422  0.1867  0.3024  0.2442
12285TIP3    H158346   1.540   3.551   4.418  1.2360  3.3575  0.6040
12285TIP3    H258347   1.426   3.599   4.331  0.3743  0.9152  0.3269
12286TIP3   OH258348   5.311   3.375  16.925 -0.6210 -0.5557 -0.1367
12286TIP3    H158349   5.392   3.359  16.876  0.0238  0.3460  0.6173
12286TIP3    H258350   5.304   3.471  16.928 -0.3677 -0.5807  1.9794
12287TIP3   OH258351   3.515   3.946   1.486 -0.3255  0.0270 -0.3078
12287TIP3    H158352   3.597   3.995   1.483 -0.3724  0.1924  0.9427
12287TIP3    H258353   3.460   3.987   1.420  0.4066  0.2588 -0.7765
12288TIP3   OH258354   1.791   3.149   0.245 -0.6301 -0.4641  0.1681
12288TIP3    H158355   1.873   3.112   0.277  0.2098  1.0821 -0.1156
12288TIP3    H258356   1.723   3.093   0.282  0.3805  0.2614  3.2944
12289TIP3   OH258357   3.094   6.721   0.543 -0.0306 -0.5665  0.3148
12289TIP3    H158358   3.026   6.776   0.504 -0.6994 -0.9123  0.9695
12289TIP3    H258359   3.137   6.680   0.469 -0.2721 -0.0342 -0.1275
12290TIP3   OH258360   2.766   5.251  15.266 -0.0735 -0.2885  0.2507
12290TIP3    H158361   2.838   5.305  15.296 -0.4618  0.6754 -0.5278
12290TIP3    H258362   2.691   5.280  15.318  0.2685 -1.9072  1.6964
12291TIP3   OH258363   1.383   1.473   0.946 -0.1150  0.5963 -0.2298
12291TIP3    H158364   1.299   1.520   0.942 -0.3559  0.1986  0.0895
12291TIP3    H258365   1.447   1.540   0.969 -0.6302  0.5788  1.3237
12292TIP3   OH258366   3.881   6.547   3.904  0.1618 -0.4369  0.2385
12292TIP3    H158367   3.793   6.553   3.941  0.0880 -1.3651  0.2445
12292TIP3    H258368   3.913   6.637   3.903 -1.1378  0.0254 -0.6426
12293TIP3   OH258369   4.615   0.797   3.730  0.3265 -0.0593  0.1003
12293TIP3    H158370   4.538   0.766   3.681  0.5078 -3.1150  1.6583
12293TIP3    H258371   4.690   0.763   3.682  0.5268 -2.2484  1.8840
12294TIP3   OH258372   1.869   1.691  16.597 -0.2857  0.3009  0.3468
12294TIP3    H158373   1.946   1.664  16.646 -0.0881  0.5180  0.1558
12294TIP3    H258374   1.795   1.672  16.655  0.0410  1.8375  1.2961
12295TIP3   OH258375   2.346   0.377  13.256 -0.1867 -0.3937  0.1959
12295TIP3    H158376   2.404   0.411  13.323 -1.6002 -0.3422  1.4150
12295TIP3    H258377   2.334   0.284  13.278  0.1610 -0.6299 -0.5783
12296TIP3   OH258378   6.801   4.807  16.221  0.2449  0.0916  0.1755
12296TIP3    H158379   6.800   4.903  16.221 -0.2373  0.0866  0.2671
12296TIP3    H258380   6.812   4.784  16.313 -1.9011  0.0419  0.4396
12297TIP3   OH258381   1.360   4.652  11.968  0.1441 -0.3675  0.4153
12297TIP3    H158382   1.285   4.634  11.912  1.1564 -1.7507 -0.5379
12297TIP3    H258383   1.422   4.582  11.947  2.3115  1.6239  0.0934
12298TIP3   OH258384   0.608   0.213   3.996  0.4993  1.0857  0.2857
12298TIP3    H158385   0.542   0.143   3.997  0.8180  0.7873  0.4242
12298TIP3    H258386   0.632   0.221   3.904  2.2580 -0.6849  0.5606
12299TIP3   OH258387   2.849   2.224  12.966 -0.9110  0.2107 -0.3147
12299TIP3    H158388   2.820   2.224  12.875  0.6754 -0.2824 -0.8386
12299TIP3    H258389   2.944   2.210  12.961 -1.0802 -1.7814  1.4930
12300TIP3   OH258390   4.683   0.905   2.546  0.2806 -0.4074  0.5429
12300TIP3    H158391   4.772   0.927   2.521  0.7544 -0.2665  2.2494
12300TIP3    H258392   4.684   0.810   2.559 -0.2774 -0.6574 -1.1365
12301TIP3   OH258393   6.463   2.246   1.642 -0.2439 -0.2548  0.1989
12301TIP3    H158394   6.454   2.280   1.553 -1.4517 -1.7881 -0.2877
12301TIP3    H258395   6.510   2.315   1.689  0.4865  0.5473 -1.6322
12302TIP3   OH258396   5.314   5.823   5.496 -0.2889  0.1014  0.1099
12302TIP3    H158397   5.373   5.748   5.496 -1.8897 -1.1816 -0.3130
12302TIP3    H258398   5.365   5.894   5.536  1.8943 -0.6631 -1.2320
12303TIP3   OH258399   5.595   2.274  11.727 -0.4926  0.4309  0.2307
12303TIP3    H158400   5.630   2.321  11.652 -2.0138 -0.4439 -1.0582
12303TIP3    H258401   5.514   2.320  11.748 -1.6539 -1.1857 -0.6289
12304TIP3   OH258402   3.029   6.099   1.494 -0.0110 -0.0182  0.2091
12304TIP3    H158403   3.044   6.172   1.434  0.4597 -1.4766 -1.4602
12304TIP3    H258404   3.110   6.091   1.543  0.4690 -0.3677 -0.6391
12305TIP3   OH258405   1.692   3.818   1.875  0.1313 -0.6309  0.0626
12305TIP3    H158406   1.728   3.872   1.946 -0.3351  1.0759 -0.9576
12305TIP3    H258407   1.720   3.863   1.795  0.3051 -2.3096 -0.8292
12306TIP3   OH258408   6.515   0.299   2.658  0.5898 -0.2250 -0.4735
12306TIP3    H158409   6.492   0.330   2.571 -0.1391  2.3265  0.5949
12306TIP3    H258410   6.493   0.206   2.656 -0.6125  0.0674 -2.6107
12307TIP3   OH258411   3.701   1.790  13.953  0.0918  0.0440  0.4232
12307TIP3    H158412   3.626   1.848  13.963  1.8218  2.3946  0.2832
12307TIP3    H258413   3.680   1.736  13.877 -1.0135  1.4177 -0.2821
12308TIP3   OH258414   1.422   6.115  15.738  0.4217  0.0712  0.2666
12308TIP3    H158415   1.447   6.061  15.663  1.0759  0.0451  0.4913
12308TIP3    H258416   1.439   6.059  15.814 -0.5756 -0.0317  0.4180
12309TIP3   OH258417   5.535   5.961   4.597 -0.2861 -0.5060 -0.6157
12309TIP3    H158418   5.583   5.932   4.519 -0.3257 -1.0016 -0.4607
12309TIP3    H258419   5.582   5.922   4.670 -0.2210  0.0014 -0.3896
12310TIP3   OH258420   6.507   2.546   5.766 -0.6460  0.0906  0.0181
12310TIP3    H158421   6.439   2.603   5.801  0.1547  1.1700 -0.1794
12310TIP3    H258422   6.584   2.603   5.754  0.0658 -0.9448 -0.4691
12311TIP3   OH258423   0.878   1.743   5.829  0.0343  0.2822 -0.1475
12311TIP3    H158424   0.967   1.756   5.796  0.0045  0.6005 -0.1066
12311TIP3    H258425   0.827   1.721   5.752  0.1055  0.3266 -0.2076
12312TIP3   OH258426   0.483   2.082   4.033  0.0552  0.2390 -0.2820
12312TIP3    H158427   0.397   2.041   4.040  0.0859  0.0049 -1.3002
12312TIP3    H258428   0.522   2.044   3.954  0.7248  1.0337 -0.3385
12313TIP3   OH258429   0.598   5.816   4.744  0.7121  0.0956 -0.5898
12313TIP3    H158430   0.693   5.801   4.743  0.7759  0.3570  0.5344
12313TIP3    H258431   0.573   5.804   4.836 -0.4534 -0.6197 -0.9833
12314TIP3   OH258432   2.129   2.594   1.920 -0.2385  0.2692  0.4251
12314TIP3    H158433   2.199   2.539   1.957  0.9725  1.4482 -0.0671
12314TIP3    H258434   2.176   2.667   1.878 -1.7277  0.5459 -0.7827
12315TIP3   OH258435   4.255   2.999   4.167 -0.0487 -0.5644  0.0272
12315TIP3    H158436   4.203   2.922   4.142 -0.8739 -0.5512  1.6133
12315TIP3    H258437   4.343   2.963   4.183  0.2063 -0.7456 -1.7324
12316TIP3   OH258438   0.807   5.234   3.963  0.1432  0.0204 -0.0204
12316TIP3    H158439   0.856   5.227   4.045 -0.1501 -2.4247 -0.0028
12316TIP3    H258440   0.816   5.147   3.922 -0.6447  0.8436 -2.0406
12317TIP3   OH258441   6.769   0.888   5.829 -0.0534 -0.2347  0.5545
12317TIP3    H158442   6.854   0.866   5.867 -0.4335 -1.1031  0.9166
12317TIP3    H258443   6.779   0.869   5.736  0.9710  2.1635  0.1301
12318TIP3   OH258444   2.457   6.139  14.941  0.2643 -0.1383  0.1297
12318TIP3    H158445   2.423   6.190  15.015 -0.0021 -1.4348  0.9210
12318TIP3    H258446   2.538   6.100  14.975  0.5183 -0.1574 -0.5052
12319TIP3   OH258447   0.813   3.384  15.403 -0.3440 -0.5901  0.4079
12319TIP3    H158448   0.756   3.329  15.456 -0.1313 -0.5675  0.6629
12319TIP3    H258449   0.861   3.437  15.467 -1.0442  0.3778  0.1406
12320TIP3   OH258450   5.701   4.605   0.432 -0.2432 -0.4482  0.6687
12320TIP3    H158451   5.689   4.680   0.491 -1.1912  0.4792 -0.6598
12320TIP3    H258452   5.736   4.644   0.352 -0.8692 -1.4303 -0.0831
12321TIP3   OH258453   0.581   1.901   1.665  0.2915  0.4249 -0.6199
12321TIP3    H158454   0.560   1.991   1.688  2.0253  0.3372  1.4374
12321TIP3    H258455   0.505   1.851   1.695 -1.2244  1.2894 -2.8740
12322TIP3   OH258456   1.526   2.930  13.074 -0.0783 -0.0406 -0.0165
12322TIP3    H158457   1.462   2.933  13.145 -0.8970  0.6799 -0.7866
12322TIP3    H258458   1.559   3.019  13.068 -1.1692  0.2618 -1.6044
12323TIP3   OH258459   5.938   0.659  15.868 -0.5395  0.1864  0.2355
12323TIP3    H158460   6.024   0.633  15.902 -0.5807 -0.0488  0.1604
12323TIP3    H258461   5.944   0.754  15.858 -0.6231  0.2987  1.1873
12324TIP3   OH258462   4.108   1.792   0.562  0.4949 -0.5043  0.0484
12324TIP3    H158463   4.017   1.820   0.566  0.4107 -0.7126 -0.4172
12324TIP3    H258464   4.155   1.866   0.524  0.3701 -0.7634 -0.6079
12325TIP3   OH258465   4.639   1.791  15.164 -0.1010 -0.1689 -0.0568
12325TIP3    H158466   4.623   1.880  15.193 -2.1154 -0.5097 -0.0067
12325TIP3    H258467   4.583   1.781  15.086  1.2240 -0.9186 -0.9314
12326TIP3   OH258468   5.541   4.660  14.219 -0.1902 -0.1612 -0.5954
12326TIP3    H158469   5.451   4.659  14.184 -0.1263  0.1824 -0.7808
12326TIP3    H258470   5.560   4.569  14.239 -1.1497 -0.0408  0.9221
12327TIP3   OH258471   5.804   4.935   4.903  0.2493 -0.1274 -0.1336
12327TIP3    H158472   5.719   4.893   4.889  0.2032  0.2669 -1.0616
12327TIP3    H258473   5.784   5.010   4.960  0.1925 -0.8152  0.7638
12328TIP3   OH258474   0.655   5.245   3.632  0.2320  0.0294 -0.3157
12328TIP3    H158475   0.731   5.226   3.577 -0.2010 -0.3702 -0.7687
12328TIP3    H258476   0.642   5.166   3.684 -0.0397  0.0010 -0.4275
12329TIP3   OH258477   1.499   5.139   6.386 -0.2138  0.1644  0.5639
12329TIP3    H158478   1.438   5.203   6.423  0.5103  2.0508 -1.3951
12329TIP3    H258479   1.443   5.070   6.352 -1.1235  0.6629  1.0218
12330TIP3   OH258480   0.766   3.321   1.815  0.2138 -0.0539  0.8004
12330TIP3    H158481   0.730   3.390   1.760  0.8302 -1.0615 -0.8994
12330TIP3    H258482   0.857   3.345   1.828  0.3835 -0.4586  0.3567
12331TIP3   OH258483   4.428   5.167   1.258 -0.2588  0.2112 -0.4393
12331TIP3    H158484   4.450   5.095   1.317  1.4848  1.4373  0.4538
12331TIP3    H258485   4.385   5.232   1.314  0.6977  1.0535 -0.6769
12332TIP3   OH258486   2.250   6.056  13.324 -0.4523 -0.0333  0.0791
12332TIP3    H158487   2.267   6.098  13.409 -1.7541 -1.9940  1.3349
12332TIP3    H258488   2.161   6.083  13.302 -0.1231  0.4520 -0.6717
12333TIP3   OH258489   2.541   2.918  16.476 -0.0455 -0.0569 -0.5404
12333TIP3    H158490   2.525   2.856  16.548  0.2220  0.0185 -0.4165
12333TIP3    H258491   2.540   3.004  16.517 -0.5504  0.0303 -0.7392
12334TIP3   OH258492   4.977   2.326  16.064  0.3159  0.3721 -0.3806
12334TIP3    H158493   4.899   2.277  16.089  0.1029  0.9058  0.0245
12334TIP3    H258494   5.014   2.356  16.147  1.9202 -1.3173 -0.4692
12335TIP3   OH258495   2.329   2.762   3.634  0.3602 -0.3805  0.0702
12335TIP3    H158496   2.289   2.729   3.715 -1.3459 -0.9720 -0.9917
12335TIP3    H258497   2.289   2.710   3.565  2.2278 -0.2529 -1.1188
12336TIP3   OH258498   1.257   6.394   6.571  0.2579  0.3260  0.1801
12336TIP3    H158499   1.255   6.306   6.533 -0.7332  0.6766 -0.6034
12336TIP3    H258500   1.307   6.383   6.652  0.3948 -0.9032 -0.0490
12337TIP3   OH258501   3.495   1.848   4.292 -0.4308  0.9038  0.8795
12337TIP3    H158502   3.561   1.893   4.346  0.5223 -0.9559  1.3344
12337TIP3    H258503   3.535   1.762   4.274 -1.9621  0.4553 -0.4062
12338TIP3   OH258504   5.094   5.678  12.672  0.5756  0.1984 -0.1043
12338TIP3    H158505   5.093   5.598  12.724 -1.1288 -0.3768 -0.9842
12338TIP3    H258506   5.185   5.708  12.675  1.1751 -1.6162  0.4494
12339TIP3   OH258507   2.448   0.684  16.037 -0.2643  0.2660 -0.3721
12339TIP3    H158508   2.479   0.722  16.119 -1.3030 -0.4110  0.3547
12339TIP3    H258509   2.415   0.758  15.986  0.5785  0.7140 -0.2672
12340TIP3   OH258510   0.121   3.290   2.181  0.3783  0.5619 -0.8968
12340TIP3    H158511   0.156   3.368   2.137  0.8046  1.3177  0.7426
12340TIP3    H258512   0.095   3.322   2.268  2.5774 -1.5601  0.5884
12341TIP3   OH258513   5.104   2.350  16.523 -0.6419 -0.1648  0.9654
12341TIP3    H158514   5.127   2.414  16.455 -0.3177  0.4075  1.6143
12341TIP3    H258515   5.158   2.273  16.503 -1.1582 -0.3130  0.0831
12342TIP3   OH258516   0.806   3.314   4.423  0.0617  0.2553  0.9614
12342TIP3    H158517   0.899   3.292   4.415 -0.3527 -0.6759 -1.7335
12342TIP3    H258518   0.785   3.357   4.340 -2.3861 -1.2967  0.7517
12343TIP3   OH258519   1.295   4.790  14.801  0.1946  0.1877  0.6548
12343TIP3    H158520   1.282   4.822  14.711  0.0007 -1.1988  0.1586
12343TIP3    H258521   1.329   4.701  14.789  1.2641  0.4073  1.9720
12344TIP3   OH258522   0.211   4.454   6.209 -0.4234 -1.0156 -0.1858
12344TIP3    H158523   0.271   4.436   6.280 -0.3273  2.5955  0.7644
12344TIP3    H258524   0.124   4.435   6.245 -0.1849 -2.0246 -0.1236
12345TIP3   OH258525   5.565   2.925   6.509  0.3765 -0.1739  0.6349
12345TIP3    H158526   5.518   2.845   6.535  0.3628 -0.5307 -0.4585
12345TIP3    H258527   5.503   2.996   6.528 -1.2745 -0.7507 -2.2262
12346TIP3   OH258528   0.281   1.825   4.310 -0.2087 -0.0739 -0.2276
12346TIP3    H158529   0.249   1.874   4.233  1.2947 -0.0755 -0.8801
12346TIP3    H258530   0.216   1.757   4.324 -0.3710 -0.2335 -1.6731
12347TIP3   OH258531   1.616   6.375   0.106 -0.1233 -0.7334 -0.1972
12347TIP3    H158532   1.589   6.284   0.097  1.1086 -0.8168 -3.4276
12347TIP3    H258533   1.575   6.420   0.032  0.6223  1.0203  0.4187
12348TIP3   OH258534   0.182   1.566  14.730 -0.2250 -0.0334 -0.7757
12348TIP3    H158535   0.257   1.615  14.765 -0.8135 -0.1158  0.6689
12348TIP3    H258536   0.194   1.566  14.636  0.0465  2.5126 -0.7810
12349TIP3   OH258537   5.858   5.064  12.675 -0.2572 -0.0360 -0.1234
12349TIP3    H158538   5.849   5.158  12.658  1.5831  0.1978  0.0767
12349TIP3    H258539   5.822   5.052  12.763  0.6315  0.7033  0.3488
12350TIP3   OH258540   3.438   5.742   4.289  0.0921  0.1121 -0.1614
12350TIP3    H158541   3.386   5.717   4.365 -0.2658 -0.6561 -0.6541
12350TIP3    H258542   3.503   5.803   4.323 -0.1074 -0.1817  0.7515
12351TIP3   OH258543   2.751   2.631   6.158 -0.1296  0.0103  0.0811
12351TIP3    H158544   2.819   2.695   6.139 -1.0593  0.7652 -0.7524
12351TIP3    H258545   2.785   2.549   6.123  0.6561  0.2394  0.2997
12352TIP3   OH258546   1.480   2.449   5.092  0.6396  0.8658  0.4295
12352TIP3    H158547   1.523   2.389   5.032 -1.0527  0.6615 -0.5970
12352TIP3    H258548   1.536   2.448   5.170  2.3135  0.3771 -0.7460
12353TIP3   OH258549   0.542   2.107   4.303  0.5114 -0.8272 -0.1125
12353TIP3    H158550   0.558   2.200   4.320 -0.2732 -0.5729 -0.7146
12353TIP3    H258551   0.541   2.100   4.208 -0.1210 -1.3308 -0.0696
12354TIP3   OH258552   0.635   4.201   0.376  0.8386  0.4567  0.5740
12354TIP3    H158553   0.618   4.264   0.306 -2.2333 -1.2324 -0.3179
12354TIP3    H258554   0.622   4.250   0.457  3.1645  2.1060 -0.0071
12355TIP3   OH258555   3.451   3.258   5.560  0.0953  0.7349 -0.4418
12355TIP3    H158556   3.426   3.170   5.532 -1.6784  1.4995 -1.3636
12355TIP3    H258557   3.416   3.266   5.649  1.8462 -0.1123  0.3499
12356TIP3   OH258558   3.838   2.564  16.079  0.8335 -0.7001 -0.0753
12356TIP3    H158559   3.777   2.521  16.020  1.7646 -0.7226 -1.0324
12356TIP3    H258560   3.831   2.515  16.161 -0.9668 -0.2490  0.0625
12357TIP3   OH258561   1.983   0.967   2.719  0.2914 -0.0274  0.5128
12357TIP3    H158562   2.076   0.947   2.726  0.0408 -1.2297  0.4371
12357TIP3    H258563   1.946   0.894   2.670 -0.5271  0.9277 -0.3277
12358TIP3   OH258564   4.820   1.397   4.441 -0.7787  0.5352 -0.3539
12358TIP3    H158565   4.883   1.460   4.476 -0.1090 -0.3871  0.1363
12358TIP3    H258566   4.874   1.329   4.401 -1.5128  0.7786 -1.7922
12359TIP3   OH258567   1.638   5.544  16.195 -0.0338 -0.0892 -0.3781
12359TIP3    H158568   1.708   5.556  16.132 -0.8550  1.3674 -1.0375
12359TIP3    H258569   1.670   5.583  16.276  0.5181 -0.8248 -0.2352
12360TIP3   OH258570   5.055   2.817  15.754 -0.1205  0.2092  0.1312
12360TIP3    H158571   4.969   2.851  15.729 -1.0956 -1.8774  0.5395
12360TIP3    H258572   5.095   2.888  15.805 -0.4730  2.2172 -2.3346
12361TIP3   OH258573   5.802   2.537  11.998  0.2071  1.3516  0.2343
12361TIP3    H158574   5.784   2.585  11.917 -2.9427  1.2468  0.8064
12361TIP3    H258575   5.811   2.445  11.970 -0.6923  1.3389 -0.0295
12362TIP3   OH258576   3.340   2.608   3.630 -0.6138 -0.4357 -0.2517
12362TIP3    H158577   3.288   2.528   3.640 -0.5644 -0.2894  1.3936
12362TIP3    H258578   3.334   2.651   3.715 -0.7035  1.3686 -1.1503
12363TIP3   OH258579   6.212   6.347   0.206  0.3447  0.6035 -0.1448
12363TIP3    H158580   6.205   6.267   0.258  0.2156  0.5058 -0.3114
12363TIP3    H258581   6.303   6.348   0.175  0.1250  0.1003 -0.8175
12364TIP3   OH258582   2.017   2.408   0.663 -0.1142  0.1333  0.2828
12364TIP3    H158583   2.043   2.431   0.752  1.4114 -3.6393  0.9193
12364TIP3    H258584   2.095   2.422   0.610 -0.1035 -0.5348  0.1151
12365TIP3   OH258585   2.485   3.310  16.853  0.0905  0.3636 -0.4544
12365TIP3    H158586   2.483   3.373  16.925 -0.1657  0.8631 -0.8968
12365TIP3    H258587   2.553   3.343  16.794 -0.7349  0.7712 -1.1816
12366TIP3   OH258588   5.054   6.448   0.615 -0.3302 -0.0120 -0.4207
12366TIP3    H158589   5.127   6.511   0.617 -0.0625 -0.3021 -0.7477
12366TIP3    H258590   5.067   6.401   0.532  0.0437 -1.1653  0.2889
12367TIP3   OH258591   5.433   6.365  14.975 -0.2576  0.2446  0.2062
12367TIP3    H158592   5.469   6.423  14.907 -0.8312  0.3565 -0.0045
12367TIP3    H258593   5.508   6.313  15.004  0.0074  0.2495 -0.4586
12368TIP3   OH258594   1.648   1.248   5.163  0.3289  0.1767 -0.2715
12368TIP3    H158595   1.743   1.239   5.157  0.4309  1.0098 -0.0078
12368TIP3    H258596   1.615   1.159   5.157  1.3503 -0.5564  3.5246
12369TIP3   OH258597   0.722   6.487   5.288  0.3540 -0.0733 -0.1205
12369TIP3    H158598   0.698   6.460   5.199  1.0910  0.9726 -0.6448
12369TIP3    H258599   0.694   6.414   5.343 -4.7767  1.3433 -0.5536
12370TIP3   OH258600   5.792   1.234  15.505 -0.1579  0.0573 -0.5750
12370TIP3    H158601   5.793   1.165  15.438  2.5240 -0.3737 -0.1229
12370TIP3    H258602   5.793   1.187  15.588 -0.3591  0.6454 -0.2379
12371TIP3   OH258603   3.984   6.566  12.250 -0.0000 -1.2612 -0.0377
12371TIP3    H158604   3.965   6.560  12.343  0.2450  1.7803  0.2712
12371TIP3    H258605   4.078   6.550  12.243  0.0185 -1.2780  0.2573
12372TIP3   OH258606   4.238   5.231   3.413 -0.1720 -0.3031  0.2004
12372TIP3    H158607   4.233   5.165   3.482 -1.2973  2.3068  2.7725
12372TIP3    H258608   4.331   5.248   3.402  0.0068  0.2476  2.1954
12373TIP3   OH258609   0.939   2.442   4.206  0.1251 -0.2549 -0.7298
12373TIP3    H158610   0.919   2.515   4.265  0.8645 -0.4527 -0.2247
12373TIP3    H258611   0.908   2.471   4.120 -2.0567 -0.4596 -0.0165
12374TIP3   OH258612   4.007   1.914  13.384  0.3632 -0.2592 -0.1680
12374TIP3    H158613   3.976   2.000  13.412  0.0554 -0.5440  0.3842
12374TIP3    H258614   4.092   1.904  13.426  0.9468  0.2831 -1.2179
12375TIP3   OH258615   2.678   0.048   2.616 -0.1652 -0.2044 -0.4137
12375TIP3    H158616   2.649   0.080   2.531  0.0684  1.8557  0.2644
12375TIP3    H258617   2.760   0.094   2.633  0.4659 -1.5570  0.3576
12376TIP3   OH258618   4.008   6.304   2.893  0.1000  0.0461  0.6463
12376TIP3    H158619   3.958   6.375   2.855  0.3303  0.2429  0.7093
12376TIP3    H258620   4.063   6.272   2.821  1.4066  1.1958  1.0999
12377TIP3   OH258621   6.189   1.489  12.105 -0.4419  0.3094  0.1841
12377TIP3    H158622   6.135   1.440  12.166 -0.8186 -0.5607 -0.8220
12377TIP3    H258623   6.139   1.569  12.087 -1.2284 -0.3073 -0.4331
12378TIP3   OH258624   3.537   3.239  12.047 -0.1651  0.2225 -0.0734
12378TIP3    H158625   3.486   3.164  12.075 -1.1968  1.4758  1.5279
12378TIP3    H258626   3.554   3.224  11.954 -3.1828 -0.3665 -0.5671
12379TIP3   OH258627   5.348   4.368  14.687 -0.4216 -0.2361  0.1037
12379TIP3    H158628   5.358   4.454  14.728  2.1686 -1.3057  1.8226
12379TIP3    H258629   5.425   4.358  14.631 -0.8543 -1.3074 -0.3226
12380TIP3   OH258630   5.817   1.534   0.228 -0.2213 -0.0659  0.3648
12380TIP3    H158631   5.802   1.573   0.314 -2.8337 -1.9745  0.8021
12380TIP3    H258632   5.756   1.579   0.170  0.9988  0.6733 -0.3939
12381TIP3   OH258633   1.068   1.686  14.629 -0.7216 -0.4602 -0.0221
12381TIP3    H158634   1.152   1.725  14.650 -0.3414  0.0104 -2.3002
12381TIP3    H258635   1.006   1.759  14.629 -0.7651 -0.4957 -0.2720
12382TIP3   OH258636   0.055   3.136  12.037 -0.3107  0.1692 -0.3159
12382TIP3    H158637   0.075   3.172  12.124 -0.1037  1.0780 -0.7334
12382TIP3    H258638   0.088   3.202  11.976 -0.7157 -0.3351 -1.0790
12383TIP3   OH258639   5.977   1.881  14.519 -0.3662 -0.0277  0.1380
12383TIP3    H158640   5.923   1.815  14.475  2.4968 -2.9336  0.8460
12383TIP3    H258641   5.980   1.954  14.456 -0.9267 -1.8611 -2.0865
12384TIP3   OH258642   3.321   4.095   1.740  0.0960 -0.2527 -0.0779
12384TIP3    H158643   3.262   4.168   1.722 -1.0969 -0.7055  1.8858
12384TIP3    H258644   3.265   4.017   1.737  1.0118 -0.9107 -0.3531
12385TIP3   OH258645   3.905   2.580   5.279  0.3379 -0.0960 -0.0006
12385TIP3    H158646   3.939   2.631   5.353 -0.1455 -0.3839  0.4245
12385TIP3    H258647   3.840   2.637   5.238  1.3970  0.4932 -0.8720
12386TIP3   OH258648   3.774   1.685  11.181  0.6138  0.4471  0.4574
12386TIP3    H158649   3.847   1.747  11.177  0.8444  0.1422 -0.1581
12386TIP3    H258650   3.757   1.674  11.275  1.6183  0.2300  0.6301
12387TIP3   OH258651   1.789   2.373  17.080  0.0726  0.3515  0.2959
12387TIP3    H158652   1.726   2.335  17.141 -2.4723 -0.1552 -2.5211
12387TIP3    H258653   1.741   2.445  17.038  1.7725  0.7373 -1.0322
12388TIP3   OH258654   1.916   0.024   6.540  0.3364  0.2900  0.9320
12388TIP3    H158655   1.978  -0.042   6.571 -0.5276 -1.2400 -0.5408
12388TIP3    H258656   1.970   0.090   6.499  1.0482 -0.7239  0.2195
12389TIP3   OH258657   5.643   2.965  13.809 -0.4989 -0.0204 -0.3732
12389TIP3    H158658   5.585   2.921  13.746 -0.1654  0.5433 -1.0820
12389TIP3    H258659   5.731   2.952  13.773 -0.0895 -1.6055  1.1415
12390TIP3   OH258660   1.890   1.372  16.582 -0.7388  0.1715 -0.0378
12390TIP3    H158661   1.926   1.299  16.633 -1.0303 -0.1077 -0.2392
12390TIP3    H258662   1.963   1.401  16.527 -0.8376 -0.4429 -0.4977
12391TIP3   OH258663   1.395   6.431   7.183 -0.0816  0.1055 -0.3625
12391TIP3    H158664   1.351   6.498   7.130  0.1350  0.6619  0.1576
12391TIP3    H258665   1.332   6.360   7.187 -0.3375  0.2965 -0.8795
12392TIP3   OH258666   2.494   4.133   5.020  0.2376 -0.4344 -0.1747
12392TIP3    H158667   2.458   4.197   4.958 -0.8075 -1.2976 -0.4684
12392TIP3    H258668   2.571   4.097   4.976 -0.1391 -0.5865 -0.7089
12393TIP3   OH258669   0.234   2.096  12.260  0.1958 -0.3895 -0.0209
12393TIP3    H158670   0.308   2.039  12.238  1.0104  0.5972  0.1302
12393TIP3    H258671   0.184   2.103  12.179  2.1024  1.6372 -1.0399
12394TIP3   OH258672   3.396   2.085   2.530 -0.0084  0.3248 -0.0601
12394TIP3    H158673   3.459   2.032   2.481 -1.1792 -2.6982  1.5510
12394TIP3    H258674   3.440   2.169   2.544  2.3065 -0.5542 -1.8502
12395TIP3   OH258675   6.059   2.922  13.959  0.1007  0.1568  0.3938
12395TIP3    H158676   6.065   2.979  14.036  1.4940  0.3586  0.1426
12395TIP3    H258677   6.011   2.974  13.895  1.9863  1.3734 -0.0841
12396TIP3   OH258678   1.557   0.507   3.618  0.0297 -0.1291  0.1686
12396TIP3    H158679   1.570   0.428   3.670  3.2002 -1.2832 -2.1893
12396TIP3    H258680   1.562   0.477   3.527 -1.1429  2.4254 -0.7925
12397TIP3   OH258681   5.806   4.227   3.736 -0.7939 -0.0519 -0.1383
12397TIP3    H158682   5.723   4.203   3.695 -1.0256  1.1637 -0.3908
12397TIP3    H258683   5.789   4.311   3.777  0.3376  0.2295 -0.2368
12398TIP3   OH258684   6.293   6.316   5.000 -0.7476 -0.3942  0.2750
12398TIP3    H158685   6.328   6.399   5.031  0.9503 -1.3587  0.9859
12398TIP3    H258686   6.337   6.301   4.916 -0.9133 -0.6571  0.2333
12399TIP3   OH258687   6.205   4.494   0.831  0.0609  0.6684  0.0440
12399TIP3    H158688   6.259   4.436   0.883 -0.0414  0.9251  0.4388
12399TIP3    H258689   6.205   4.577   0.879 -0.5165  0.7298 -0.0609
12400TIP3   OH258690   0.024   3.592  14.898  0.7131 -0.3603 -0.0713
12400TIP3    H158691  -0.070   3.604  14.882  0.6854 -1.6374 -0.9078
12400TIP3    H258692   0.048   3.665  14.955 -1.2688 -1.3102  2.0564
12401TIP3   OH258693   3.150   4.982   6.340 -0.7538 -0.4367  0.3246
12401TIP3    H158694   3.163   5.047   6.409 -0.2844 -0.1833 -0.0057
12401TIP3    H258695   3.096   4.914   6.381 -0.0792 -0.5171  1.0847
12402TIP3   OH258696   4.186   4.587  14.420  0.1941  0.2970 -0.5188
12402TIP3    H158697   4.259   4.622  14.369  1.3582  0.1935  1.0320
12402TIP3    H258698   4.109   4.604  14.366  1.3655  0.3009 -2.2503
12403TIP3   OH258699   3.577   5.960   2.501 -0.0846 -0.1951  0.2688
12403TIP3    H158700   3.511   6.029   2.495 -0.1008  0.0254  2.6157
12403TIP3    H258701   3.535   5.892   2.554  0.0878 -1.8470 -1.6517
12404TIP3   OH258702   3.166   0.469  11.962 -0.1515 -0.1924  0.2116
12404TIP3    H158703   3.180   0.489  11.869  0.6470 -1.2921  0.0942
12404TIP3    H258704   3.135   0.552  12.000 -0.0492  0.3784 -0.9396
12405TIP3   OH258705   0.899   6.727   4.595 -0.5658 -0.5772 -0.0519
12405TIP3    H158706   0.974   6.692   4.548  0.0238  0.9337 -0.2707
12405TIP3    H258707   0.834   6.745   4.528  0.2047  1.4000 -0.3033
12406TIP3   OH258708   1.868   4.554   5.809 -0.0387  0.0765  0.3225
12406TIP3    H158709   1.897   4.589   5.893 -3.2582  0.9948  1.1447
12406TIP3    H258710   1.883   4.460   5.815 -1.3307 -0.0217  2.4366
12407TIP3   OH258711   1.207   0.877  12.827 -0.0429  0.5071 -0.5185
12407TIP3    H158712   1.142   0.911  12.766 -0.7072  2.3210  1.1362
12407TIP3    H258713   1.244   0.955  12.869  1.3970 -0.6204  0.3746
12408TIP3   OH258714   5.769   6.815  11.506 -0.0927  0.3482 -0.7518
12408TIP3    H158715   5.773   6.904  11.540 -0.7900  0.5870 -1.2758
12408TIP3    H258716   5.706   6.771  11.563  2.0923 -0.5278  1.0695
12409TIP3   OH258717   1.024   4.423  12.729  0.1117  0.0468 -0.0952
12409TIP3    H158718   1.114   4.394  12.715 -0.0834 -1.7801  2.0405
12409TIP3    H258719   1.031   4.516  12.749  1.4692  0.0477 -0.5070
12410TIP3   OH258720   0.341   6.457  15.792  0.8221 -0.0933 -0.0113
12410TIP3    H158721   0.275   6.396  15.758  0.6997  0.4518 -0.7591
12410TIP3    H258722   0.414   6.401  15.819 -0.3538 -0.7980  1.7839
12411TIP3   OH258723   6.622   4.655   2.142  0.3833 -0.4579  0.2919
12411TIP3    H158724   6.619   4.611   2.227 -2.3446  0.3946  0.6831
12411TIP3    H258725   6.713   4.649   2.115  1.3540 -0.4833  3.4212
12412TIP3   OH258726   2.915   4.433   0.619 -0.5293  0.0677 -0.2722
12412TIP3    H158727   2.963   4.384   0.686 -2.9945 -1.8858  0.1478
12412TIP3    H258728   2.874   4.505   0.667 -1.2363 -0.5847  0.1283
12413TIP3   OH258729   5.173   1.212  16.909 -0.2152 -0.2845  0.3539
12413TIP3    H158730   5.161   1.292  16.961  0.5696 -1.3326  2.2207
12413TIP3    H258731   5.248   1.169  16.950  0.0780 -1.4329 -1.3466
12414TIP3   OH258732   1.752   2.869   5.495 -0.3643 -0.6840  0.2885
12414TIP3    H158733   1.830   2.824   5.529  0.6788  0.3589 -0.6965
12414TIP3    H258734   1.725   2.817   5.420  0.0833 -0.3878 -0.0789
12415TIP3   OH258735   2.736   0.760   2.190  0.0690  0.5928  0.0363
12415TIP3    H158736   2.647   0.732   2.209  0.2665 -1.4728 -1.9297
12415TIP3    H258737   2.735   0.782   2.097  1.7339 -0.0153 -0.1426
12416TIP3   OH258738   4.988   1.520   1.121  0.2113 -0.0080 -0.6107
12416TIP3    H158739   5.078   1.509   1.152  0.3649  0.8619 -0.7273
12416TIP3    H258740   4.996   1.584   1.050 -0.7025  1.2948  0.4380
12417TIP3   OH258741   3.353   1.190  13.460  0.8632 -0.1052 -0.9983
12417TIP3    H158742   3.276   1.231  13.419 -0.8775 -0.8935  1.3901
12417TIP3    H258743   3.385   1.256  13.522 -1.0083 -1.6555  1.7165
12418TIP3   OH258744   2.088   5.231   4.231 -0.2074  0.3442 -0.2659
12418TIP3    H158745   2.104   5.256   4.140 -1.0526  0.4722 -0.3769
12418TIP3    H258746   2.020   5.291   4.261  1.3220  1.4902  1.0019
12419TIP3   OH258747   4.344   2.874  11.629  0.5865  0.4662 -0.8249
12419TIP3    H158748   4.409   2.825  11.578  0.7633  1.1126 -1.2263
12419TIP3    H258749   4.334   2.824  11.710  0.4045 -0.5071 -1.4386
12420TIP3   OH258750   6.217   1.437  16.782 -0.0949 -0.4502 -0.1579
12420TIP3    H158751   6.166   1.363  16.817  2.5895 -1.6031  1.4822
12420TIP3    H258752   6.161   1.513  16.797 -1.7029 -1.7856  0.8408
12421TIP3   OH258753   4.550   3.212  16.746 -0.1681  0.2765  0.0541
12421TIP3    H158754   4.558   3.124  16.711 -1.3455 -0.2972  1.2092
12421TIP3    H258755   4.599   3.267  16.685  1.0212 -1.2485 -0.3720
12422TIP3   OH258756   6.511   5.356  15.221  0.1258  0.6818  0.1602
12422TIP3    H158757   6.441   5.295  15.201  1.7610 -0.9625 -0.7330
12422TIP3    H258758   6.482   5.439  15.185 -0.6477 -0.3386 -1.6140
12423TIP3   OH258759   1.290   1.217   0.979 -0.1294  0.7036  0.1041
12423TIP3    H158760   1.340   1.297   0.962 -1.1026  0.8099 -2.5072
12423TIP3    H258761   1.215   1.246   1.030 -0.5883  1.5049 -1.0104
12424TIP3   OH258762   4.553   0.348  12.269 -0.3490 -0.3273 -0.4453
12424TIP3    H158763   4.508   0.265  12.278  0.8694 -0.9688 -0.1311
12424TIP3    H258764   4.612   0.352  12.344  0.8501  0.0122 -1.3909
12425TIP3   OH258765   3.881   4.334   0.547 -0.2000  0.2086  0.5849
12425TIP3    H158766   3.852   4.312   0.635  0.2523 -1.0845  0.4180
12425TIP3    H258767   3.802   4.367   0.503 -1.1100 -1.9796  0.5444
12426TIP3   OH258768   6.233   4.240   3.122 -0.0817  0.4204 -0.0449
12426TIP3    H158769   6.140   4.248   3.143 -0.1112  0.0991 -0.0517
12426TIP3    H258770   6.269   4.184   3.190 -0.4124 -1.6184 -1.5026
12427TIP3   OH258771   5.834   2.108  12.558  0.0879  0.3640  0.2062
12427TIP3    H158772   5.882   2.167  12.500 -0.3195 -0.4307 -0.9443
12427TIP3    H258773   5.803   2.164  12.629 -1.6256  1.8375 -1.6668
12428TIP3   OH258774   5.591   0.458  12.856  0.1199 -0.8010  0.5228
12428TIP3    H158775   5.549   0.520  12.916 -0.4529  0.0011 -0.7017
12428TIP3    H258776   5.534   0.455  12.780  2.7594  1.1139 -1.6277
12429TIP3   OH258777   3.945   1.434  11.454 -0.2620  0.0491  0.1506
12429TIP3    H158778   3.867   1.489  11.446  1.0914  1.8792 -1.0233
12429TIP3    H258779   3.944   1.380  11.375  0.5398  1.3131 -0.7547
12430TIP3   OH258780   0.566   1.160  15.092 -0.3418  0.4630 -0.0686
12430TIP3    H158781   0.502   1.089  15.096 -0.3591  0.5273  0.9427
12430TIP3    H258782   0.613   1.145  15.010  0.1049 -1.1072  0.4564
12431TIP3   OH258783   1.524   2.456   4.648  0.0803 -0.0502 -0.1163
12431TIP3    H158784   1.467   2.380   4.642  0.0323  0.0015 -0.3124
12431TIP3    H258785   1.492   2.505   4.723 -0.1925  0.0296 -0.2859
12432TIP3   OH258786   2.622   1.907   5.881  0.5988  0.0673 -0.0105
12432TIP3    H158787   2.562   1.882   5.951 -0.9490 -0.0992 -1.3714
12432TIP3    H258788   2.700   1.854   5.896 -0.4381 -1.3538  0.4902
12433TIP3   OH258789   1.326   0.864   5.124 -0.4052 -0.0463  0.5000
12433TIP3    H158790   1.411   0.826   5.147 -0.4223  0.0557  0.7365
12433TIP3    H258791   1.313   0.841   5.032 -0.4296 -0.6471  0.6465
12434TIP3   OH258792   2.355   6.334  12.021  0.2086 -0.2584 -0.2035
12434TIP3    H158793   2.345   6.240  12.031 -0.2272 -0.1896  0.0018
12434TIP3    H258794   2.266   6.369  12.025  0.3726  0.1679 -0.2052
12435TIP3   OH258795   4.903   3.415  14.638  0.3725  0.1105 -0.5619
12435TIP3    H158796   4.988   3.436  14.599  0.6684  0.9170  0.5020
12435TIP3    H258797   4.867   3.347  14.581  1.2045  0.6106 -1.7151
12436TIP3   OH258798   6.088   2.911   5.332  0.0099  0.1664 -0.3866
12436TIP3    H158799   6.168   2.957   5.357  0.4840  0.0401 -1.6602
12436TIP3    H258800   6.116   2.822   5.312 -0.5356 -0.0255 -0.3222
12437TIP3   OH258801   2.835   5.239   3.175 -0.2463 -0.1706  0.2220
12437TIP3    H158802   2.894   5.168   3.151  0.7363  0.6594  0.1670
12437TIP3    H258803   2.810   5.220   3.265  1.1080  0.1601  0.6730
12438TIP3   OH258804   5.311   3.323  16.530  0.2450  0.7257 -0.1677
12438TIP3    H158805   5.229   3.363  16.561 -1.1347 -1.9198 -0.2766
12438TIP3    H258806   5.312   3.342  16.436 -1.0826 -0.5983 -0.4694
12439TIP3   OH258807   0.752   0.031   1.233  0.0801 -0.2061 -0.1237
12439TIP3    H158808   0.777   0.052   1.143 -1.2714  1.3894 -0.1453
12439TIP3    H258809   0.685  -0.037   1.223 -0.7936  0.6746 -0.3938
12440TIP3   OH258810   4.338   2.324   1.570  0.2277 -0.4563  0.1776
12440TIP3    H158811   4.338   2.335   1.665 -0.7640  0.7585  0.0563
12440TIP3    H258812   4.245   2.312   1.548  0.5877 -2.0757 -0.4930
12441TIP3   OH258813   3.924   5.892  14.480 -0.1622  0.7678  0.2707
12441TIP3    H158814   3.942   5.872  14.572  1.4768 -0.5050 -0.3005
12441TIP3    H258815   3.890   5.981  14.481  0.0468  0.8505  2.0861
12442TIP3   OH258816   1.686   3.258  14.882 -0.6048 -0.1967 -0.2802
12442TIP3    H158817   1.678   3.272  14.788 -3.3551  1.1363  0.1150
12442TIP3    H258818   1.640   3.176  14.898  0.6223 -0.8856 -0.1826
12443TIP3   OH258819   0.087   4.464   0.280 -0.0548 -0.1774  0.1910
12443TIP3    H158820   0.034   4.510   0.214  0.3611  0.1892  0.1108
12443TIP3    H258821   0.174   4.503   0.272  0.1963 -0.6901  0.4114
12444TIP3   OH258822   1.496   3.144   2.818 -0.1771  0.5825 -0.1085
12444TIP3    H158823   1.522   3.224   2.862  0.3837  1.0218 -1.2030
12444TIP3    H258824   1.508   3.075   2.883 -0.0910  1.3066  0.6488
12445TIP3   OH258825   4.690   4.796  14.970 -0.6279  0.2111  0.2684
12445TIP3    H158826   4.772   4.791  15.018 -0.3074  2.6312  0.0303
12445TIP3    H258827   4.623   4.801  15.037 -0.6998 -2.8173  0.4737
12446TIP3   OH258828   3.405   0.123  13.514  0.8637 -0.2409  0.1283
12446TIP3    H158829   3.373   0.089  13.598 -2.4144 -0.5200 -1.1579
12446TIP3    H258830   3.373   0.214  13.513  2.3741  0.2893 -0.0760
12447TIP3   OH258831   5.417   5.210   2.793 -0.4758  0.2436 -0.4599
12447TIP3    H158832   5.463   5.282   2.751  0.5910  0.7597  1.5686
12447TIP3    H258833   5.334   5.203   2.744 -0.8826  3.2429 -0.2860
12448TIP3   OH258834   0.537   6.262  15.854 -0.2588  0.1760  0.0603
12448TIP3    H158835   0.519   6.231  15.943  0.0871 -0.0039  0.0662
12448TIP3    H258836   0.513   6.188  15.797  0.5030 -0.0783  0.0692
12449TIP3   OH258837   1.890   1.982   5.108  0.7791  0.9443  0.3814
12449TIP3    H158838   1.795   1.994   5.103  0.4277 -1.2166  1.2174
12449TIP3    H258839   1.926   2.050   5.052 -1.2944  1.4071 -0.4302
12450TIP3   OH258840   2.904   3.779   1.898 -0.6485 -0.3822  0.0445
12450TIP3    H158841   2.988   3.734   1.893 -0.9887 -0.8901 -1.4734
12450TIP3    H258842   2.845   3.716   1.938 -0.2959  0.0253  1.2451
12451TIP3   OH258843   5.871   0.381   4.862  0.1567 -0.7751 -0.6917
12451TIP3    H158844   5.783   0.369   4.897  0.2346 -1.3570 -0.6862
12451TIP3    H258845   5.874   0.473   4.835  0.0877 -0.3451  0.7722
12452TIP3   OH258846   0.436   1.413  12.827 -0.5204  0.2988  0.0483
12452TIP3    H158847   0.529   1.436  12.831 -0.1794 -0.6555 -2.0350
12452TIP3    H258848   0.409   1.436  12.739 -2.3606  0.8216  0.7245
12453TIP3   OH258849   0.630   0.277  15.504 -0.1421 -0.1546  0.0669
12453TIP3    H158850   0.596   0.266  15.415  1.3647 -0.0440 -0.5401
12453TIP3    H258851   0.673   0.194  15.523  0.4994  0.2285  0.2699
12454TIP3   OH258852   2.398   3.166   1.014 -0.0054  0.1632 -0.3093
12454TIP3    H158853   2.388   3.164   0.919  0.8709  1.4153 -0.4292
12454TIP3    H258854   2.490   3.146   1.029 -0.5161 -1.8879  0.3828
12455TIP3   OH258855   5.415   5.363  11.728  0.3326  0.1607  0.6911
12455TIP3    H158856   5.384   5.453  11.719  0.1128  0.0634  0.4474
12455TIP3    H258857   5.359   5.313  11.668 -0.8542 -0.4354  2.2631
12456TIP3   OH258858   2.097   0.013  15.970 -0.1098  0.0204  0.2145
12456TIP3    H158859   2.161   0.077  16.001 -0.3941  0.1198  0.6061
12456TIP3    H258860   2.026   0.066  15.934  0.1528 -0.0933 -0.4777
12457TIP3   OH258861   1.899   1.241  15.946 -0.2002 -0.8560 -0.0899
12457TIP3    H158862   1.821   1.297  15.949  0.3555 -0.0450 -0.7490
12457TIP3    H258863   1.874   1.163  15.996 -1.6180 -0.8245 -0.7145
12458TIP3   OH258864   5.402   5.244  16.388 -0.2947  0.1121 -0.2587
12458TIP3    H158865   5.348   5.270  16.462  2.1013 -2.5730  2.5560
12458TIP3    H258866   5.340   5.209  16.324 -2.0738 -1.3043  2.1645
12459TIP3   OH258867   0.544   5.816  10.440  0.4702 -0.4860 -0.1486
12459TIP3    H158868   0.564   5.724  10.455  2.3850  0.2963  2.5208
12459TIP3    H258869   0.607   5.843  10.372 -0.3991 -1.2240 -1.2661
12460TIP3   OH258870   2.950   2.560   4.389  0.1835 -0.0032 -0.1570
12460TIP3    H158871   2.942   2.588   4.297  0.4659 -2.9646 -1.1495
12460TIP3    H258872   2.996   2.631   4.432 -0.9169  1.9203 -2.0821
12461TIP3   OH258873   4.691   1.636   2.256  0.2420  0.2836  0.2137
12461TIP3    H158874   4.764   1.672   2.307  1.9715 -1.0725 -1.2222
12461TIP3    H258875   4.618   1.631   2.317  0.8017  3.4212  1.2037
12462TIP3   OH258876   3.429   3.254  11.790  0.0665 -0.3682  0.3214
12462TIP3    H158877   3.509   3.208  11.765  0.1068  0.1376 -0.5010
12462TIP3    H258878   3.372   3.246  11.713 -0.3704 -0.0507  0.6108
12463TIP3   OH258879   0.716   3.532   1.661 -0.3252  0.0580  0.5554
12463TIP3    H158880   0.708   3.608   1.719  0.4391  1.4867 -1.1526
12463TIP3    H258881   0.788   3.554   1.602  0.5167 -2.4129  0.6131
12464TIP3   OH258882   5.212   3.959  12.650  0.7889 -0.1988  0.2684
12464TIP3    H158883   5.141   3.926  12.595  2.1358  1.6414 -2.6934
12464TIP3    H258884   5.170   4.020  12.711 -0.3755 -0.3181 -0.4182
12465TIP3   OH258885   5.372   1.122  16.244 -0.1283 -0.6623  0.0047
12465TIP3    H158886   5.358   1.037  16.203  1.0997 -0.5290 -0.7297
12465TIP3    H258887   5.430   1.169  16.183  0.0436  0.3064  0.8929
12466TIP3   OH258888   1.095   4.313   2.653  0.5725 -0.2846 -0.6384
12466TIP3    H158889   1.021   4.369   2.629  1.0122  0.5040 -0.2085
12466TIP3    H258890   1.093   4.241   2.590 -0.4134 -0.1409 -0.7721
12467TIP3   OH258891   6.010   0.094  15.343  0.5833 -0.4425  0.5012
12467TIP3    H158892   6.048   0.180  15.324  0.7648 -0.6953 -0.2782
12467TIP3    H258893   5.919   0.113  15.366  0.1631 -0.2064 -1.3282
12468TIP3   OH258894   3.469   5.287   3.605  0.2988  0.0731  0.5779
12468TIP3    H158895   3.419   5.228   3.661 -0.2028 -0.4245 -0.3777
12468TIP3    H258896   3.561   5.270   3.628  0.2239 -1.9351 -0.5056
12469TIP3   OH258897   1.759   3.855   1.153 -0.4121  0.3851  0.2180
12469TIP3    H158898   1.843   3.810   1.165  1.3276  2.9690 -1.7732
12469TIP3    H258899   1.760   3.924   1.218 -2.7044 -1.8222  2.6914
12470TIP3   OH258900   6.267   4.476  14.396  0.2885 -0.4562 -0.0516
12470TIP3    H158901   6.247   4.534  14.322  0.0496 -1.7583 -1.0244
12470TIP3    H258902   6.183   4.435  14.417  0.7851 -1.7308 -0.5002
12471TIP3   OH258903   6.011   3.488  14.650  0.2824  0.1524 -0.3492
12471TIP3    H158904   6.096   3.461  14.615  0.5349 -1.0402  1.1056
12471TIP3    H258905   5.965   3.406  14.667  0.0529  0.6844  1.7689
12472TIP3   OH258906   0.211   3.977   1.789 -0.5783 -0.1586  0.4257
12472TIP3    H158907   0.233   3.995   1.698 -0.4445 -1.1505  0.2462
12472TIP3    H258908   0.172   3.889   1.787 -0.9198 -0.0309  1.2689
12473TIP3   OH258909   5.541   4.663   1.532  0.4196 -0.0650 -0.3116
12473TIP3    H158910   5.502   4.749   1.519 -0.3610 -0.5948 -1.5733
12473TIP3    H258911   5.635   4.676   1.516  0.2377  0.4457 -0.9747
12474TIP3   OH258912   0.953   5.677   5.691 -0.2912 -0.5450  0.1576
12474TIP3    H158913   1.027   5.735   5.708 -0.5141 -0.0169 -0.6450
12474TIP3    H258914   0.876   5.729   5.713 -0.5666  0.0433 -2.1031
12475TIP3   OH258915   3.392   4.262  13.009  0.0822 -0.2737 -0.0910
12475TIP3    H158916   3.436   4.346  12.999 -0.6521  0.2180  0.7691
12475TIP3    H258917   3.300   4.280  12.990 -0.4989 -0.3465  2.5855
12476TIP3   OH258918   3.967   5.887  13.615  0.5063  0.9639 -0.1303
12476TIP3    H158919   4.049   5.844  13.589  1.1072  1.6696  0.5646
12476TIP3    H258920   3.906   5.815  13.628  0.4869  0.5251 -2.4284
12477TIP3   OH258921   2.239   5.842  16.975  0.3408 -0.2112 -0.3871
12477TIP3    H158922   2.181   5.913  16.949 -3.1152 -2.4260  0.9819
12477TIP3    H258923   2.268   5.866  17.064  0.1873  0.0793 -0.4141
12478TIP3   OH258924   2.249   0.854  13.807 -0.0725  0.3487 -0.6739
12478TIP3    H158925   2.213   0.927  13.858 -0.0122  1.9282 -2.8202
12478TIP3    H258926   2.194   0.850  13.728 -0.6859 -2.5817 -0.1500
12479TIP3   OH258927   6.134   5.407   2.376  0.4473  0.6106 -0.0016
12479TIP3    H158928   6.183   5.474   2.423 -0.4192  1.0372  0.3114
12479TIP3    H258929   6.182   5.394   2.294  1.4517  0.5283  0.5938
12480TIP3   OH258930   0.693   1.311  11.378  0.4735 -0.3057 -0.6090
12480TIP3    H158931   0.749   1.363  11.435 -0.3197  0.7185 -0.7505
12480TIP3    H258932   0.629   1.271  11.437 -0.1731  0.5283 -0.7312
12481TIP3   OH258933   4.686   2.984  16.064  0.1575 -0.6244  0.2342
12481TIP3    H158934   4.757   2.943  16.114  1.0400  0.0919 -0.4122
12481TIP3    H258935   4.632   2.910  16.036  1.2937 -1.2945 -0.2416
12482TIP3   OH258936   1.398   6.067   3.287  0.1530 -0.0971  0.6317
12482TIP3    H158937   1.313   6.102   3.258  0.1916 -0.6967 -0.2242
12482TIP3    H258938   1.391   5.973   3.272  0.2839 -0.3928  2.3462
12483TIP3   OH258939   5.534   0.579   1.560  0.0411  0.4965  1.2132
12483TIP3    H158940   5.484   0.624   1.629  1.2917  0.5326  2.1090
12483TIP3    H258941   5.625   0.585   1.589  0.4269 -0.8026  0.2860
12484TIP3   OH258942   2.001   1.247   5.681  0.2786 -0.1977  0.3582
12484TIP3    H158943   1.918   1.272   5.640  1.3733  1.7287 -0.7790
12484TIP3    H258944   2.002   1.297   5.763  1.1047  1.2220 -0.4906
12485TIP3   OH258945   1.891   3.074  16.577  0.0082  0.1462 -0.4810
12485TIP3    H158946   1.834   3.147  16.552 -0.9890 -0.7299 -0.7773
12485TIP3    H258947   1.867   3.003  16.518 -0.0868 -0.9144  0.7968
12486TIP3   OH258948   5.366   0.609   0.992 -0.0175 -0.4378 -0.2497
12486TIP3    H158949   5.299   0.673   0.972  0.0674  0.5098  2.3140
12486TIP3    H258950   5.448   0.658   0.991 -0.1245 -0.0589  3.3692
12487TIP3   OH258951   5.653   4.641  13.015 -0.7359  0.6667  0.2000
12487TIP3    H158952   5.682   4.578  12.949 -1.1849  0.3914  0.2649
12487TIP3    H258953   5.651   4.591  13.097 -1.6853  0.6011  0.1432
12488TIP3   OH258954   3.264   1.518   4.839  0.1635 -0.4761  0.0289
12488TIP3    H158955   3.261   1.571   4.919  0.0118 -0.6763  0.1566
12488TIP3    H258956   3.350   1.535   4.801  0.3796 -0.6685  0.4328
12489TIP3   OH258957   1.447   4.670  13.910 -0.4301  0.2992  0.1950
12489TIP3    H158958   1.503   4.640  13.981 -0.4753  0.0527  0.1289
12489TIP3    H258959   1.376   4.606  13.907 -0.5413  0.4284  0.0680
12490TIP3   OH258960   2.199   3.410  12.157  0.0987  0.1078  0.4455
12490TIP3    H158961   2.224   3.502  12.149 -0.5783  0.2460 -0.1525
12490TIP3    H258962   2.268   3.371  12.210  0.3990  0.9569  0.6916
12491TIP3   OH258963   2.184   1.331   3.426 -0.0012 -0.2767  0.1921
12491TIP3    H158964   2.122   1.267   3.464  1.7779 -0.8979  2.1233
12491TIP3    H258965   2.266   1.282   3.417  0.6922  1.0393 -0.7035
12492TIP3   OH258966   5.235   2.219  12.764 -0.1499  0.0655  0.2117
12492TIP3    H158967   5.147   2.228  12.729 -0.2085  1.0076  0.5786
12492TIP3    H258968   5.226   2.236  12.858  0.8497  3.0754 -0.1764
12493TIP3   OH258969   2.689   0.026   5.295 -0.0263 -0.3656  0.0306
12493TIP3    H158970   2.684   0.060   5.385 -1.1911 -0.1618 -0.1070
12493TIP3    H258971   2.780  -0.004   5.286  0.4232  0.7157  0.8701
12494TIP3   OH258972   2.887   0.195   4.722 -0.4921 -0.1563 -0.2414
12494TIP3    H158973   2.879   0.255   4.795 -2.7164 -0.4502 -0.2108
12494TIP3    H258974   2.904   0.251   4.646  2.1194  0.1234  0.5108
12495TIP3   OH258975   3.106   0.789   1.500 -0.5571  0.0270 -0.0002
12495TIP3    H158976   3.060   0.744   1.430  2.1640 -0.2699 -1.6973
12495TIP3    H258977   3.132   0.720   1.561 -0.0969 -0.1666 -0.4085
12496TIP3   OH258978   3.497   4.529   2.661  0.1804 -0.2937  0.5245
12496TIP3    H158979   3.548   4.599   2.703  1.5888 -1.3277  0.5666
12496TIP3    H258980   3.451   4.573   2.590 -0.4265  1.0399  1.7184
12497TIP3   OH258981   5.448   1.803  15.969 -0.1080  0.4745  0.4513
12497TIP3    H158982   5.511   1.737  15.998  1.1466  1.5891  0.3023
12497TIP3    H258983   5.381   1.804  16.038  0.7418  0.2241  1.2902
12498TIP3   OH258984   2.000   2.156   4.909 -0.5776 -0.3835  0.1177
12498TIP3    H158985   2.077   2.105   4.885 -0.1116  1.6137 -2.9189
12498TIP3    H258986   1.949   2.161   4.828 -1.0943  3.0690  0.6162
12499TIP3   OH258987   4.035   3.096   4.478 -0.0658 -0.2843 -0.0227
12499TIP3    H158988   4.120   3.059   4.502  0.4463  1.4670  0.9859
12499TIP3    H258989   4.057   3.180   4.437 -1.2259 -0.7060 -1.5142
12500TIP3   OH258990   5.823   3.953   1.663  0.3121 -0.1809  0.1195
12500TIP3    H158991   5.772   3.999   1.729  2.0882 -1.0662  2.1540
12500TIP3    H258992   5.894   4.015   1.641 -0.4915  0.2724 -1.2896
12501TIP3   OH258993   4.535   1.525   1.409  0.2449 -0.2188 -0.1773
12501TIP3    H158994   4.629   1.536   1.396  0.2581 -1.7834 -1.5634
12501TIP3    H258995   4.502   1.494   1.325 -1.2699 -1.0852  0.7088
12502TIP3   OH258996   5.165   3.095  11.872  0.2465 -0.3490  0.3974
12502TIP3    H158997   5.119   3.149  11.936  0.7729  2.3713 -1.4092
12502TIP3    H258998   5.257   3.102  11.897  0.4723  0.8709 -0.6998
12503TIP3   OH258999   2.405   5.751   4.656  0.3944 -0.3856 -0.4963
12503TIP3    H159000   2.433   5.842   4.645 -2.1599  0.2176 -2.5862
12503TIP3    H259001   2.381   5.744   4.748  0.3332  1.1476 -0.3875
12504TIP3   OH259002   6.350   2.454   2.345 -0.0466  0.2173 -0.4019
12504TIP3    H159003   6.421   2.461   2.409 -0.4769 -0.2931  0.1275
12504TIP3    H259004   6.394   2.465   2.260  0.3226  2.2817  0.0345
12505TIP3   OH259005   5.638   4.903  14.533  0.0235 -0.5757  0.2872
12505TIP3    H159006   5.702   4.840  14.501 -1.5815 -1.4151 -1.4009
12505TIP3    H259007   5.554   4.856  14.529 -0.6317  0.2044  3.2133
12506TIP3   OH259008   6.470   0.381   2.365  0.0430 -0.1247 -0.0938
12506TIP3    H159009   6.397   0.391   2.304  0.3691  1.4188 -0.2498
12506TIP3    H259010   6.506   0.294   2.346 -1.9759 -1.0553  0.2457
12507TIP3   OH259011   2.440   4.904   1.033 -0.0182 -0.3762 -0.6146
12507TIP3    H159012   2.394   4.820   1.030  0.2416 -0.4750 -1.6916
12507TIP3    H259013   2.382   4.965   0.988 -0.3447  0.1031  0.4205
12508TIP3   OH259014   1.041   3.679   3.571  0.1025 -0.2084  0.7641
12508TIP3    H159015   1.115   3.722   3.614 -0.2621  1.2344 -0.0473
12508TIP3    H259016   0.965   3.705   3.621 -0.2126  0.7327 -0.1907
12509TIP3   OH259017   1.214   6.204  13.020  0.3248 -0.2930  0.0536
12509TIP3    H159018   1.279   6.186  13.088 -1.1697 -2.8826  0.8956
12509TIP3    H259019   1.259   6.184  12.938  1.2206 -0.0676  0.4851
12510TIP3   OH259020   5.674   1.300  12.422  0.1091 -0.8350  0.1194
12510TIP3    H159021   5.613   1.278  12.351  0.8440 -1.5361 -0.3104
12510TIP3    H259022   5.650   1.389  12.447 -0.0135 -0.4788 -1.1848
12511TIP3   OH259023   3.662   4.746  12.489 -0.0549 -0.2582 -0.8201
12511TIP3    H159024   3.704   4.697  12.418  0.6042  0.5566 -0.9902
12511TIP3    H259025   3.614   4.679  12.538  2.1212 -1.3568 -0.1166
12512TIP3   OH259026   5.473   2.745  12.905  0.1871 -0.5879 -0.9504
12512TIP3    H159027   5.439   2.772  12.819 -0.5967  0.5138 -0.2998
12512TIP3    H259028   5.553   2.796  12.916 -1.0149  1.1349  0.0455
12513TIP3   OH259029   6.248   0.242  13.874 -0.7236 -0.7123 -0.4779
12513TIP3    H159030   6.154   0.233  13.885 -0.3374 -2.7079  1.6443
12513TIP3    H259031   6.273   0.170  13.815 -0.6397  0.3146 -1.6991
12514TIP3   OH259032   1.417   0.561  12.293  0.2468  0.3776 -0.2599
12514TIP3    H159033   1.442   0.527  12.379  0.7665  1.7045  0.1222
12514TIP3    H259034   1.487   0.622  12.270 -1.0535  1.7702 -0.5896
12515TIP3   OH259035   2.017   0.537  13.036  1.0028  0.2568  0.2202
12515TIP3    H159036   1.924   0.558  13.037  0.9487 -0.0091  1.7761
12515TIP3    H259037   2.056   0.607  12.983 -0.0322  0.5242 -0.2146
12516TIP3   OH259038   2.849   1.033   0.669  0.0606 -0.9207  0.2924
12516TIP3    H159039   2.918   0.977   0.706 -0.6805 -0.0767  3.0749
12516TIP3    H259040   2.771   0.978   0.669 -0.5297 -0.1530  2.4771
12517TIP3   OH259041   0.989   2.868   1.142 -0.0264 -0.8246  0.3181
12517TIP3    H159042   0.956   2.956   1.126  4.2825  0.8368 -0.0286
12517TIP3    H259043   0.956   2.816   1.069 -1.6197  0.7782 -0.1208
12518TIP3   OH259044   5.392   0.601   5.014 -0.4064 -0.6168  0.3285
12518TIP3    H159045   5.465   0.663   5.010  0.6525 -2.0225 -4.0225
12518TIP3    H259046   5.319   0.647   4.972 -0.7117 -0.9653  0.4787
12519TIP3   OH259047   1.162   0.414  12.476 -0.2294  0.0392  0.5354
12519TIP3    H159048   1.131   0.373  12.557  0.2950  1.2312  1.3421
12519TIP3    H259049   1.206   0.343  12.428 -1.7494 -0.9999  0.6464
12520TIP3   OH259050   2.825   4.038  16.813  0.0758  0.1031  0.0178
12520TIP3    H159051   2.792   4.069  16.897 -0.1819  0.6190 -0.2704
12520TIP3    H259052   2.855   4.117  16.768  0.5865 -0.2159 -0.2151
12521TIP3   OH259053   3.377   6.281   1.787 -0.3105  0.0013  0.1203
12521TIP3    H159054   3.351   6.259   1.877  1.2901 -0.1211  0.5703
12521TIP3    H259055   3.464   6.241   1.777 -0.4901 -0.0022 -1.4942
12522TIP3   OH259056   2.531   4.249  12.832  0.3668 -0.0678 -0.0407
12522TIP3    H159057   2.442   4.214  12.832  0.7004 -0.9464  0.0516
12522TIP3    H259058   2.572   4.209  12.909  1.2556 -0.7783 -0.8695
12523TIP3   OH259059   0.935   1.246   2.441 -0.2223  0.1440  0.3620
12523TIP3    H159060   0.922   1.301   2.364 -1.5003 -0.2875  0.2617
12523TIP3    H259061   1.000   1.293   2.493 -0.3424  1.1032 -0.3386
12524TIP3   OH259062   6.543   3.255  15.945 -0.2104  0.2201 -0.2375
12524TIP3    H159063   6.568   3.207  16.024  0.0530 -0.5464 -0.7755
12524TIP3    H259064   6.447   3.251  15.945 -0.1899 -0.3429 -0.2951
12525TIP3   OH259065   5.647   3.510  15.415  0.0759 -0.0321  0.5081
12525TIP3    H159066   5.630   3.581  15.354  1.5625  0.9973  1.2686
12525TIP3    H259067   5.742   3.511  15.428  0.1454 -2.3264  0.3239
12526TIP3   OH259068   3.144   6.390  13.333 -0.2149  0.2461  0.2427
12526TIP3    H159069   3.116   6.441  13.410 -1.5458 -2.0567  1.3470
12526TIP3    H259070   3.197   6.319  13.370  0.9829  0.3867 -1.1970
12527TIP3   OH259071   3.313   6.477  13.139  0.6070 -0.0194  0.4099
12527TIP3    H159072   3.308   6.572  13.155 -1.8039 -0.0302 -0.1171
12527TIP3    H259073   3.257   6.439  13.206 -1.1496 -0.7971 -1.4276
12528TIP3   OH259074   6.671   2.964   4.624 -0.2628  1.0271 -0.0041
12528TIP3    H159075   6.654   2.938   4.533  0.2840  2.4864 -0.5438
12528TIP3    H259076   6.744   3.026   4.617 -0.5263  1.4988  1.3964
12529TIP3   OH259077   2.397   4.132  10.529  0.1110 -0.5293  0.2281
12529TIP3    H159078   2.310   4.146  10.491  1.0246  1.1179 -1.3505
12529TIP3    H259079   2.385   4.148  10.622 -1.2095  0.1320 -0.0352
12530TIP3   OH259080   5.190   0.764   4.083  0.6327  0.2475 -0.0552
12530TIP3    H159081   5.139   0.691   4.048  2.0270 -1.0870  0.6126
12530TIP3    H259082   5.191   0.750   4.177  0.1386  1.6677  0.1748
12531TIP3   OH259083   4.941   6.214  12.448 -0.1450  0.7815 -0.1657
12531TIP3    H159084   4.911   6.250  12.531 -1.8536  0.3839 -0.5984
12531TIP3    H259085   5.025   6.259  12.431  0.7757  0.0390  2.2997
12532TIP3   OH259086   1.691   5.006  12.523  0.7073 -0.0277  0.2648
12532TIP3    H159087   1.607   4.960  12.518  0.9980 -0.8397  2.3922
12532TIP3    H259088   1.677   5.086  12.472 -0.6774 -1.1340 -1.1617
12533TIP3   OH259089   4.009   0.537  17.202  0.2547 -0.1364 -0.0890
12533TIP3    H159090   4.077   0.471  17.186  0.0006  0.2225 -2.9163
12533TIP3    H259091   4.045   0.618  17.164 -2.2634 -0.2635 -2.9648
12534TIP3   OH259092   1.221   6.671  11.669 -0.4233  0.2296 -0.1920
12534TIP3    H159093   1.168   6.737  11.713 -1.9393 -0.1019 -1.4695
12534TIP3    H259094   1.237   6.708  11.582  0.4284 -0.2011 -0.2217
12535TIP3   OH259095   1.715   6.658   5.691  0.4480  0.3517 -0.3123
12535TIP3    H159096   1.634   6.658   5.741  1.0890  0.5242  0.7632
12535TIP3    H259097   1.750   6.747   5.701  0.7353  0.2993 -0.8120
12536TIP3   OH259098   4.016   3.664   0.808  0.2089  0.0325  0.1437
12536TIP3    H159099   4.074   3.730   0.772 -0.9687  1.9597  1.6183
12536TIP3    H259100   3.942   3.660   0.747  0.1914  0.2248  0.1538
12537TIP3   OH259101   6.053   3.207  11.087 -0.8931 -0.0416 -0.0280
12537TIP3    H159102   6.008   3.278  11.041 -0.4863 -0.2914 -0.8141
12537TIP3    H259103   6.115   3.172  11.024 -0.0910 -0.1767  0.8206
12538TIP3   OH259104   0.936   2.786  16.690  0.4080 -0.2792  0.0226
12538TIP3    H159105   0.912   2.876  16.710  1.1794  0.4353 -2.0882
12538TIP3    H259106   1.026   2.777  16.721  0.4215 -0.2319 -0.0002
12539TIP3   OH259107   1.722   3.545   4.382 -0.3984 -0.3898 -0.5894
12539TIP3    H159108   1.784   3.617   4.371 -1.6355  0.6455 -0.9603
12539TIP3    H259109   1.773   3.475   4.421  0.8596  0.6607 -0.3066
12540TIP3   OH259110   1.318   1.367  12.386  0.1654 -0.9636  0.1629
12540TIP3    H159111   1.379   1.389  12.315  0.2869 -0.1653  0.5115
12540TIP3    H259112   1.255   1.439  12.387 -0.0591 -1.1633  0.6140
12541TIP3   OH259113   3.948   4.409  11.164  0.4611  0.3239 -0.9475
12541TIP3    H159114   3.887   4.348  11.204  0.1981  1.4578  0.4161
12541TIP3    H259115   4.034   4.366  11.173  0.2801  0.1500 -0.0011
12542TIP3   OH259116   3.124   3.675  13.956 -0.1180 -0.2885 -0.1087
12542TIP3    H159117   3.182   3.611  13.997 -0.8697  0.1741  1.7467
12542TIP3    H259118   3.036   3.639  13.970 -0.6363  1.5976  1.8875
12543TIP3   OH259119   0.917   1.064  13.140  0.2254  0.8437 -0.6008
12543TIP3    H159120   0.858   1.077  13.065  1.4071  0.7086 -1.5796
12543TIP3    H259121   0.903   1.141  13.195 -0.9446  0.7575 -0.7607
12544TIP3   OH259122   4.825   3.269   0.381 -0.2083 -0.0490 -0.1049
12544TIP3    H159123   4.912   3.306   0.394  0.4975 -1.0722 -1.7402
12544TIP3    H259124   4.773   3.342   0.348  0.3065  0.3193 -0.1017
12545TIP3   OH259125   5.843   4.978   4.312 -0.2101  0.4304 -0.6653
12545TIP3    H159126   5.897   4.900   4.301  0.4024  0.8433 -0.6193
12545TIP3    H259127   5.788   4.958   4.388 -0.3574 -0.1220 -0.9130
12546TIP3   OH259128   3.764   1.694   1.569  0.6473  0.2547 -0.3779
12546TIP3    H159129   3.780   1.605   1.601  0.4380  0.1689 -0.5101
12546TIP3    H259130   3.827   1.749   1.616  1.7484 -0.1674 -1.3516
12547TIP3   OH259131   4.815   5.836  14.337 -0.0391  0.1474 -0.0379
12547TIP3    H159132   4.827   5.879  14.422 -2.0782 -1.3287  1.0419
12547TIP3    H259133   4.733   5.788  14.346  0.1841 -0.7688 -2.5550
12548TIP3   OH259134   6.239   4.858  16.933  0.7631  0.3071 -0.1426
12548TIP3    H159135   6.239   4.801  16.856  1.0202 -0.5125  0.4636
12548TIP3    H259136   6.194   4.807  17.000 -3.1867  2.5821 -0.9054
12549TIP3   OH259137   5.343   1.964  16.805  0.4650  1.3996  0.1709
12549TIP3    H159138   5.291   2.041  16.828  2.4269  3.0500 -0.7857
12549TIP3    H259139   5.375   1.930  16.889 -3.3721 -0.6246  0.9622
12550TIP3   OH259140   0.190   0.968  14.347  0.2503  0.2226  0.2327
12550TIP3    H159141   0.161   0.980  14.437 -2.1989 -0.0528 -0.5009
12550TIP3    H259142   0.124   0.910  14.307  0.9980  0.7778 -1.8866
12551TIP3   OH259143   2.627   1.849  17.151  0.5770 -0.3282  0.6969
12551TIP3    H159144   2.662   1.807  17.073 -0.2879  1.1699 -0.5138
12551TIP3    H259145   2.577   1.780  17.195 -0.3395 -0.7430 -0.9605
12552TIP3   OH259146   6.570   5.933  13.839 -0.0639  0.6186  0.0511
12552TIP3    H159147   6.630   5.870  13.798 -1.2680 -0.4391 -0.1190
12552TIP3    H259148   6.516   5.965  13.766 -1.2761 -0.2122  0.5838
12553TIP3   OH259149   1.211   1.744   4.611 -0.2903  0.0091 -0.3055
12553TIP3    H159150   1.195   1.652   4.630 -0.0570 -0.3818 -1.8789
12553TIP3    H259151   1.271   1.743   4.536 -0.8801  1.4251 -0.8238
12554TIP3   OH259152   1.218   6.813   5.441  0.7346  0.4170 -0.2797
12554TIP3    H159153   1.235   6.900   5.477  1.1663 -0.7718  2.5361
12554TIP3    H259154   1.268   6.810   5.359  3.1861  1.7397  1.1229
12555TIP3   OH259155   0.054   6.749   4.428  0.1954  0.8112  0.6671
12555TIP3    H159156   0.098   6.701   4.358 -0.2893  0.3459  0.6762
12555TIP3    H259157  -0.012   6.802   4.383 -0.3165  0.2890  0.7896
12556TIP3   OH259158   3.601   1.543  16.382  0.4426 -0.3441  0.4996
12556TIP3    H159159   3.638   1.522  16.296  0.7362  0.4336  0.4306
12556TIP3    H259160   3.602   1.460  16.429  0.5819 -0.7104 -0.1367
12557TIP3   OH259161   2.292   0.411   5.454  0.4827  0.1796 -0.3848
12557TIP3    H159162   2.349   0.356   5.400  0.1299 -0.9453  0.3608
12557TIP3    H259163   2.213   0.423   5.400  1.4628  1.8838 -1.4857
12558TIP3   OH259164   6.727   4.423  10.896  0.1530 -0.4028 -0.4742
12558TIP3    H159165   6.816   4.388  10.897  0.5092  0.3894 -2.6550
12558TIP3    H259166   6.676   4.357  10.849 -0.1251 -0.1624 -0.5079
12559TIP3   OH259167   3.076   6.550  14.350  0.0202  0.0375 -0.2619
12559TIP3    H159168   3.100   6.590  14.266  1.8960 -0.7771 -0.1317
12559TIP3    H259169   3.067   6.624  14.410  1.4675  0.4185 -0.5046
12560TIP3   OH259170   2.695   4.883  14.209  0.3640 -0.0368  0.2946
12560TIP3    H159171   2.700   4.833  14.127  0.3820 -0.2480  0.4256
12560TIP3    H259172   2.773   4.938  14.209 -1.3439  2.5423 -1.5211
12561TIP3   OH259173   3.562   6.709   6.082  0.4022  0.1107 -0.7013
12561TIP3    H159174   3.602   6.796   6.082  1.2317 -0.2659 -0.8500
12561TIP3    H259175   3.576   6.677   6.171  0.2603  0.0496 -0.7004
12562TIP3   OH259176   0.274   5.987  13.766 -0.2624  0.1526 -0.0742
12562TIP3    H159177   0.367   5.976  13.747 -0.6411 -0.5813 -1.6855
12562TIP3    H259178   0.230   5.939  13.695 -1.8559  0.1993  0.8559
12563TIP3   OH259179   1.592   4.187   3.206 -0.4086  0.2067 -0.1149
12563TIP3    H159180   1.565   4.131   3.279 -2.5000 -0.7876 -1.6435
12563TIP3    H259181   1.578   4.134   3.128  0.3101  1.8455 -1.3788
12564TIP3   OH259182   0.861   2.069   0.914 -0.7184  0.7496 -0.1890
12564TIP3    H159183   0.911   2.077   0.833  1.9303  0.1818  1.3212
12564TIP3    H259184   0.904   1.997   0.961 -1.9930  1.2900  1.8572
12565TIP3   OH259185   5.787   6.816   3.079  0.1219  0.1659 -0.7917
12565TIP3    H159186   5.807   6.848   2.991 -2.0571  2.1334 -0.6364
12565TIP3    H259187   5.844   6.867   3.137 -0.6807  1.1287 -0.8379
12566TIP3   OH259188   4.368   0.939   1.844  0.3709  0.2702 -0.3931
12566TIP3    H159189   4.415   0.914   1.764 -0.2134 -1.3020 -0.2435
12566TIP3    H259190   4.357   0.858   1.893 -3.1780  0.4383 -0.7822
12567TIP3   OH259191   4.055   0.614  15.963 -0.4976 -0.8219 -0.0416
12567TIP3    H159192   3.998   0.689  15.946 -0.0726 -0.4833  0.0110
12567TIP3    H259193   4.050   0.562  15.883 -0.3232 -0.4251 -0.3121
12568TIP3   OH259194   0.897   1.057   3.109 -0.3244 -0.4311  0.0767
12568TIP3    H159195   0.900   0.995   3.182 -1.3742  0.1336  0.6043
12568TIP3    H259196   0.983   1.048   3.067  0.1480 -1.0331  1.1481
12569TIP3   OH259197   5.019   5.282   3.239  0.2472  0.0710  0.0779
12569TIP3    H159198   5.104   5.260   3.277 -0.3036  0.0621  1.3487
12569TIP3    H259199   4.957   5.225   3.286 -0.4581  0.0574 -0.8530
12570TIP3   OH259200   1.912   0.311  13.712  0.2450  0.1101  0.4957
12570TIP3    H159201   1.817   0.313  13.704  0.3437 -1.3987 -1.4938
12570TIP3    H259202   1.944   0.312  13.621  2.1546  1.8642  1.1581
12571TIP3   OH259203   2.156   6.518  12.865 -0.4612 -0.6915  0.0357
12571TIP3    H159204   2.176   6.465  12.788 -0.0162 -0.5470  0.0483
12571TIP3    H259205   2.135   6.605  12.830 -1.8192 -1.0300 -0.0330
12572TIP3   OH259206   1.950   1.558   3.011 -0.1496  0.4494  0.0359
12572TIP3    H159207   1.947   1.644   2.969  0.3517  0.6268  0.3540
12572TIP3    H259208   1.884   1.507   2.966 -0.5470  1.0475 -0.0671
12573TIP3   OH259209   2.639   4.263   5.916  0.0943  0.1396 -0.4480
12573TIP3    H159210   2.728   4.242   5.944  0.1656  1.8408  0.6951
12573TIP3    H259211   2.583   4.207   5.970  0.4299  0.0576 -0.1834
12574TIP3   OH259212   0.318   5.989   5.005  0.2713  0.3190 -0.4560
12574TIP3    H159213   0.242   5.980   5.063  0.9308  0.9446  0.5134
12574TIP3    H259214   0.393   5.984   5.063  1.0285 -1.3745 -1.5417
12575TIP3   OH259215   5.809   6.042   4.178  0.2733  0.2409  0.5693
12575TIP3    H159216   5.802   6.107   4.109 -0.2731  0.3314  0.7060
12575TIP3    H259217   5.898   6.008   4.171  0.2280  0.2715 -0.1573
12576TIP3   OH259218   3.217   2.855  11.621 -0.6909  0.2065  0.5694
12576TIP3    H159219   3.199   2.948  11.605 -1.5100  0.6612  3.7098
12576TIP3    H259220   3.132   2.819  11.645 -0.5205 -1.5711 -1.3686
12577TIP3   OH259221   5.651   2.307  13.949  0.1074  0.3291  0.4902
12577TIP3    H159222   5.562   2.279  13.926  1.0788 -1.9175 -0.7183
12577TIP3    H259223   5.668   2.266  14.034  1.4056 -2.6680 -1.1234
12578TIP3   OH259224   1.376   0.871  14.566 -0.7936  0.0432 -0.6034
12578TIP3    H159225   1.360   0.934  14.496 -0.3446  0.2605 -0.5063
12578TIP3    H259226   1.289   0.834  14.584 -0.8596 -0.2521 -1.4973
12579TIP3   OH259227   6.366   6.770   2.145 -0.2790  0.5664 -0.1973
12579TIP3    H159228   6.353   6.703   2.078  1.7579  0.9880 -1.0517
12579TIP3    H259229   6.282   6.775   2.191 -1.0395 -1.2153 -1.3510
12580TIP3   OH259230   0.174   1.016  15.208 -0.2398 -0.1190 -0.0046
12580TIP3    H159231   0.126   1.095  15.186 -1.1108 -0.2786  1.3075
12580TIP3    H259232   0.106   0.951  15.226  0.4672 -1.0774 -0.7419
12581TIP3   OH259233   2.033   0.495   2.477  0.6787  0.2524 -0.2056
12581TIP3    H159234   2.041   0.467   2.568  1.5684  0.6384 -0.1593
12581TIP3    H259235   2.035   0.414   2.426  1.8445  0.1358  0.0132
12582TIP3   OH259236   0.682   4.612   0.366 -0.4214 -0.3000 -0.0144
12582TIP3    H159237   0.663   4.642   0.454  0.0122  0.8375 -0.2985
12582TIP3    H259238   0.655   4.685   0.309 -2.2272 -1.6530 -0.9477
12583TIP3   OH259239   4.031   2.929  14.041 -0.1570 -0.2020 -0.0655
12583TIP3    H159240   4.081   2.908  14.120  2.2990 -1.4374 -1.8557
12583TIP3    H259241   4.057   3.019  14.019 -0.2360 -0.1375  0.1075
12584TIP3   OH259242   1.373   0.236   5.726 -0.1348  0.1465  0.3211
12584TIP3    H159243   1.363   0.330   5.719  2.4988  0.6956  2.7130
12584TIP3    H259244   1.356   0.217   5.818 -0.3085 -1.6511 -0.0619
12585TIP3   OH259245   5.353   0.488  14.881  0.0344 -0.7446 -0.3692
12585TIP3    H159246   5.342   0.537  14.799 -1.6705 -0.0147  0.2749
12585TIP3    H259247   5.435   0.440  14.869  0.0569 -0.2762 -2.3150
12586TIP3   OH259248   2.550   6.555  12.659 -0.0410  0.1547 -0.2578
12586TIP3    H159249   2.605   6.593  12.727 -0.6092  0.7837 -0.1464
12586TIP3    H259250   2.500   6.487  12.704 -1.2186  1.3114  0.1981
12587TIP3   OH259251   0.413   4.014   4.428 -0.1105 -0.8231 -0.3565
12587TIP3    H159252   0.397   3.968   4.510 -1.0406  1.4438  0.7972
12587TIP3    H259253   0.326   4.040   4.398  0.3703  0.0358 -1.0459
12588TIP3   OH259254   2.761   0.891   3.318 -0.4284 -0.3114  0.2703
12588TIP3    H159255   2.679   0.938   3.301 -0.7743  0.0038  2.6311
12588TIP3    H259256   2.830   0.956   3.301 -0.7492 -0.0926 -0.1714
12589TIP3   OH259257   6.687   6.029  13.496  0.1109  0.6707 -0.1601
12589TIP3    H159258   6.677   6.047  13.402 -0.8160  0.2945 -0.1437
12589TIP3    H259259   6.731   6.106  13.531 -0.3085  1.1830 -0.7507
12590TIP3   OH259260   4.917   5.714   2.704 -0.4716 -0.3099 -0.2124
12590TIP3    H159261   4.877   5.778   2.646 -1.1815 -0.5912 -0.0330
12590TIP3    H259262   4.937   5.764   2.784 -1.3303 -0.3950  0.0519
12591TIP3   OH259263   6.393   2.292  12.344  0.0195  0.1166 -0.2066
12591TIP3    H159264   6.335   2.306  12.419  0.2486 -1.8822  0.3687
12591TIP3    H259265   6.374   2.203  12.316  1.9426 -0.1265 -0.7751
12592TIP3   OH259266   5.284   3.783  13.072 -0.3718  0.3676  0.6563
12592TIP3    H159267   5.364   3.834  13.062  1.1891 -2.6222 -3.4204
12592TIP3    H259268   5.220   3.826  13.016 -0.7624  1.0532  1.6160
12593TIP3   OH259269   5.289   2.747   0.997  0.7409 -0.0190 -0.3108
12593TIP3    H159270   5.349   2.739   1.071  1.3401 -0.8340 -0.8723
12593TIP3    H259271   5.322   2.684   0.933  1.2716  1.9352 -1.9906
12594TIP3   OH259272   3.098   3.337   1.554  0.6496  0.0549 -0.3440
12594TIP3    H159273   3.047   3.318   1.633  1.0601 -2.8001 -0.7267
12594TIP3    H259274   3.180   3.290   1.566  2.2549  2.6341 -0.8359
12595TIP3   OH259275   1.455   0.959  16.656 -0.5351 -0.8641 -0.3670
12595TIP3    H159276   1.371   0.933  16.695  0.0696 -0.7437  1.0356
12595TIP3    H259277   1.490   0.878  16.619 -0.2104 -1.3784  1.0585
12596TIP3   OH259278   2.097   4.581  13.371  0.3030 -0.9480  0.6635
12596TIP3    H159279   2.047   4.571  13.290  0.6229  0.5077  0.2819
12596TIP3    H259280   2.092   4.674  13.392  2.9657 -0.7410  0.5346
12597TIP3   OH259281   0.467   5.842  15.231  0.1532 -0.3754 -0.0595
12597TIP3    H159282   0.465   5.869  15.323 -0.4363  0.5264 -0.3348
12597TIP3    H259283   0.394   5.888  15.191 -0.5618 -2.0200 -0.6529
12598TIP3   OH259284   3.356   0.614   2.925  0.6821  0.2613 -0.8595
12598TIP3    H159285   3.304   0.692   2.944  0.9379  0.5597 -1.3672
12598TIP3    H259286   3.447   0.644   2.928  0.9040 -0.5522  1.3856
12599TIP3   OH259287   3.876   0.364   3.998  0.5119 -0.0987  0.7114
12599TIP3    H159288   3.891   0.458   4.000 -0.3230  0.0376  0.4950
12599TIP3    H259289   3.783   0.354   3.979  1.1829 -0.9861 -2.5557
12600TIP3   OH259290   2.868   6.345   3.169 -0.1445 -0.0022 -0.0650
12600TIP3    H159291   2.850   6.419   3.111  1.1174 -0.3847 -0.9645
12600TIP3    H259292   2.911   6.384   3.245  0.2939  0.2275 -0.4283
12601TIP3   OH259293   1.425   1.219   2.975 -0.6633  0.3552 -0.0981
12601TIP3    H159294   1.398   1.258   2.892 -1.3712  1.8014  0.7911
12601TIP3    H259295   1.468   1.290   3.022  2.1706 -1.1730 -0.3181
12602TIP3   OH259296   6.139   2.808   0.359 -0.6136  0.4378 -0.2858
12602TIP3    H159297   6.160   2.900   0.376  0.5589  0.5222 -2.1151
12602TIP3    H259298   6.217   2.760   0.387 -1.0026  0.0355  0.1252
12603TIP3   OH259299   3.459   6.203   4.456 -0.0979 -0.2663  0.4081
12603TIP3    H159300   3.500   6.287   4.435  0.0074 -0.5218 -0.4157
12603TIP3    H259301   3.515   6.167   4.525  0.2409  0.0341  0.2938
12604TIP3   OH259302   2.001   3.372   6.003  0.2198  0.4567 -0.2421
12604TIP3    H159303   2.027   3.290   6.044  0.2279  0.7616  0.3655
12604TIP3    H259304   1.908   3.361   5.983 -0.4910  1.3444  2.4025
12605TIP3   OH259305   5.535   2.936   1.085 -0.4742 -0.3434 -0.0688
12605TIP3    H159306   5.462   2.901   1.137 -0.2435 -1.2791 -0.3767
12605TIP3    H259307   5.496   3.008   1.036 -1.5104 -1.6509 -1.1993
12606TIP3   OH259308   0.856   5.549  13.419 -0.2588 -0.1466 -0.5476
12606TIP3    H159309   0.790   5.581  13.357 -0.0166 -0.4373 -0.9618
12606TIP3    H259310   0.805   5.503  13.486 -0.4278 -1.1463 -1.3389
12607TIP3   OH259311   6.339   4.403  12.498 -0.1175 -0.8658  0.6292
12607TIP3    H159312   6.375   4.476  12.549  0.8474 -0.3331 -0.7963
12607TIP3    H259313   6.391   4.401  12.418  0.5329 -3.7737  1.0734
12608TIP3   OH259314   3.046   6.004  14.987  0.0866 -0.3847 -0.6612
12608TIP3    H159315   3.139   6.023  14.968  0.6787 -2.0782  0.5306
12608TIP3    H259316   3.033   6.037  15.076 -0.0848 -1.4248 -0.3030
12609TIP3   OH259317   4.472   6.446  13.169  0.0652  0.1150  0.3741
12609TIP3    H159318   4.449   6.438  13.261 -0.7895 -0.0909  0.1452
12609TIP3    H259319   4.431   6.370  13.127  2.3065 -1.0346  0.1785
12610TIP3   OH259320   4.503   6.543   4.531  0.1321  0.0988 -0.0690
12610TIP3    H159321   4.477   6.451   4.523 -0.5156  0.0969  1.8546
12610TIP3    H259322   4.597   6.539   4.551 -0.0414 -0.1760  0.7109
12611TIP3   OH259323   0.121   3.666   3.780 -0.1642  0.1603 -0.5975
12611TIP3    H159324   0.131   3.753   3.819 -1.6212 -0.1701  0.5129
12611TIP3    H259325   0.119   3.683   3.686  1.8533  1.1023 -0.5002
12612TIP3   OH259326   0.772   2.502   1.905  0.0844 -0.5103  0.6073
12612TIP3    H159327   0.834   2.444   1.950  0.8614 -0.2933 -0.1842
12612TIP3    H259328   0.826   2.554   1.846 -0.4672  1.7704  2.0676
12613TIP3   OH259329   0.065   0.198   0.262 -0.0739  0.4451  0.6728
12613TIP3    H159330   0.061   0.135   0.333  1.3221 -2.5521 -1.7768
12613TIP3    H259331   0.155   0.231   0.264 -0.1792  0.7352  0.6340
12614TIP3   OH259332   5.047   3.131   4.904 -0.7235 -0.1365  0.0107
12614TIP3    H159333   5.111   3.060   4.898  0.1854  0.6511  0.3437
12614TIP3    H259334   5.079   3.198   4.843 -1.0955  0.3692  0.3672
12615TIP3   OH259335   0.916   2.441   0.286 -0.2985 -0.0045 -0.4464
12615TIP3    H159336   0.967   2.446   0.367  1.2755  0.1077 -1.4341
12615TIP3    H259337   0.846   2.379   0.307  0.8678 -1.0142  0.5964
12616TIP3   OH259338   2.119   0.553  14.729  0.3147  0.3043 -0.3546
12616TIP3    H159339   2.147   0.592  14.812 -1.3454  1.2566 -0.2252
12616TIP3    H259340   2.121   0.626  14.667 -0.2909  0.0089 -0.7211
12617TIP3   OH259341   0.834   5.177  16.167  0.1546 -0.4917  0.1958
12617TIP3    H159342   0.765   5.142  16.223 -0.9120  0.7213 -0.3418
12617TIP3    H259343   0.848   5.266  16.200  1.3042 -0.6488  0.1509
12618TIP3   OH259344   1.143   4.865  11.183  0.6941 -0.4907 -0.7921
12618TIP3    H159345   1.065   4.915  11.157  1.8249  0.5428 -2.2384
12618TIP3    H259346   1.156   4.802  11.111  1.5844 -0.2214 -0.8644
12619TIP3   OH259347   1.402   0.629  15.041  0.9185  0.0548 -0.0049
12619TIP3    H159348   1.322   0.643  14.991  0.2222 -2.2866  0.4015
12619TIP3    H259349   1.473   0.652  14.981  0.0173 -0.2940 -1.2095
12620TIP3   OH259350   5.964   4.581   1.932  0.5423 -0.0074 -0.0472
12620TIP3    H159351   5.946   4.518   1.862  1.5798 -0.3197 -0.0417
12620TIP3    H259352   5.986   4.526   2.007  0.6915  0.3525  0.1705
12621TIP3   OH259353   3.308   1.658  13.996 -0.5702 -0.1230 -0.1738
12621TIP3    H159354   3.332   1.686  13.907 -3.9379  1.7346 -0.6080
12621TIP3    H259355   3.310   1.739  14.047 -1.5871 -0.6463  0.7102
12622TIP3   OH259356   5.485   2.209   2.047  0.3201  0.0290  0.2879
12622TIP3    H159357   5.465   2.290   2.095 -0.4819  0.7952 -1.2955
12622TIP3    H259358   5.404   2.159   2.050 -0.4435  1.0445 -2.0774
12623TIP3   OH259359   5.671   5.894   3.784 -0.5333  0.2513 -0.2314
12623TIP3    H159360   5.642   5.984   3.766  0.1467  0.0972 -2.2616
12623TIP3    H259361   5.747   5.904   3.841 -2.0793  0.8320  1.7657
12624TIP3   OH259362   6.529   1.207   0.193  0.2781 -0.0122  0.3141
12624TIP3    H159363   6.445   1.173   0.164  0.0392  0.3638  0.5495
12624TIP3    H259364   6.530   1.192   0.288 -0.6881  2.3867  0.7598
12625TIP3   OH259365   2.069   2.393   3.402  0.1508  0.0221  0.7372
12625TIP3    H159366   2.030   2.372   3.317  0.8258  0.4017  0.3309
12625TIP3    H259367   2.063   2.312   3.452 -1.9371  0.2929  0.9865
12626TIP3   OH259368   4.908   2.810   4.018  0.2190  0.2868  0.5335
12626TIP3    H159369   4.906   2.745   3.947 -2.3395  0.1284  0.7297
12626TIP3    H259370   4.875   2.891   3.977  2.4831  1.2578  0.5414
12627TIP3   OH259371   4.626   6.547  17.200 -0.3448  0.3636  0.0680
12627TIP3    H159372   4.659   6.612  17.261 -0.5006  0.0643  0.4714
12627TIP3    H259373   4.552   6.590  17.157  0.3413  0.9112 -0.5926
12628TIP3   OH259374   5.459   2.674   6.508  0.3295 -0.1680 -0.3585
12628TIP3    H159375   5.404   2.597   6.526 -0.6623  0.7906  0.8405
12628TIP3    H259376   5.524   2.643   6.445 -0.3776 -1.8528 -0.2911
12629TIP3   OH259377   6.736   0.429   6.121 -0.6850 -0.6694 -0.6985
12629TIP3    H159378   6.817   0.474   6.147 -0.9623  0.8135 -2.3229
12629TIP3    H259379   6.738   0.347   6.170  1.0909 -0.0206  0.3935
12630TIP3   OH259380   1.789   2.636  16.907  0.0630  0.0935  0.2950
12630TIP3    H159381   1.853   2.706  16.914  0.8268 -0.5837  0.1011
12630TIP3    H259382   1.837   2.562  16.871 -0.3500 -1.0440  2.0089
12631TIP3   OH259383   6.305   2.563  16.255  0.0054 -0.4107  0.2042
12631TIP3    H159384   6.249   2.490  16.227 -0.1572 -0.5704  0.9294
12631TIP3    H259385   6.274   2.584  16.343  2.1580 -1.6070  1.2874
12632TIP3   OH259386   4.990   5.400  11.977  0.2916 -0.4362  0.5796
12632TIP3    H159387   4.927   5.439  11.917 -1.5348 -1.1141  1.9829
12632TIP3    H259388   5.060   5.464  11.984 -1.1312  1.1888  0.3864
12633TIP3   OH259389   4.345   6.164   1.024 -0.4924 -0.2984  0.6100
12633TIP3    H159390   4.368   6.170   1.116 -0.2557  1.7246  0.4314
12633TIP3    H259391   4.428   6.141   0.981 -0.1590  0.8126  0.6640
12634TIP3   OH259392   1.793   6.770  11.500  0.1130  0.7078 -0.8563
12634TIP3    H159393   1.841   6.852  11.513 -0.3907  1.1377 -1.6395
12634TIP3    H259394   1.851   6.716  11.446 -0.1212  1.0910 -1.5015
12635TIP3   OH259395   4.489   0.345  11.507 -0.3080 -0.2864  0.5378
12635TIP3    H159396   4.429   0.377  11.575  1.0899  3.7162  0.0093
12635TIP3    H259397   4.454   0.380  11.425  1.1419 -0.3521 -0.1176
12636TIP3   OH259398   2.808   5.717  11.442 -0.8259 -0.1614  0.0307
12636TIP3    H159399   2.882   5.732  11.383  0.5276 -2.9595  0.9207
12636TIP3    H259400   2.844   5.729  11.530 -1.6054 -0.8357  0.4519
12637TIP3   OH259401   2.585   2.653  16.637  0.8708  0.4808  0.3413
12637TIP3    H159402   2.667   2.621  16.676  1.7838  2.5788  0.2268
12637TIP3    H259403   2.533   2.684  16.711  0.5324 -0.0886  0.3379
12638TIP3   OH259404   2.972   1.050   3.272  0.7443  0.3039  0.7627
12638TIP3    H159405   3.038   1.078   3.335  0.7744 -0.8679  1.2650
12638TIP3    H259406   2.964   1.123   3.211  1.5418  0.9831  1.4697
12639TIP3   OH259407   1.214   3.971   5.711 -0.1230  0.1545  0.1012
12639TIP3    H159408   1.203   4.016   5.628  0.6871  0.3980  0.1207
12639TIP3    H259409   1.309   3.965   5.722 -0.2302 -0.4268  0.7062
12640TIP3   OH259410   5.178   0.020  12.382 -0.0444  0.3895 -0.1596
12640TIP3    H159411   5.146   0.077  12.312 -0.9290  1.6128  1.2010
12640TIP3    H259412   5.112  -0.048  12.391  0.3613 -0.1112 -0.8922
12641TIP3   OH259413   1.664   3.180   0.515  0.1759  0.0461 -0.0339
12641TIP3    H159414   1.621   3.168   0.430 -0.3389  1.5712  0.0003
12641TIP3    H259415   1.654   3.095   0.559 -1.2567 -0.1560 -0.7220
12642TIP3   OH259416   1.776   0.730   0.817  0.3607  0.0225  0.1508
12642TIP3    H159417   1.709   0.784   0.774 -0.2888  0.0002  1.1290
12642TIP3    H259418   1.858   0.755   0.773 -0.1541  0.6779 -0.4582
12643TIP3   OH259419   5.820   2.401  16.735 -0.2825  0.1065 -0.2876
12643TIP3    H159420   5.811   2.306  16.744  0.0818  0.1925  1.0164
12643TIP3    H259421   5.747   2.437  16.785 -0.2484  0.5198 -0.5338
12644TIP3   OH259422   2.814   0.777   4.329 -0.2714 -0.1522  0.6425
12644TIP3    H159423   2.862   0.703   4.293 -1.4607 -0.8866  0.5267
12644TIP3    H259424   2.744   0.793   4.266 -0.3103  0.7582  0.9125
12645TIP3   OH259425   5.293   1.795  12.679  0.4356 -0.2330 -0.1697
12645TIP3    H159426   5.338   1.836  12.606 -1.1122  1.2929 -0.2907
12645TIP3    H259427   5.259   1.713  12.643 -1.4709  1.1222 -1.5809
12646TIP3   OH259428   5.766   0.050   0.586 -0.1727  0.0832 -0.0237
12646TIP3    H159429   5.790   0.008   0.668  0.3225 -0.3296 -0.3750
12646TIP3    H259430   5.780   0.144   0.601 -0.2484  0.0226  0.4148
12647TIP3   OH259431   4.743   0.588   4.003 -0.3337  0.6675 -0.2186
12647TIP3    H159432   4.783   0.585   3.916 -1.1486 -0.9931 -0.5599
12647TIP3    H259433   4.684   0.663   3.999 -1.3081 -0.1366 -1.5524
12648TIP3   OH259434   0.421   0.107  14.890  0.0527  0.3170  0.0551
12648TIP3    H159435   0.420   0.100  14.985  2.2189  1.8756  0.2447
12648TIP3    H259436   0.482   0.039  14.861  0.1681  0.5018 -0.1391
12649TIP3   OH259437   5.590   0.456  17.120 -0.3147  0.0375 -0.6663
12649TIP3    H159438   5.540   0.532  17.151  1.0342  1.4766 -1.9152
12649TIP3    H259439   5.587   0.464  17.025  3.4116  0.9253 -0.7642
12650TIP3   OH259440   6.206   1.878  10.771 -0.1068 -0.2837 -0.1726
12650TIP3    H159441   6.255   1.848  10.847 -1.0450 -0.3918  0.3994
12650TIP3    H259442   6.268   1.931  10.721  1.7641 -3.5217 -1.4529
12651TIP3   OH259443   6.306   6.341  14.204 -0.0926  0.3355  0.3457
12651TIP3    H159444   6.344   6.278  14.143 -0.4624  0.4163  0.0347
12651TIP3    H259445   6.322   6.303  14.291  1.5538  0.8217  0.2747
12652TIP3   OH259446   6.483   1.626   6.135 -0.3474 -0.4818 -0.0483
12652TIP3    H159447   6.543   1.610   6.207 -0.2292 -0.8831 -0.2351
12652TIP3    H259448   6.537   1.622   6.056 -0.7490 -1.5892 -0.2703
12653TIP3   OH259449   5.420   2.749   4.158  0.0234  0.0664 -0.7599
12653TIP3    H159450   5.346   2.741   4.097 -0.2876  1.1861 -0.5391
12653TIP3    H259451   5.490   2.697   4.118 -0.8494 -0.9472 -1.0153
12654TIP3   OH259452   4.560   6.521   0.682  0.1550  0.0014  0.0877
12654TIP3    H159453   4.645   6.524   0.725  1.3448 -0.9600 -2.1367
12654TIP3    H259454   4.530   6.431   0.694 -0.5656  0.3402  0.8706
12655TIP3   OH259455   0.693   0.348   5.237  0.1276 -0.5713 -0.1987
12655TIP3    H159456   0.761   0.348   5.170  1.0397 -1.4702  0.7186
12655TIP3    H259457   0.655   0.260   5.234  1.5544 -1.2856  1.8318
12656TIP3   OH259458   0.582   0.132  14.164 -0.2148  0.2003 -0.3499
12656TIP3    H159459   0.516   0.064  14.174 -0.1268  0.5316  3.7017
12656TIP3    H259460   0.536   0.214  14.182  1.0483  0.5031  1.7436
12657TIP3   OH259461   5.896   5.536   3.924 -0.2582  0.1354  0.1946
12657TIP3    H159462   5.888   5.554   3.830 -0.6063  1.2013  0.4188
12657TIP3    H259463   5.914   5.621   3.963  1.7030 -0.5961  0.9131
12658TIP3   OH259464   5.887   5.627  13.759 -0.3952 -0.5090  0.2654
12658TIP3    H159465   5.921   5.624  13.670 -0.3520 -0.2811  0.2736
12658TIP3    H259466   5.831   5.705  13.761 -1.2734 -1.1349  0.1217
12659TIP3   OH259467   4.687   4.209  12.905  0.9849 -0.5920  0.5369
12659TIP3    H159468   4.742   4.234  12.831  1.3784  0.1249  1.0731
12659TIP3    H259469   4.669   4.291  12.951 -1.7266 -0.5915 -0.4517
12660TIP3   OH259470   2.165   5.391  16.659 -0.1697  0.7043  0.3996
12660TIP3    H159471   2.243   5.418  16.708 -1.5166  2.1582  1.7969
12660TIP3    H259472   2.095   5.387  16.724 -1.1495 -1.2098 -0.7222
12661TIP3   OH259473   0.546   2.823  17.122 -0.2326 -0.3054  0.6119
12661TIP3    H159474   0.479   2.765  17.086  0.2084 -0.3262 -0.1738
12661TIP3    H259475   0.613   2.765  17.158  1.0275 -0.3115 -1.6709
12662TIP3   OH259476   2.351   1.574  13.672  0.4336  0.0977 -0.4226
12662TIP3    H159477   2.383   1.533  13.753 -1.5357 -1.7646 -0.5466
12662TIP3    H259478   2.361   1.668  13.687  1.9211 -0.2909  1.2065
12663TIP3   OH259479   1.176   4.743   1.848  0.0816 -0.0579 -0.1831
12663TIP3    H159480   1.195   4.823   1.896  0.8640  0.6954 -1.7035
12663TIP3    H259481   1.263   4.705   1.830 -0.2874 -1.3657  0.7170
12664TIP3   OH259482   1.575   0.464   6.189 -0.1051 -0.2219  0.5192
12664TIP3    H159483   1.571   0.508   6.274 -0.6457  0.0467  0.3615
12664TIP3    H259484   1.540   0.377   6.207 -0.8918  0.0685  0.4327
12665TIP3   OH259485   2.744   0.624   5.223 -0.0568 -0.4995 -0.0668
12665TIP3    H159486   2.727   0.530   5.218  1.1542 -0.7757  0.7723
12665TIP3    H259487   2.805   0.633   5.296 -0.7672  1.0264  0.3393
12666TIP3   OH259488   5.614   5.874   3.511  0.1979  0.0468 -0.4138
12666TIP3    H159489   5.633   5.858   3.603  1.4179  2.2325 -0.2711
12666TIP3    H259490   5.540   5.935   3.512  2.5596  2.9657 -0.8257
12667TIP3   OH259491   5.902   3.325  13.190  0.8440 -0.1465 -0.2132
12667TIP3    H159492   5.997   3.334  13.179  0.5798  1.3634 -1.3611
12667TIP3    H259493   5.864   3.378  13.120 -0.8588 -0.0026  0.7879
12668TIP3   OH259494   0.829   2.162   3.800  0.1219 -0.4795 -0.0273
12668TIP3    H159495   0.925   2.167   3.802  0.1443 -0.9726  0.2376
12668TIP3    H259496   0.805   2.138   3.889 -0.3238  0.8811  0.2134
12669TIP3   OH259497   4.550   1.315   3.635 -0.0710  0.4490  0.0227
12669TIP3    H159498   4.481   1.248   3.641 -0.2874  0.5278 -1.3978
12669TIP3    H259499   4.503   1.396   3.613  0.2536  0.9496  1.1644
12670TIP3   OH259500   5.316   3.544   5.154 -0.0571  0.3218 -0.5516
12670TIP3    H159501   5.240   3.532   5.097  0.5275 -1.3996 -1.0042
12670TIP3    H259502   5.341   3.635   5.142 -1.3958  0.6118 -1.2281
12671TIP3   OH259503   3.816   0.834  15.574  0.6053 -0.2883 -0.4464
12671TIP3    H159504   3.861   0.762  15.619  0.7139  0.1363  0.1307
12671TIP3    H259505   3.878   0.862  15.507  1.2423  0.3477  0.3991
12672TIP3   OH259506   5.646   6.292  11.650  0.7164 -0.1964 -0.4283
12672TIP3    H159507   5.675   6.282  11.560  0.7940  0.4483 -0.4709
12672TIP3    H259508   5.558   6.330  11.644 -0.2825 -2.3796 -0.3079
12673TIP3   OH259509   2.546   5.611  16.287  0.5343 -0.2167 -0.1168
12673TIP3    H159510   2.500   5.557  16.352  2.0590  0.2442  1.3690
12673TIP3    H259511   2.498   5.693  16.286  0.6437 -0.1414  0.6065
12674TIP3   OH259512   1.572   4.474   0.846 -0.2666  0.0290  0.4500
12674TIP3    H159513   1.661   4.462   0.812  0.3194  2.8775  0.8430
12674TIP3    H259514   1.521   4.503   0.770 -0.4235  0.2485  0.6399
12675TIP3   OH259515   2.407   5.086  13.195  0.3906 -0.2096 -0.0826
12675TIP3    H159516   2.325   5.121  13.159  0.0243 -0.8868  0.0891
12675TIP3    H259517   2.411   5.121  13.284  1.0706  1.0963 -0.6112
12676TIP3   OH259518   2.106   2.481  17.112  0.1229 -0.0831 -0.2785
12676TIP3    H159519   2.042   2.499  17.043 -0.4532  0.3481  0.3723
12676TIP3    H259520   2.061   2.502  17.194  1.6224  1.8393  0.1020
12677TIP3   OH259521   3.301   0.004  16.585  0.3738 -0.6098  0.0281
12677TIP3    H159522   3.373   0.066  16.577  0.3634 -0.4988  0.7903
12677TIP3    H259523   3.277  -0.017  16.495  0.1324  0.7603 -0.2358
12678TIP3   OH259524   0.784   5.133  14.736  0.6443  0.1718 -0.1571
12678TIP3    H159525   0.788   5.054  14.791 -0.3241  0.1631 -0.0863
12678TIP3    H259526   0.718   5.113  14.670  0.0135  1.1165  0.1770
12679TIP3   OH259527   3.973   6.551  12.528  0.1735  0.0434  0.0900
12679TIP3    H159528   4.033   6.593  12.590  1.1746  1.0043 -1.4903
12679TIP3    H259529   3.943   6.472  12.574  1.3708  0.4060  1.5489
12680TIP3   OH259530   1.932   5.452   4.253  0.0445  0.3211 -0.4674
12680TIP3    H159531   1.850   5.496   4.230 -0.4444 -0.4969 -0.2932
12680TIP3    H259532   1.909   5.396   4.327  0.5308 -0.6646 -1.0506
12681TIP3   OH259533   6.705   5.563   5.384 -0.3533 -0.9863 -0.3816
12681TIP3    H159534   6.722   5.550   5.478 -0.2644 -0.6971 -0.3565
12681TIP3    H259535   6.614   5.591   5.379 -0.4747 -1.3832 -0.4154
12682TIP3   OH259536   5.488   2.511   5.533 -0.0232  0.0017  0.0235
12682TIP3    H159537   5.548   2.467   5.472 -0.3392  0.1198 -0.3721
12682TIP3    H259538   5.436   2.440   5.570  0.4776 -0.1232  0.5046
12683TIP3   OH259539   5.239   0.585  11.862 -0.2400 -0.3007 -0.7359
12683TIP3    H159540   5.314   0.636  11.831  0.9370 -1.2228  0.5615
12683TIP3    H259541   5.230   0.610  11.954 -0.5587 -1.3704 -0.4754
12684TIP3   OH259542   6.808   1.233   5.676 -0.4729 -0.0414  0.1904
12684TIP3    H159543   6.731   1.177   5.661 -1.2211  0.5033  1.8732
12684TIP3    H259544   6.852   1.193   5.752  0.7755 -0.1998 -0.6110
12685TIP3   OH259545   1.145   2.154   2.075  0.1926 -0.1976  0.6259
12685TIP3    H159546   1.114   2.242   2.096  0.6738  0.3122 -0.7108
12685TIP3    H259547   1.071   2.097   2.096 -0.2288  0.5597  1.2213
12686TIP3   OH259548   1.696   3.794  11.209  0.1345  0.0075  0.2060
12686TIP3    H159549   1.718   3.715  11.160 -0.2641 -0.6244  1.0212
12686TIP3    H259550   1.603   3.784  11.228  0.6727 -0.6273  2.6244
12687TIP3   OH259551   6.614   5.157   3.393  0.2620 -0.4241  0.4452
12687TIP3    H159552   6.674   5.228   3.372  0.4413 -0.4047  1.0098
12687TIP3    H259553   6.621   5.097   3.318 -2.1876  1.6158 -1.5252
12688TIP3   OH259554   1.230   6.551  10.846  0.1486 -0.3582  0.4978
12688TIP3    H159555   1.259   6.551  10.937  1.4529  0.8081  0.1133
12688TIP3    H259556   1.264   6.634  10.811  1.3714 -1.6913 -1.5648
12689TIP3   OH259557   4.822   4.753  12.216 -0.3366 -0.7059 -0.2647
12689TIP3    H159558   4.903   4.753  12.268 -1.2352 -1.0771  1.1607
12689TIP3    H259559   4.795   4.845  12.215 -0.8562 -0.8412  0.7935
12690TIP3   OH259560   1.082   4.874   4.556 -0.2005 -0.0209 -0.5662
12690TIP3    H159561   1.004   4.930   4.559 -0.3395 -0.2975  2.1385
12690TIP3    H259562   1.141   4.911   4.622 -0.3339 -3.0529  1.3495
12691TIP3   OH259563   5.913   5.156  16.483  0.0771 -0.2451 -0.6905
12691TIP3    H159564   5.819   5.155  16.462  0.7069 -0.8430 -3.7926
12691TIP3    H259565   5.927   5.077  16.535 -1.0504 -0.4147 -0.6288
12692TIP3   OH259566   2.449   1.763   5.623  0.2871  0.1872  0.5203
12692TIP3    H159567   2.424   1.762   5.715  0.7542 -1.0733  0.6375
12692TIP3    H259568   2.543   1.779   5.624 -0.2714  4.0664  0.1034
12693TIP3   OH259569   4.395   3.921   5.204 -0.1721 -0.4457  0.0562
12693TIP3    H159570   4.388   3.983   5.276 -1.7092 -1.4312  0.7834
12693TIP3    H259571   4.308   3.881   5.198  0.9124 -2.9229 -0.0230
12694TIP3   OH259572   5.617   0.052   5.500  0.4513 -0.1386  0.1535
12694TIP3    H159573   5.653   0.113   5.435  0.4211 -0.6722 -0.3758
12694TIP3    H259574   5.644   0.087   5.584 -0.2030  1.0228 -0.1013
12695TIP3   OH259575   4.445   0.364  14.555 -0.3204 -0.8052 -0.0667
12695TIP3    H159576   4.503   0.332  14.486  0.8131 -2.5360  1.6453
12695TIP3    H259577   4.371   0.303  14.554  0.4012 -1.7152  1.2033
12696TIP3   OH259578   4.139   3.994   5.905 -0.1478 -0.6301  0.3158
12696TIP3    H159579   4.170   4.078   5.872  0.4948 -1.3428 -0.9074
12696TIP3    H259580   4.205   3.930   5.877 -1.4772 -1.7979 -0.2525
12697TIP3   OH259581   0.107   1.759  13.495 -0.2855  0.7300 -0.1500
12697TIP3    H159582   0.181   1.749  13.435 -1.1581 -0.6541 -1.0335
12697TIP3    H259583   0.103   1.853  13.513  1.5745  0.8444 -0.2074
12698TIP3   OH259584   1.190   1.374   0.089  0.0903 -0.5356  0.5099
12698TIP3    H159585   1.118   1.327   0.132 -0.6010 -0.7269 -0.8375
12698TIP3    H259586   1.266   1.359   0.146 -1.1661  0.6199  2.5612
12699TIP3   OH259587   6.212   3.835   4.409  0.3203 -0.2897  1.5133
12699TIP3    H159588   6.169   3.758   4.372  2.6183 -0.8819 -0.0731
12699TIP3    H259589   6.269   3.800   4.477  2.3514 -0.2157 -0.0857
12700TIP3   OH259590   4.161   5.097   0.656 -0.2477  0.3430  0.3192
12700TIP3    H159591   4.136   5.005   0.643 -1.6289  0.5549  1.4013
12700TIP3    H259592   4.084   5.138   0.696  0.6011  1.8162  0.4856
12701TIP3   OH259593   4.341   1.321  13.540  0.3409 -0.0155  0.1911
12701TIP3    H159594   4.266   1.263  13.552 -0.6994  1.1096 -0.6582
12701TIP3    H259595   4.302   1.405  13.515  1.8886  0.5882 -0.2537
12702TIP3   OH259596   3.531   4.014   3.158 -0.0859  0.5661  0.6521
12702TIP3    H159597   3.539   3.981   3.069 -1.9134 -0.6417  0.9010
12702TIP3    H259598   3.522   4.109   3.148 -1.2463  0.3442 -0.5378
12703TIP3   OH259599   5.559   3.424  11.899  0.4399  0.2879  0.4806
12703TIP3    H159600   5.586   3.471  11.979 -0.1071 -0.9805  1.4242
12703TIP3    H259601   5.524   3.492  11.843  2.6275  1.5078  0.5160
12704TIP3   OH259602   5.857   1.975   0.960 -0.5804  0.9021  0.3834
12704TIP3    H159603   5.816   2.058   0.936 -0.4109  0.6606 -0.7556
12704TIP3    H259604   5.934   1.969   0.903 -0.3581  0.1600  0.7615
12705TIP3   OH259605   5.168   0.515   1.214 -0.4604  0.1802  0.3141
12705TIP3    H159606   5.192   0.587   1.272  3.8557 -2.3227  1.9131
12705TIP3    H259607   5.209   0.538   1.130 -0.6603  0.4394  0.2858
12706TIP3   OH259608   5.614   0.385   1.343  0.1054 -0.2865  0.3896
12706TIP3    H159609   5.548   0.320   1.321  0.6627 -0.0726 -2.0952
12706TIP3    H259610   5.568   0.451   1.395 -0.5660 -2.3955  2.5164
12707TIP3   OH259611   3.144   3.968  12.529 -0.0742 -0.0821 -0.5521
12707TIP3    H159612   3.162   3.977  12.623  0.4751 -0.2546 -0.6394
12707TIP3    H259613   3.209   4.024  12.487 -0.6095  0.3464 -0.8103
12708TIP3   OH259614   6.558   0.971  11.038 -0.3333 -0.7673 -0.3426
12708TIP3    H159615   6.467   0.974  11.010 -0.6316 -0.8931  0.6018
12708TIP3    H259616   6.595   0.896  10.990 -1.0186 -1.4077  0.1219
12709TIP3   OH259617   6.365   1.183  16.700  0.4345  0.7485  0.2635
12709TIP3    H159618   6.385   1.269  16.739 -0.5604  0.5339  1.2546
12709TIP3    H259619   6.442   1.130  16.720  1.4211  1.6316 -1.0718
12710TIP3   OH259620   5.115   6.779   4.246 -0.8971 -0.6815 -0.0743
12710TIP3    H159621   5.198   6.774   4.199 -2.0855 -0.7532 -2.1864
12710TIP3    H259622   5.117   6.866   4.288  0.2747 -0.7328 -0.0061
12711TIP3   OH259623   3.906   3.045  14.894 -0.4260 -0.5303 -0.1969
12711TIP3    H159624   3.959   3.050  14.815  0.2251 -1.5058  0.1726
12711TIP3    H259625   3.947   2.976  14.946 -0.8870  0.0608  0.9616
12712TIP3   OH259626   6.214   5.033  13.427 -0.0118  0.4843  0.0182
12712TIP3    H159627   6.125   5.035  13.463 -0.4122 -0.3628 -0.8648
12712TIP3    H259628   6.206   5.074  13.341  0.6120  1.0803  0.2382
12713TIP3   OH259629   4.627   4.410   3.493 -0.0312 -0.2521  0.1221
12713TIP3    H159630   4.625   4.318   3.470  1.0112  0.0020 -1.0580
12713TIP3    H259631   4.712   4.422   3.536 -0.6071 -0.0595  1.2104
12714TIP3   OH259632   2.087   5.440   5.007 -0.3560  0.6377 -0.0712
12714TIP3    H159633   2.173   5.424   4.969 -0.9949  0.0232 -1.2585
12714TIP3    H259634   2.076   5.371   5.072 -0.4249  0.0353 -0.7183
12715TIP3   OH259635   6.421   5.020  11.166  0.5752  0.6344 -0.4653
12715TIP3    H159636   6.354   5.074  11.206  0.1571  0.9668 -1.5895
12715TIP3    H259637   6.375   4.969  11.099  1.2247 -0.0260 -0.4233
12716TIP3   OH259638   2.185   4.705   5.041 -0.6984 -0.2621  0.3389
12716TIP3    H159639   2.242   4.716   5.117 -1.0209 -0.3026  0.5847
12716TIP3    H259640   2.243   4.717   4.966 -0.1664 -1.2840  0.5776
12717TIP3   OH259641   4.888   3.306  14.881 -0.6307 -0.5705  0.2127
12717TIP3    H159642   4.826   3.234  14.864 -0.0206 -1.2012  0.6157
12717TIP3    H259643   4.865   3.373  14.817 -0.9373 -1.3017 -0.4574
12718TIP3   OH259644   6.210   1.726  13.730  0.1189  0.2083  0.0943
12718TIP3    H159645   6.303   1.732  13.708  0.3199 -1.1842  0.5228
12718TIP3    H259646   6.171   1.676  13.658 -0.0394 -0.4360  0.6201
12719TIP3   OH259647   0.980   5.358   0.055 -0.3891  0.2184 -0.1028
12719TIP3    H159648   0.975   5.453   0.060 -2.6358  0.0097  2.4700
12719TIP3    H259649   1.054   5.335   0.112 -0.2999  0.3766 -0.1537
12720TIP3   OH259650   2.863   4.962   5.208 -0.4495  0.2783 -0.0329
12720TIP3    H159651   2.956   4.949   5.189 -0.8219 -0.0154 -1.7546
12720TIP3    H259652   2.837   4.884   5.256  0.2204  0.4168  0.5549
12721TIP3   OH259653   6.112   1.459   4.337  0.2398 -0.3856  0.0674
12721TIP3    H159654   6.017   1.444   4.337  0.3350 -1.1317 -2.7344
12721TIP3    H259655   6.122   1.549   4.366 -1.3851 -0.0346 -0.4312
12722TIP3   OH259656   0.773   6.403  13.187 -1.3120  0.2068 -0.3199
12722TIP3    H159657   0.714   6.339  13.227 -0.6755  0.3472  0.8694
12722TIP3    H259658   0.847   6.350  13.156 -1.3700  0.2071 -0.4557
12723TIP3   OH259659   4.789   4.661  13.977 -0.3609 -0.1012 -0.1569
12723TIP3    H159660   4.775   4.747  14.016  1.4101 -0.0098  0.2914
12723TIP3    H259661   4.830   4.680  13.893  1.7014 -0.5716  0.7273
12724TIP3   OH259662   5.223   5.652   4.105  0.1048  0.2208 -0.1268
12724TIP3    H159663   5.237   5.662   4.011  0.8495 -0.0181 -0.0452
12724TIP3    H259664   5.136   5.612   4.112  0.3412 -0.4258 -0.7544
12725TIP3   OH259665   3.117   0.075  13.646  0.5700  0.1065 -0.4385
12725TIP3    H159666   3.145   0.152  13.597  1.2209  0.0634 -0.1396
12725TIP3    H259667   3.108   0.105  13.736 -0.8901  0.2495 -0.6183
12726TIP3   OH259668   3.469   0.369   2.354  0.3012  0.1094 -0.0537
12726TIP3    H159669   3.522   0.433   2.403  0.0962 -0.2390  0.6332
12726TIP3    H259670   3.390   0.417   2.331 -0.5193 -0.3077  1.7608
12727TIP3   OH259671   0.496   1.241   4.738  0.0274  0.2855  0.0593
12727TIP3    H159672   0.586   1.270   4.726 -0.0297  0.8205  0.8859
12727TIP3    H259673   0.451   1.317   4.775 -0.7168 -0.0446 -0.1550
12728TIP3   OH259674   6.598   2.037   2.554 -0.3118  0.2561  0.2941
12728TIP3    H159675   6.611   1.943   2.545 -1.7122  0.1408 -0.6451
12728TIP3    H259676   6.674   2.076   2.511 -0.1647 -0.4421 -0.0846
12729TIP3   OH259677   4.650   4.081  16.698 -0.0987  0.1085  0.4233
12729TIP3    H159678   4.680   4.065  16.608 -1.3178 -0.7100  0.1526
12729TIP3    H259679   4.566   4.126  16.687  1.3337  3.1095  1.1740
12730TIP3   OH259680   3.083   4.383  17.095 -0.1207 -0.6425 -0.2234
12730TIP3    H159681   2.999   4.338  17.106 -0.4633  0.2841  1.0595
12730TIP3    H259682   3.066   4.474  17.120  0.8797 -0.0756 -1.5404
12731TIP3   OH259683   4.348   3.018  13.013  0.0751  0.3595 -0.2485
12731TIP3    H159684   4.382   2.930  12.999  0.1190  0.2838  0.3457
12731TIP3    H259685   4.416   3.062  13.063 -0.8637  0.0900  1.3040
12732TIP3   OH259686   6.189   2.881  15.187  0.0591 -0.0457  0.0616
12732TIP3    H159687   6.189   2.787  15.173  0.0901  0.1907 -1.6778
12732TIP3    H259688   6.254   2.915  15.125  0.9435  1.0152  1.5176
12733TIP3   OH259689   0.317   6.486  12.466 -0.3406 -0.4437  0.1097
12733TIP3    H159690   0.311   6.471  12.560 -0.8976  0.0470  0.1534
12733TIP3    H259691   0.229   6.465  12.433 -0.2283 -0.3315 -0.2591
12734TIP3   OH259692   5.146   6.265   3.784  1.0002  0.2996  0.0053
12734TIP3    H159693   5.159   6.172   3.803  1.0908  0.1807 -0.6135
12734TIP3    H259694   5.144   6.308   3.870  1.5621 -0.1942  0.2677
12735TIP3   OH259695   5.855   0.298  14.215 -0.0466  0.1265 -0.0610
12735TIP3    H159696   5.853   0.228  14.150  0.8043 -0.3738  0.4405
12735TIP3    H259697   5.914   0.266  14.283 -0.0550  1.1143  0.4232
12736TIP3   OH259698   2.722   4.334  15.976  0.3543  0.1720  0.6106
12736TIP3    H159699   2.755   4.244  15.966 -0.0039  0.2508 -1.6071
12736TIP3    H259700   2.773   4.385  15.913 -2.1854  0.7591 -1.0742
12737TIP3   OH259701   3.243   6.556  11.487  0.2650 -0.4346 -1.2448
12737TIP3    H159702   3.310   6.531  11.551 -1.2269 -0.6098  0.3090
12737TIP3    H259703   3.281   6.630  11.440  1.2192  0.0429  0.2169
12738TIP3   OH259704   5.296   3.647  12.769  0.4918 -0.4353 -0.0141
12738TIP3    H159705   5.334   3.683  12.689 -1.2592  0.5877 -0.4142
12738TIP3    H259706   5.259   3.723  12.814  0.2642 -1.1969  1.1021
12739TIP3   OH259707   0.031   6.571  15.780 -0.1876 -0.3578  0.0838
12739TIP3    H159708  -0.035   6.591  15.714 -0.1981 -1.4404 -0.2388
12739TIP3    H259709   0.002   6.489  15.820 -0.4475  0.5311  1.7998
12740TIP3   OH259710   5.840   4.190  16.607 -0.1615  0.5620  0.8883
12740TIP3    H159711   5.775   4.235  16.553  0.3087  0.3630  0.1579
12740TIP3    H259712   5.924   4.215  16.569  0.0933 -1.2926  0.2081
12741TIP3   OH259713   4.794   0.808  15.601  0.0776 -0.7134  0.1439
12741TIP3    H159714   4.819   0.764  15.682  0.1072 -0.1097  0.4624
12741TIP3    H259715   4.817   0.900  15.615 -0.9825 -0.4060 -0.1137
12742TIP3   OH259716   0.736   5.320  14.217  0.4093 -0.5450  0.2510
12742TIP3    H159717   0.716   5.358  14.131 -1.9368 -1.1906  0.4830
12742TIP3    H259718   0.724   5.226  14.205 -1.2878 -0.5279  1.6157
12743TIP3   OH259719   0.471   0.890  12.664 -0.4703  0.4631 -0.4792
12743TIP3    H159720   0.502   0.960  12.722 -0.5387  0.8999 -0.9714
12743TIP3    H259721   0.537   0.821  12.674 -0.5713  0.4643  0.2525
12744TIP3   OH259722   3.171   2.320   2.150  0.2212  0.6062 -0.3449
12744TIP3    H159723   3.179   2.356   2.238 -0.2681  0.4236 -0.2219
12744TIP3    H259724   3.237   2.251   2.145  0.4211  0.7886 -0.2093
12745TIP3   OH259725   6.293   5.878   4.540 -0.4400  0.0862  0.2422
12745TIP3    H159726   6.377   5.872   4.494 -0.8130  1.3778 -0.6178
12745TIP3    H259727   6.252   5.957   4.506 -2.1518 -0.6983  0.4204
12746TIP3   OH259728   4.743   2.417   2.004  0.1504  0.1880  0.1163
12746TIP3    H159729   4.816   2.362   2.034 -1.3537 -1.0210  1.6426
12746TIP3    H259730   4.767   2.506   2.032  2.0610  0.1786 -1.3697
12747TIP3   OH259731   2.282   4.389   1.638  0.1099  0.0688  0.2776
12747TIP3    H159732   2.245   4.354   1.557  1.2196 -2.8457  0.9675
12747TIP3    H259733   2.329   4.468   1.611 -1.9535  0.7410 -1.4419
12748TIP3   OH259734   2.280   3.668   3.064 -0.1513 -0.3038  0.1205
12748TIP3    H159735   2.287   3.672   3.159  0.2604 -0.8463  0.1229
12748TIP3    H259736   2.365   3.701   3.032  0.3564 -1.6889 -0.0094
12749TIP3   OH259737   2.616   1.645   3.621 -0.5258  0.5913  0.8280
12749TIP3    H159738   2.533   1.599   3.607  0.6603 -0.6392 -2.4640
12749TIP3    H259739   2.675   1.577   3.654  0.1505  0.5938 -0.3449
12750TIP3   OH259740   2.630   3.628  14.767 -0.1608 -0.7716 -0.0614
12750TIP3    H159741   2.711   3.651  14.723 -0.8592  0.1845 -0.8637
12750TIP3    H259742   2.592   3.559  14.713 -0.8012  0.0925 -0.7145
12751TIP3   OH259743   4.160   5.232   5.348  0.7214  0.0035 -0.6703
12751TIP3    H159744   4.171   5.313   5.298  1.0834  0.4248  0.0869
12751TIP3    H259745   4.232   5.233   5.411  0.4783 -0.7077 -0.3827
12752TIP3   OH259746   5.022   5.604  15.433  0.5646  0.0812 -0.8832
12752TIP3    H159747   4.936   5.615  15.393  0.4008 -0.6358 -0.7375
12752TIP3    H259748   5.082   5.589  15.360  0.3555 -0.6873 -0.8987
12753TIP3   OH259749   3.369   0.986  11.690 -0.0077 -0.0474  0.5615
12753TIP3    H159750   3.399   0.969  11.601  1.0665 -3.3001  1.4699
12753TIP3    H259751   3.299   0.923  11.704 -1.6162  1.8538  1.3530
12754TIP3   OH259752   4.401   0.688  15.318  0.5635  0.2739  0.5898
12754TIP3    H159753   4.484   0.642  15.307 -0.2364 -0.9936 -0.3769
12754TIP3    H259754   4.360   0.685  15.231  0.7778  3.4657  0.3165
12755TIP3   OH259755   5.668   5.808  15.388  0.1737 -0.3436  0.3724
12755TIP3    H159756   5.702   5.822  15.476  1.6372 -0.2562 -0.1917
12755TIP3    H259757   5.683   5.892  15.343  0.2522 -0.6710 -0.2184
12756TIP3   OH259758   5.840   4.735  16.762 -0.1499 -0.3387  0.0629
12756TIP3    H159759   5.849   4.736  16.857  0.9922 -0.5457 -0.0339
12756TIP3    H259760   5.746   4.739  16.747 -0.3831 -1.0793  1.2199
12757TIP3   OH259761   0.603   2.736  12.464  0.2504  0.0977 -0.1416
12757TIP3    H159762   0.697   2.733  12.482  0.5672 -0.0150 -1.7377
12757TIP3    H259763   0.596   2.770  12.375 -1.1959 -0.4091 -0.2480
12758TIP3   OH259764   4.989   5.275  16.759  0.0571 -0.3163  0.0861
12758TIP3    H159765   5.013   5.254  16.849  0.2403 -0.8536 -0.0823
12758TIP3    H259766   4.894   5.264  16.756  0.0424 -0.2251  0.2341
12759TIP3   OH259767   2.861   4.704  15.260  0.3111 -0.0038  0.7441
12759TIP3    H159768   2.876   4.645  15.334  1.1731  0.7107  1.1559
12759TIP3    H259769   2.848   4.790  15.301 -1.5849  0.0058  0.1966
12760TIP3   OH259770   2.885   2.879   0.905 -0.0156  0.2820  0.6432
12760TIP3    H159771   2.876   2.846   0.994 -0.6856 -1.3793 -0.0152
12760TIP3    H259772   2.968   2.926   0.905  1.0805 -1.5790  1.5891
12761TIP3   OH259773   1.022   1.583   2.141 -0.1939  0.4845 -0.3709
12761TIP3    H159774   0.970   1.504   2.156  1.7467 -0.6178  0.6799
12761TIP3    H259775   1.092   1.579   2.206  0.7520  2.3597 -1.2306
12762TIP3   OH259776   4.655   1.132  12.696 -0.4903 -0.3189 -0.4327
12762TIP3    H159777   4.702   1.202  12.652 -0.8239  0.9262  1.1635
12762TIP3    H259778   4.567   1.166  12.711 -0.5267 -0.8820  0.7623
12763TIP3   OH259779   2.241   2.567   6.485 -0.4168  0.1431 -0.3943
12763TIP3    H159780   2.336   2.565   6.499 -0.6297 -1.9598  0.9524
12763TIP3    H259781   2.218   2.477   6.464 -1.9214  0.9258 -2.2003
12764TIP3   OH259782   2.753   5.647  15.408 -0.5812 -0.1407 -0.0549
12764TIP3    H159783   2.841   5.676  15.386  0.3870 -2.3524  0.7774
12764TIP3    H259784   2.734   5.691  15.492 -0.3070  0.3824 -0.2653
12765TIP3   OH259785   5.309   0.585  16.941 -0.3308 -0.0877  0.3565
12765TIP3    H159786   5.302   0.680  16.946 -0.6069  0.0188 -1.6359
12765TIP3    H259787   5.366   0.569  16.865 -1.4784 -1.5213 -0.2315
12766TIP3   OH259788   6.461   4.427   2.159 -0.7582  0.3603  0.4790
12766TIP3    H159789   6.503   4.509   2.134  0.0500  0.1445  1.0714
12766TIP3    H259790   6.489   4.364   2.092 -2.3005  0.8165 -0.6169
12767TIP3   OH259791   5.485   1.742  11.455 -0.4519  0.0018  0.3602
12767TIP3    H159792   5.498   1.669  11.515 -0.2232  1.1785  1.7684
12767TIP3    H259793   5.409   1.789  11.490  0.3803  1.3580  0.4051
12768TIP3   OH259794   6.402   4.854   6.036 -0.3077  0.0451  0.4242
12768TIP3    H159795   6.472   4.913   6.062  0.6236 -0.5633 -0.6143
12768TIP3    H259796   6.328   4.877   6.091  0.7035  0.7350  1.5016
12769TIP3   OH259797   0.720   2.263   3.111  0.2679 -0.3660  0.6102
12769TIP3    H159798   0.798   2.282   3.060 -0.7030  0.7466 -0.5126
12769TIP3    H259799   0.745   2.283   3.201  0.8479  1.4216  0.0862
12770TIP3   OH259800   3.202   1.877   3.390 -0.5403 -0.3401  0.5871
12770TIP3    H159801   3.179   1.970   3.397  1.2702  0.3552 -1.8953
12770TIP3    H259802   3.197   1.859   3.296  0.4616 -2.3977  0.9073
12771TIP3   OH259803   0.609   3.417  14.466 -0.0438 -0.1579  0.2578
12771TIP3    H159804   0.539   3.359  14.496 -0.1304 -1.5647 -2.5004
12771TIP3    H259805   0.572   3.505  14.471 -1.5038 -0.7571  0.2262
12772TIP3   OH259806   6.288   4.529   0.558  0.1497  0.2737  0.7830
12772TIP3    H159807   6.241   4.515   0.640  0.9865 -1.4041  0.9887
12772TIP3    H259808   6.359   4.466   0.560  0.4918  0.5841 -1.0010
12773TIP3   OH259809   5.671   6.611  15.480  0.8338  0.1840 -0.2467
12773TIP3    H159810   5.610   6.624  15.553 -0.7739  0.2932 -1.6042
12773TIP3    H259811   5.727   6.539  15.509 -0.3785 -0.3881  0.7135
12774TIP3   OH259812   1.207   5.001   0.774  0.1358 -0.4081  0.1628
12774TIP3    H159813   1.158   4.962   0.701  1.0789 -0.1129 -0.6365
12774TIP3    H259814   1.298   5.001   0.744  0.4002  0.6258  0.9485
12775TIP3   OH259815   4.974   1.039  13.937  0.2564  0.2117 -0.0560
12775TIP3    H159816   5.053   1.091  13.929  0.0460  0.5164 -0.1591
12775TIP3    H259817   4.908   1.100  13.970 -0.3712  0.3767 -1.6115
12776TIP3   OH259818   5.886   0.860  14.584  0.4145  0.7731  0.1932
12776TIP3    H159819   5.852   0.856  14.495  0.5306  0.7298  0.1511
12776TIP3    H259820   5.945   0.785  14.590  1.1205  1.3071  0.0104
12777TIP3   OH259821   3.186   4.575  13.571 -0.2121  0.5010 -0.0762
12777TIP3    H159822   3.255   4.592  13.635 -1.7503  0.6549  1.5839
12777TIP3    H259823   3.105   4.577  13.622 -1.2532 -2.1433 -1.5252
12778TIP3   OH259824   3.596   5.982   6.014 -0.2562 -0.1394  0.2078
12778TIP3    H159825   3.690   5.963   6.007 -0.0357  1.1355 -0.4326
12778TIP3    H259826   3.571   5.950   6.100  1.3359  1.8676  1.4738
12779TIP3   OH259827   6.419   2.297   4.996 -0.0939  0.0132 -0.0068
12779TIP3    H159828   6.377   2.378   4.968  1.9104  0.9233 -0.4508
12779TIP3    H259829   6.440   2.251   4.914  3.9291  1.7288 -0.0182
12780TIP3   OH259830   4.648   0.747  16.628 -0.2721 -0.5240 -0.6244
12780TIP3    H159831   4.643   0.754  16.533  1.6552 -0.7487 -0.7494
12780TIP3    H259832   4.700   0.823  16.655 -0.3081 -0.7897  0.2077
12781TIP3   OH259833   0.753   0.431   2.602 -0.5286 -0.0136  0.0241
12781TIP3    H159834   0.682   0.429   2.666  0.1880 -1.1341  0.7936
12781TIP3    H259835   0.824   0.383   2.643  0.1787 -0.1520 -1.3381
12782TIP3   OH259836   6.804   4.193   1.945  0.6427 -0.3452 -0.5066
12782TIP3    H159837   6.831   4.131   1.877  0.7600 -2.1079  1.0745
12782TIP3    H259838   6.783   4.137   2.020 -1.9445  1.3543  0.1065
12783TIP3   OH259839   3.815   2.136   1.554  0.4125 -0.1440  0.0793
12783TIP3    H159840   3.893   2.099   1.514  0.5573  0.6258 -0.3660
12783TIP3    H259841   3.781   2.196   1.488 -0.6804 -0.6340  0.1779
12784TIP3   OH259842   4.671   3.571  15.829 -0.3589  0.3391 -0.3971
12784TIP3    H159843   4.653   3.661  15.801 -1.3809 -0.1788 -1.4569
12784TIP3    H259844   4.748   3.545  15.779 -0.2542  0.5178 -0.3268
12785TIP3   OH259845   4.146   5.215   6.662  0.2372  0.0191  0.7513
12785TIP3    H159846   4.188   5.271   6.728  0.8998 -1.8929  2.0012
12785TIP3    H259847   4.058   5.200   6.695 -0.2254  0.9604 -0.0050
12786TIP3   OH259848   5.469   1.338  15.266  0.0398  0.3679 -0.1797
12786TIP3    H159849   5.474   1.256  15.314  0.9291  0.7439  0.3825
12786TIP3    H259850   5.544   1.388  15.296  1.4727  0.0424 -2.9949
12787TIP3   OH259851   6.780   2.822  15.936 -0.0727  0.6793 -0.5845
12787TIP3    H159852   6.787   2.751  15.872  0.5878 -1.3201  1.6221
12787TIP3    H259853   6.858   2.874  15.923  0.0538  0.2803 -1.4283
12788TIP3   OH259854   6.511   0.364  12.877  0.3404  0.3979  0.2158
12788TIP3    H159855   6.463   0.393  12.954 -1.5695 -1.6121 -0.1720
12788TIP3    H259856   6.527   0.271  12.892  2.2030  0.5582 -0.6594
12789TIP3   OH259857   5.687   0.311  12.301  0.1648 -0.1689  0.1894
12789TIP3    H159858   5.764   0.354  12.264  1.5871  0.0451  3.3223
12789TIP3    H259859   5.711   0.219  12.308 -0.1416 -0.2258  0.5222
12790TIP3   OH259860   0.049   0.542   2.868  0.4646  0.1760 -0.1113
12790TIP3    H159861   0.084   0.629   2.850  0.1699  0.7119  1.8195
12790TIP3    H259862   0.124   0.484   2.861  0.9331  0.7728 -0.0742
12791TIP3   OH259863   0.158   2.853   0.005  0.6603  0.0086  0.1311
12791TIP3    H159864   0.120   2.918  -0.054  0.1554 -0.5525 -0.1681
12791TIP3    H259865   0.152   2.893   0.092 -0.9167 -0.2011  0.1346
12792TIP3   OH259866   0.569   1.049   4.906  0.7103  0.3321  0.4502
12792TIP3    H159867   0.488   1.035   4.956  0.4340 -2.1509 -0.6409
12792TIP3    H259868   0.546   1.116   4.841  0.6231  2.4029  2.5369
12793TIP3   OH259869   5.159   3.609  11.487 -0.1025  0.3519  0.5626
12793TIP3    H159870   5.238   3.657  11.464 -0.3392  0.5172  0.1047
12793TIP3    H259871   5.096   3.631  11.419  0.3899 -2.1328 -0.7639
12794TIP3   OH259872   6.071   5.328   0.399 -0.3835 -0.3953  0.0499
12794TIP3    H159873   6.045   5.420   0.399  0.1997 -0.2289  0.5381
12794TIP3    H259874   6.024   5.290   0.325 -1.9585 -0.0855  0.8673
12795TIP3   OH259875   6.171   2.074   4.339  0.4401  0.3695 -0.2491
12795TIP3    H159876   6.152   1.998   4.394  0.6643  1.3786  1.2546
12795TIP3    H259877   6.108   2.140   4.368 -1.3511  0.0281 -3.1692
12796TIP3   OH259878   5.319   3.735  15.009  0.1932 -0.0884 -0.2187
12796TIP3    H159879   5.239   3.695  14.973 -1.1176  0.7787  1.6892
12796TIP3    H259880   5.348   3.795  14.940 -2.2230  1.4656  0.0363
12797TIP3   OH259881   0.743   0.886   2.085 -0.0041 -0.2889 -0.2451
12797TIP3    H159882   0.820   0.834   2.063 -0.0768 -0.0812 -0.9772
12797TIP3    H259883   0.772   0.940   2.159 -0.1186 -1.8180  0.9608
12798TIP3   OH259884   5.848   3.284   2.637 -0.0537 -0.4589  0.5500
12798TIP3    H159885   5.907   3.238   2.578  1.5384  1.8134  0.2878
12798TIP3    H259886   5.769   3.299   2.585 -0.4917 -2.6149  0.5652
12799TIP3   OH259887   5.264   3.180   5.219 -0.3946 -0.0468 -0.2109
12799TIP3    H159888   5.307   3.221   5.294 -1.2743  1.3849 -0.4716
12799TIP3    H259889   5.284   3.087   5.228  0.7015  0.2910  1.0102
12800TIP3   OH259890   0.074   0.292   0.947 -0.0490 -0.4123  0.2675
12800TIP3    H159891   0.139   0.320   0.883 -0.7295  0.3795 -0.0913
12800TIP3    H259892   0.118   0.225   0.999  0.9213 -0.1535 -0.2152
12801TIP3   OH259893   0.272   5.586  14.912 -0.4603  0.0913 -0.3484
12801TIP3    H159894   0.220   5.537  14.848  0.5945  0.0005 -1.1488
12801TIP3    H259895   0.353   5.536  14.921 -0.7833 -0.1423  1.4156
12802TIP3   OH259896   4.478   6.229  12.529 -0.9216  0.0234 -0.0297
12802TIP3    H159897   4.477   6.218  12.434  0.0597 -1.0480  0.0739
12802TIP3    H259898   4.445   6.317  12.543  1.2873  1.1391 -1.5091
12803TIP3   OH259899   5.262   2.105   6.242  0.1734 -0.5431  0.0668
12803TIP3    H159900   5.198   2.050   6.287 -0.3477 -1.5913 -1.8702
12803TIP3    H259901   5.209   2.169   6.194  0.6282 -0.4517 -0.3230
12804TIP3   OH259902   0.801   6.728  17.279 -0.3879  0.1104  0.1400
12804TIP3    H159903   0.814   6.729  17.374 -1.7530 -2.5474  0.3805
12804TIP3    H259904   0.885   6.701  17.244 -0.0840  0.4190  0.6126
12805TIP3   OH259905   3.801   6.146  15.654 -0.6145 -0.5176 -0.4491
12805TIP3    H159906   3.756   6.225  15.683  2.8651  0.6911  2.0903
12805TIP3    H259907   3.870   6.177  15.596  0.4309 -1.7388  0.1151
12806TIP3   OH259908   2.396   2.089  13.346  0.4876  0.2676  0.0717
12806TIP3    H159909   2.479   2.102  13.300 -0.9947 -0.0048 -2.7696
12806TIP3    H259910   2.389   1.994  13.356  0.3556  0.2720  0.0176
12807TIP3   OH259911   1.025   4.247  13.043 -0.5040 -0.2513  0.0459
12807TIP3    H159912   0.995   4.335  13.066 -0.7034  0.0841 -1.4259
12807TIP3    H259913   1.102   4.262  12.988 -0.3912 -1.0051 -0.0068
12808TIP3   OH259914   0.819   3.821   4.099 -0.4810  0.0154 -0.0374
12808TIP3    H159915   0.840   3.797   4.189 -0.0787 -1.5460 -0.5241
12808TIP3    H259916   0.736   3.869   4.105 -1.1197 -1.1809  1.0419
12809TIP3   OH259917   0.815   6.333   0.244  0.7171 -0.2990 -0.3741
12809TIP3    H159918   0.838   6.245   0.274  0.2651 -0.4174 -0.3719
12809TIP3    H259919   0.851   6.391   0.311  0.2914 -0.5307  0.0599
12810TIP3   OH259920   5.031   5.807   6.245 -0.3012  0.5449  0.8609
12810TIP3    H159921   4.976   5.756   6.304  1.0361 -0.3372  1.3570
12810TIP3    H259922   5.072   5.742   6.188  1.1522  1.0780  1.2749
12811TIP3   OH259923   4.399   3.024  15.344 -0.1016  0.0140 -0.0284
12811TIP3    H159924   4.384   3.062  15.430  0.9713  2.2775 -0.8025
12811TIP3    H259925   4.373   2.932  15.353 -0.0446  0.2351  2.6684
12812TIP3   OH259926   0.176   2.757   1.397 -0.0690 -0.3729  0.0486
12812TIP3    H159927   0.166   2.845   1.360 -1.2261 -0.6979 -0.4354
12812TIP3    H259928   0.088   2.735   1.429  0.0257 -1.6987 -0.5823
12813TIP3   OH259929   4.692   3.519   1.870 -0.6424 -0.0710  0.3077
12813TIP3    H159930   4.698   3.564   1.786  1.0765 -2.0589 -0.6735
12813TIP3    H259931   4.701   3.589   1.935 -1.1016  1.3771 -1.1463
12814TIP3   OH259932   5.380   2.963  14.188 -0.5616  0.2661 -0.7663
12814TIP3    H159933   5.309   2.955  14.125  0.0743  0.4056 -1.5009
12814TIP3    H259934   5.336   2.982  14.271 -1.5641 -2.5515 -0.6222
12815TIP3   OH259935   1.573   4.367  16.162  0.3960  0.2695  0.4459
12815TIP3    H159936   1.638   4.312  16.120 -1.7187  0.2273 -2.9421
12815TIP3    H259937   1.606   4.456  16.149  0.6443  0.1547  0.2758
12816TIP3   OH259938   5.248   3.610   3.105  0.1196  0.6091  0.1868
12816TIP3    H159939   5.185   3.544   3.076  1.2278  0.1444 -1.2694
12816TIP3    H259940   5.288   3.573   3.183  0.0273 -0.0034 -0.0524
12817TIP3   OH259941   2.290   1.093   2.697  0.5168  0.4692 -0.1177
12817TIP3    H159942   2.260   1.007   2.669 -1.8931  1.1134  0.3346
12817TIP3    H259943   2.251   1.105   2.784  3.5558  0.6695  1.2958
12818TIP3   OH259944   5.753   0.862  14.343 -0.0668 -0.1896 -0.2883
12818TIP3    H159945   5.796   0.822  14.267 -1.2784 -3.3229  0.5656
12818TIP3    H259946   5.679   0.910  14.307  1.7488  1.8597 -1.4086
12819TIP3   OH259947   6.621   3.284   1.373  0.1172 -0.0551 -0.1781
12819TIP3    H159948   6.711   3.285   1.404  0.7844  0.4837 -2.0448
12819TIP3    H259949   6.587   3.371   1.392 -0.1800 -0.4038  0.9454
12820TIP3   OH259950   6.289   3.393  11.074  0.0779  0.4941 -0.0048
12820TIP3    H159951   6.284   3.328  11.005  0.4836  1.5968 -1.0909
12820TIP3    H259952   6.367   3.369  11.124 -0.1273 -0.2134 -0.0177
12821TIP3   OH259953   1.685   6.059   0.954 -0.1340 -0.1754  0.5496
12821TIP3    H159954   1.667   5.978   0.907  0.9067 -1.6779  2.6396
12821TIP3    H259955   1.601   6.084   0.993 -0.0372 -1.3690  1.5537
12822TIP3   OH259956   3.532   3.545  14.852 -0.1457  0.4010  0.7502
12822TIP3    H159957   3.556   3.455  14.877  1.0653  0.8217  1.1214
12822TIP3    H259958   3.448   3.535  14.807  0.2439 -0.9986  0.2878
12823TIP3   OH259959   4.363   5.187  14.373 -0.1035 -0.2522  0.7249
12823TIP3    H159960   4.372   5.159  14.282  0.0142 -0.1975  0.7194
12823TIP3    H259961   4.278   5.230  14.376  0.4758  0.9358  0.3259
12824TIP3   OH259962   4.898   5.826  12.789  0.0415  0.1225 -0.0431
12824TIP3    H159963   4.904   5.921  12.779 -3.1556  0.2815 -1.0748
12824TIP3    H259964   4.969   5.792  12.735 -0.2691  1.8629 -1.6104
12825TIP3   OH259965   5.258   2.488   4.721 -0.0151  0.0465  0.1229
12825TIP3    H159966   5.321   2.439   4.774  0.7054  1.2839  0.4281
12825TIP3    H259967   5.306   2.565   4.691 -1.4309  1.1104  0.5152
12826TIP3   OH259968   4.211   1.188  16.236 -0.5530 -0.0045 -0.0207
12826TIP3    H159969   4.194   1.102  16.199  0.6980 -0.1971 -0.1569
12826TIP3    H259970   4.281   1.225  16.183 -0.1213  0.5299  0.8962
12827TIP3   OH259971   2.029   1.954   3.313  0.4504  0.5477  0.0771
12827TIP3    H159972   1.950   1.902   3.296 -0.2794  1.0744  1.7706
12827TIP3    H259973   1.999   2.045   3.308  1.4481  0.8005 -1.5888
12828TIP3   OH259974   0.564   3.938  15.677 -0.5756  0.1834 -0.5568
12828TIP3    H159975   0.596   3.901  15.759 -1.1232 -0.4335 -0.6156
12828TIP3    H259976   0.474   3.905  15.669 -0.6622  0.5628 -1.1995
12829TIP3   OH259977   0.116   1.694  16.326 -0.2667 -0.0903 -0.8082
12829TIP3    H159978   0.090   1.717  16.415  2.2608  0.3243 -0.1165
12829TIP3    H259979   0.172   1.766  16.298  0.8808 -1.3388 -1.8290
12830TIP3   OH259980   2.954   0.827   3.526 -0.5400  0.5012  0.8327
12830TIP3    H159981   3.022   0.879   3.483  0.5110 -1.3676  0.2093
12830TIP3    H259982   2.877   0.837   3.470  0.1081  0.1239 -0.1372
12831TIP3   OH259983   0.414   4.455  13.883  0.0235 -0.2276 -0.1278
12831TIP3    H159984   0.393   4.368  13.849 -0.3551 -0.1700 -0.0415
12831TIP3    H259985   0.472   4.493  13.817  2.1306 -1.4599  0.9736
12832TIP3   OH259986   4.648   0.969  12.999  0.4939  0.0390 -0.1837
12832TIP3    H159987   4.589   1.038  12.971 -0.0037  0.0034  0.7667
12832TIP3    H259988   4.628   0.895  12.941 -0.6515 -0.0925  0.3619
12833TIP3   OH259989   4.498   1.897   1.942 -0.0325 -0.1500  0.2021
12833TIP3    H159990   4.549   1.893   1.861 -0.8405 -0.9944 -0.2646
12833TIP3    H259991   4.416   1.851   1.922 -0.6461  0.4895  1.1959
12834TIP3   OH259992   3.662   1.259  13.373 -0.1623  0.1529  0.3125
12834TIP3    H159993   3.670   1.176  13.419 -1.1465 -0.8916 -1.3426
12834TIP3    H259994   3.634   1.235  13.285  0.0586  2.2109 -0.3468
12835TIP3   OH259995   5.732   1.640  14.458 -0.7514  0.4502 -0.4599
12835TIP3    H159996   5.733   1.545  14.459  2.6130  0.4270 -1.8209
12835TIP3    H259997   5.735   1.664  14.366  1.8898  1.8354 -0.0514
12836TIP3   OH259998   0.328   2.670  17.085  0.0875  0.2131  0.1938
12836TIP3    H159999   0.290   2.726  17.153 -0.0701  0.4738 -0.1066
12836TIP3    H260000   0.254   2.651  17.028  0.2254  0.0098  0.0866
12837TIP3   OH260001   2.034   5.912   5.491 -0.4073 -0.3776  0.9013
12837TIP3    H160002   1.939   5.921   5.482 -0.6475 -1.7607  1.9560
12837TIP3    H260003   2.055   5.952   5.575  0.0941  0.8013  0.2352
12838TIP3   OH260004   3.317   3.686  14.595  0.2445  0.3225  0.4202
12838TIP3    H160005   3.391   3.746  14.606 -0.1295  0.9157 -0.2967
12838TIP3    H260006   3.292   3.695  14.504 -1.7729  1.3391  1.0417
12839TIP3   OH260007   5.362   5.855   4.960 -0.3035  0.0281  0.5714
12839TIP3    H160008   5.302   5.923   4.930 -0.0966 -0.2907 -0.5793
12839TIP3    H260009   5.327   5.829   5.045 -0.4288  1.5147  0.9895
12840TIP3   OH260010   2.476   4.833   5.903  0.4504 -0.0028  0.1251
12840TIP3    H160011   2.471   4.837   5.808  1.0914  1.1611  0.1305
12840TIP3    H260012   2.406   4.890   5.934 -0.1315 -0.8310  0.3711
12841TIP3   OH260013   0.400   6.656  11.673 -0.6226 -0.2004  0.6573
12841TIP3    H160014   0.351   6.733  11.644  1.5970  0.1822 -2.3029
12841TIP3    H260015   0.489   6.688  11.687  0.5814 -2.3739 -1.5960
12842TIP3   OH260016   5.129   2.091  13.685 -0.5628  0.8151  0.2328
12842TIP3    H160017   5.034   2.083  13.695 -0.3476 -0.9916  0.8965
12842TIP3    H260018   5.161   2.001  13.681  1.3243  1.3799  1.8332
12843TIP3   OH260019   3.620   2.327  14.768  0.5346 -0.3751 -0.6676
12843TIP3    H160020   3.526   2.325  14.751  0.7007  0.0576 -1.7182
12843TIP3    H260021   3.638   2.247  14.817 -0.6325  0.3372  0.9552
12844TIP3   OH260022   1.317   2.994  15.576 -0.3751 -0.3331 -0.2139
12844TIP3    H160023   1.275   3.013  15.492  0.9892  0.0262 -0.8370
12844TIP3    H260024   1.323   2.899  15.580 -1.6332 -0.4015  0.0778
12845TIP3   OH260025   3.088   5.117  14.663  0.4261 -0.0242  0.4008
12845TIP3    H160026   3.015   5.128  14.724 -0.1949 -0.0149 -0.3277
12845TIP3    H260027   3.131   5.036  14.691  0.2918  0.1042  0.9916
12846TIP3   OH260028   1.870   5.150   1.930  0.1180  0.1076 -0.2187
12846TIP3    H160029   1.798   5.195   1.973  0.7006  1.2724 -0.4369
12846TIP3    H260030   1.845   5.057   1.931 -0.2254  0.1920  1.9362
12847TIP3   OH260031   0.495   5.305  13.307  0.1490 -0.0481  0.4033
12847TIP3    H160032   0.485   5.353  13.390  2.2826  1.1623 -0.0155
12847TIP3    H260033   0.515   5.373  13.243 -1.2727 -1.0174 -1.1010
12848TIP3   OH260034   2.843   1.919  11.542  0.4923  0.1701  0.3938
12848TIP3    H160035   2.803   1.853  11.599  2.1595 -1.4343 -0.2787
12848TIP3    H260036   2.880   1.870  11.470  1.7142  1.8625 -0.1647
12849TIP3   OH260037   1.121   0.532  13.435  0.4475  0.0739  0.0535
12849TIP3    H160038   1.120   0.540  13.531  1.2852 -2.3655  0.3030
12849TIP3    H260039   1.061   0.461  13.416  1.2447 -0.2913 -1.1441
12850TIP3   OH260040   4.921   4.703  15.595  0.0022  0.1371  0.6544
12850TIP3    H160041   5.015   4.699  15.611  0.1692 -0.2025 -0.3454
12850TIP3    H260042   4.881   4.678  15.678  0.8090 -0.3877  0.8935
12851TIP3   OH260043   0.698   2.791   1.720 -0.3824  0.3311  0.1957
12851TIP3    H160044   0.611   2.800   1.681 -1.4294 -0.9681  2.1881
12851TIP3    H260045   0.705   2.866   1.779 -1.5326 -1.3110  2.5249
12852TIP3   OH260046   3.995   5.954  13.367 -0.2325 -0.4258 -0.1180
12852TIP3    H160047   3.959   5.960  13.455 -1.6109  2.1703 -0.8353
12852TIP3    H260048   3.919   5.939  13.310  0.0179  2.5417 -1.3463
12853TIP3   OH260049   0.723   2.305  16.896 -0.3126 -0.3296 -0.2482
12853TIP3    H160050   0.693   2.351  16.975 -0.9847 -2.1700  0.6100
12853TIP3    H260051   0.807   2.267  16.921 -2.1171 -3.8514  0.8029
12854TIP3   OH260052   2.529   1.605   3.144  0.0081 -0.1098 -0.6028
12854TIP3    H160053   2.441   1.572   3.161 -0.1746  0.8607  0.4625
12854TIP3    H260054   2.534   1.686   3.195  1.2625  0.2300 -1.2401
12855TIP3   OH260055   1.976   0.731  17.142  0.2204  0.0297 -0.0774
12855TIP3    H160056   1.981   0.644  17.181  2.4848  0.1192 -0.0784
12855TIP3    H260057   2.024   0.787  17.204 -2.1278  1.4863  0.4722
12856TIP3   OH260058   6.521   5.330   0.217  0.4812 -0.3702  1.1050
12856TIP3    H160059   6.515   5.400   0.282 -0.8564  0.0780  0.5174
12856TIP3    H260060   6.532   5.375   0.134 -1.2782 -0.7941  0.6136
12857TIP3   OH260061   5.782   0.031   0.865 -0.0178  0.1346  0.4907
12857TIP3    H160062   5.809   0.122   0.851 -0.0947  0.0363 -0.3298
12857TIP3    H260063   5.822   0.007   0.949  0.2781  0.8153  0.5511
12858TIP3   OH260064   2.973   3.518  14.231 -0.0991  0.4289 -0.5168
12858TIP3    H160065   2.995   3.429  14.258 -0.1929  0.3201 -0.7910
12858TIP3    H260066   2.947   3.509  14.139  0.7430  0.8680 -0.8068
12859TIP3   OH260067   4.508   2.955  16.658 -0.1568  0.2405 -0.0278
12859TIP3    H160068   4.598   2.947  16.626 -1.3545 -0.8706 -3.2794
12859TIP3    H260069   4.499   2.883  16.721  1.0647  0.0425 -0.0569
12860TIP3   OH260070   1.421   1.460  11.168  0.3494 -0.4508  0.1899
12860TIP3    H160071   1.339   1.477  11.121  0.4120  0.3377  0.3527
12860TIP3    H260072   1.395   1.410  11.245 -0.1762  1.0134  0.9897
12861TIP3   OH260073   4.252   4.286  15.469 -0.5465 -0.3248  0.5171
12861TIP3    H160074   4.196   4.317  15.541 -0.4314 -0.5792  0.7212
12861TIP3    H260075   4.192   4.240  15.410 -0.6271 -0.1950  0.4976
12862TIP3   OH260076   1.629   4.253   6.327 -0.1772  0.0019  0.0417
12862TIP3    H160077   1.631   4.244   6.422  1.5858 -1.4789 -0.1063
12862TIP3    H260078   1.703   4.310   6.306 -0.5552  0.3225 -0.4717
12863TIP3   OH260079   2.543   4.068  14.546  0.2156  0.5832 -0.0418
12863TIP3    H160080   2.580   4.156  14.554 -1.9236  1.5237 -0.2830
12863TIP3    H260081   2.553   4.029  14.633  2.4644  0.5062 -0.2941
12864TIP3   OH260082   0.919   1.860  16.841 -0.5358 -0.1989 -0.0044
12864TIP3    H160083   0.934   1.872  16.935  0.4665  0.0050 -0.1787
12864TIP3    H260084   0.962   1.777  16.821  1.1648  0.8162 -0.6869
12865TIP3   OH260085   1.196   3.868   3.788 -0.0612  0.1881  0.4294
12865TIP3    H160086   1.126   3.894   3.848  1.4150  2.2252  1.3133
12865TIP3    H260087   1.187   3.926   3.713 -2.1257 -2.5873 -1.5797
12866TIP3   OH260088   3.080   0.854  17.131 -0.1935 -0.9985 -0.4802
12866TIP3    H160089   3.159   0.808  17.103 -0.0727 -1.0335 -0.0872
12866TIP3    H260090   3.084   0.852  17.227 -0.9548 -1.4969 -0.4582
12867TIP3   OH260091   4.498   6.127  11.275  0.3360  0.2129  0.1286
12867TIP3    H160092   4.487   6.202  11.217 -3.2560  0.4297  0.9410
12867TIP3    H260093   4.456   6.055  11.229  0.4436 -0.3837  0.9548
12868TIP3   OH260094   4.529   2.398  15.487 -0.1652 -0.5406  0.2721
12868TIP3    H160095   4.622   2.410  15.467 -0.0303 -3.0042 -0.8252
12868TIP3    H260096   4.529   2.356  15.574 -0.3776  1.4529  1.2696
12869TIP3   OH260097   5.022   6.495  13.873 -0.3853 -0.1474 -0.2461
12869TIP3    H160098   4.986   6.421  13.921  0.1770 -0.0076  0.4133
12869TIP3    H260099   5.115   6.474  13.863 -0.3380  0.2049 -0.5445
12870TIP3   OH260100   4.241   1.412   6.545 -0.3926  0.2525 -0.3302
12870TIP3    H160101   4.195   1.373   6.471  0.1622 -0.6338 -0.2080
12870TIP3    H260102   4.320   1.360   6.554 -1.0249 -0.3989  1.6415
12871TIP3   OH260103   6.753   4.369   0.494  0.1586  0.0284  0.3266
12871TIP3    H160104   6.809   4.415   0.432 -0.0177 -0.7814 -0.4504
12871TIP3    H260105   6.814   4.316   0.546  0.2492  0.2794  0.4799
12872TIP3   OH260106   4.675   3.813   0.538 -0.2722 -0.2035 -0.0985
12872TIP3    H160107   4.591   3.853   0.516 -0.3986  0.4170  1.4477
12872TIP3    H260108   4.687   3.832   0.631  0.9409 -1.4681  0.0171
12873TIP3   OH260109   3.701   2.550  14.911 -0.0847 -0.4270 -0.1465
12873TIP3    H160110   3.681   2.472  14.859 -0.5374  0.1242 -0.8109
12873TIP3    H260111   3.796   2.557  14.908 -0.0435 -0.9586 -0.0899
12874TIP3   OH260112   3.748   1.289  16.288 -0.2752  0.0333  0.4088
12874TIP3    H160113   3.808   1.348  16.242 -0.2582  0.2844  0.7510
12874TIP3    H260114   3.805   1.222  16.326 -0.3854 -0.7302 -0.7709
12875TIP3   OH260115   2.959   3.472   0.602  0.4376 -0.4048  0.3334
12875TIP3    H160116   2.967   3.377   0.592 -0.1957 -0.4912  0.5742
12875TIP3    H260117   2.981   3.507   0.516  3.1230 -0.6029  0.8881
12876TIP3   OH260118   6.781   4.938  16.704  0.5331  0.3373  0.2354
12876TIP3    H160119   6.737   5.023  16.712  1.8603  1.0026  0.6616
12876TIP3    H260120   6.732   4.892  16.636 -1.2259  0.7914  1.1647
12877TIP3   OH260121   4.503   1.074   2.439 -1.0451  0.2297 -0.0656
12877TIP3    H160122   4.530   1.020   2.514 -0.3026  1.3808  0.5239
12877TIP3    H260123   4.465   1.013   2.377 -0.6697 -0.8980  0.8026
12878TIP3   OH260124   5.123   0.779  12.661  0.2200  0.0756 -0.1840
12878TIP3    H160125   5.034   0.762  12.691 -0.2304 -0.0162 -1.5157
12878TIP3    H260126   5.112   0.818  12.574  1.4891 -1.3308 -1.0125
12879TIP3   OH260127   0.561   1.835   4.332  0.3519  0.1596 -0.6491
12879TIP3    H160128   0.565   1.930   4.318 -2.0570  0.9543  3.2542
12879TIP3    H260129   0.470   1.812   4.313 -0.1551 -0.5539  2.3085
12880TIP3   OH260130   4.794   3.417  16.041 -0.1254 -0.1520  0.0896
12880TIP3    H160131   4.732   3.475  15.996 -2.6323 -1.6353  1.5531
12880TIP3    H260132   4.841   3.373  15.970  0.9425  2.6807 -1.0420
12881TIP3   OH260133   2.495   1.892   0.793 -0.5722 -0.1292  0.4405
12881TIP3    H160134   2.582   1.931   0.800 -0.5610 -0.4614  2.6327
12881TIP3    H260135   2.500   1.835   0.717  0.2413  2.0399 -1.2070
12882TIP3   OH260136   2.966   5.385  15.364  0.2855  0.0138 -0.1071
12882TIP3    H160137   2.958   5.404  15.457  1.2186 -0.6139  0.1126
12882TIP3    H260138   2.991   5.469  15.325  0.3743  0.1708  0.2830
12883TIP3   OH260139   5.518   5.284  14.609  0.2201  0.3130  0.6702
12883TIP3    H160140   5.602   5.313  14.645  0.3571  0.4920  0.1967
12883TIP3    H260141   5.461   5.360  14.618  0.4416  0.5790 -0.1111
12884TIP3   OH260142   2.439   5.814  13.632 -0.3982  0.4219  0.0241
12884TIP3    H160143   2.365   5.792  13.689  0.3509 -0.3981  0.6876
12884TIP3    H260144   2.512   5.828  13.692  0.7982 -2.0121 -0.8101
12885TIP3   OH260145   4.351   3.240  14.188  0.1758  0.4543 -0.0542
12885TIP3    H160146   4.439   3.217  14.156 -0.6473 -0.8270 -1.4235
12885TIP3    H260147   4.332   3.324  14.145  0.5060  0.4641 -0.1864
12886TIP3   OH260148   6.633   1.842  16.944 -0.2622  0.3763  0.1418
12886TIP3    H160149   6.574   1.914  16.919  1.0076  1.3264 -0.1530
12886TIP3    H260150   6.718   1.867  16.908  0.4086 -0.8137  0.8812
12887TIP3   OH260151   6.621   5.485   6.459 -0.3811 -0.3863  0.1998
12887TIP3    H160152   6.701   5.434   6.469  0.0559 -0.0315 -1.2132
12887TIP3    H260153   6.619   5.543   6.535  1.0054 -0.0237 -0.0222
12888TIP3   OH260154   5.110   1.485  12.326  0.0629 -0.7110  0.7554
12888TIP3    H160155   5.038   1.541  12.295  1.1010  0.9173  1.1815
12888TIP3    H260156   5.189   1.536  12.307  0.9345 -1.2509  2.8092
12889TIP3   OH260157   1.474   2.958  16.419 -0.1410  0.0574  0.1338
12889TIP3    H160158   1.413   2.889  16.445 -1.4263  1.5266  1.1025
12889TIP3    H260159   1.442   2.987  16.333 -1.7920  1.9107  1.3448
12890TIP3   OH260160   0.654   1.404   2.917 -0.2267 -0.4068  0.3895
12890TIP3    H160161   0.734   1.378   2.963 -0.8825  1.0874  2.4771
12890TIP3    H260162   0.683   1.470   2.854  0.3683 -0.8293  0.2127
12891TIP3   OH260163   2.349   3.176   5.798 -0.1551  0.2564  0.1635
12891TIP3    H160164   2.443   3.195   5.787 -0.5402  1.6748 -0.8875
12891TIP3    H260165   2.316   3.172   5.708 -1.0101 -0.7340  0.5263
12892TIP3   OH260166   5.813   3.873  13.303 -0.9130  0.3038  0.1134
12892TIP3    H160167   5.719   3.891  13.305 -1.1528 -0.6567 -1.7813
12892TIP3    H260168   5.847   3.915  13.382 -2.5755  2.6030 -0.3559
12893TIP3   OH260169   4.200   6.313  12.985  0.4608  0.2007  0.0135
12893TIP3    H160170   4.175   6.395  13.029  1.2647 -0.0345  0.9359
12893TIP3    H260171   4.171   6.325  12.894  1.1541  1.7759 -0.0218
12894TIP3   OH260172   5.488   2.264  15.146  0.5641 -0.3435 -0.5178
12894TIP3    H160173   5.475   2.200  15.216 -0.4104  1.4541  1.0037
12894TIP3    H260174   5.570   2.307  15.168  0.0909  0.4522 -0.2491
12895TIP3   OH260175   5.410   1.388  16.062  0.4691 -0.0834  0.2648
12895TIP3    H160176   5.315   1.383  16.076  0.3343  1.3373 -0.0951
12895TIP3    H260177   5.443   1.430  16.142  0.5688  1.1072 -0.3838
12896TIP3   OH260178   4.460   4.959   4.005  0.3279  0.1476  0.0873
12896TIP3    H160179   4.528   4.912   4.054  0.1364 -2.4717 -2.0708
12896TIP3    H260180   4.405   4.890   3.968 -1.9744  2.1794 -0.4093
12897TIP3   OH260181   1.207   5.300  15.890 -0.9702 -0.1969  0.1767
12897TIP3    H160182   1.212   5.307  15.794  2.0955 -0.1877  0.2864
12897TIP3    H260183   1.182   5.387  15.919 -2.6815 -0.3905 -0.6336
12898TIP3   OH260184   2.904   3.339  11.747 -0.2980  0.2628 -0.4765
12898TIP3    H160185   2.933   3.345  11.838 -0.5622  0.7346 -0.4186
12898TIP3    H260186   2.811   3.362  11.750 -0.0659  1.3401 -0.9973
12899TIP3   OH260187   4.397   2.484   4.324 -0.0642 -0.4328 -0.1551
12899TIP3    H160188   4.352   2.422   4.381  0.6890  0.0714  1.0159
12899TIP3    H260189   4.452   2.535   4.384  1.2668 -0.3543 -1.4121
12900TIP3   OH260190   5.776   6.286   4.377  0.2030 -0.5254  0.8863
12900TIP3    H160191   5.786   6.226   4.303 -0.4304 -1.0443  1.2229
12900TIP3    H260192   5.805   6.235   4.453  2.1646  0.4481  0.8217
12901TIP3   OH260193   4.253   1.499  12.068  0.0703  0.2049 -0.1382
12901TIP3    H160194   4.239   1.469  12.158  3.4347  0.1339  0.4188
12901TIP3    H260195   4.289   1.424  12.022  1.2711  1.1372 -0.7556
12902TIP3   OH260196   5.973   6.341  16.143 -0.4222  0.8442  0.0680
12902TIP3    H160197   6.025   6.286  16.084  0.0242  1.5445 -0.2006
12902TIP3    H260198   5.949   6.417  16.089  0.7518  1.9259  1.0305
12903TIP3   OH260199   1.267   2.192   4.402 -0.3996  0.0215  0.0032
12903TIP3    H160200   1.281   2.282   4.372  1.2994 -0.1082  0.3575
12903TIP3    H260201   1.197   2.159   4.346  1.3162  0.4519 -2.4646
12904TIP3   OH260202   0.172   4.075   4.310  0.2304  0.4605  0.1199
12904TIP3    H160203   0.182   4.169   4.295  0.0716  0.6485  1.1485
12904TIP3    H260204   0.194   4.035   4.226  0.6158  1.3975 -0.2361
12905TIP3   OH260205   6.763   1.682  13.850 -0.3447  0.3321  0.6321
12905TIP3    H160206   6.857   1.701  13.849 -0.0511 -1.0323 -0.5502
12905TIP3    H260207   6.757   1.595  13.810 -2.1711  0.6590  0.1856
12906TIP3   OH260208   6.724   3.801  12.966  1.1220  0.3291 -0.0516
12906TIP3    H160209   6.728   3.862  13.040  2.6697  2.0483 -1.5078
12906TIP3    H260210   6.631   3.782  12.955  0.9191 -0.5009  2.7643
12907TIP3   OH260211   2.750   5.557  12.200 -0.3237  0.0749  0.1857
12907TIP3    H160212   2.712   5.519  12.280 -1.2944  0.4573 -0.0933
12907TIP3    H260213   2.712   5.644  12.195  0.6806  0.5001 -0.0431
12908TIP3   OH260214   2.357   6.249   1.884  0.0353 -0.0512  0.4131
12908TIP3    H160215   2.317   6.322   1.837  0.3790  0.4686  0.9368
12908TIP3    H260216   2.420   6.213   1.822  0.3380  0.5028  0.3984
12909TIP3   OH260217   0.973   4.866   3.361 -0.0211  0.2876  0.3070
12909TIP3    H160218   0.996   4.949   3.403  0.7850  0.0307  0.3880
12909TIP3    H260219   1.051   4.844   3.309 -1.5629  1.3815 -2.5526
12910TIP3   OH260220   2.447   4.283   5.239  0.0910  0.1453 -0.0007
12910TIP3    H160221   2.539   4.293   5.266  0.2102 -1.7408  0.3400
12910TIP3    H260222   2.451   4.240   5.154 -0.4836  0.6404 -0.2883
12911TIP3   OH260223   2.895   2.418   3.975 -0.0255  0.1924 -0.3273
12911TIP3    H160224   2.867   2.447   3.888 -2.1041 -0.9919 -0.0828
12911TIP3    H260225   2.902   2.323   3.967  0.3585  0.1368  0.6412
12912TIP3   OH260226   3.759   3.710  13.176  0.0867  0.1869 -0.2861
12912TIP3    H160227   3.851   3.683  13.172  0.0993 -0.0893  1.3170
12912TIP3    H260228   3.719   3.673  13.098  1.1688 -0.3963 -0.5678
12913TIP3   OH260229   4.165   1.052   1.673 -0.1248 -0.3281  0.2318
12913TIP3    H160230   4.159   1.146   1.662 -1.0152 -0.2853  1.0059
12913TIP3    H260231   4.240   1.038   1.731 -0.9856  0.0143  1.4460
12914TIP3   OH260232   4.737   3.348  16.302  0.1489 -0.6851  0.0844
12914TIP3    H160233   4.781   3.357  16.217 -0.3677  0.3635 -0.0894
12914TIP3    H260234   4.653   3.308  16.282  0.2656 -0.9812  0.1817
12915TIP3   OH260235   2.705   1.981   0.958 -0.3970  0.7007 -0.0261
12915TIP3    H160236   2.673   1.895   0.986  1.6592 -0.3741 -0.8551
12915TIP3    H260237   2.771   2.004   1.024  1.0196  0.3646 -1.2944
12916TIP3   OH260238   2.097   4.884   3.277 -0.5608  0.1349  0.0290
12916TIP3    H160239   2.082   4.878   3.183  1.5361 -1.6929 -0.2272
12916TIP3    H260240   2.192   4.897   3.285 -0.9276  2.0040  1.8437
12917TIP3   OH260241   1.782   1.468   0.741 -0.8473 -0.0817 -0.4550
12917TIP3    H160242   1.764   1.411   0.817  0.1634  0.7054  0.3894
12917TIP3    H260243   1.871   1.446   0.716 -0.0976  1.7832  0.4725
12918TIP3   OH260244   4.883   3.850  11.938 -0.0329  0.5763 -0.1510
12918TIP3    H160245   4.846   3.913  11.876  0.4353  0.9913 -0.0052
12918TIP3    H260246   4.810   3.791  11.958 -0.0747  0.1378 -1.4782
12919TIP3   OH260247   5.633   0.982  16.981 -0.4978 -0.2394  0.7299
12919TIP3    H160248   5.704   0.931  17.021  0.0576 -0.3487 -0.3840
12919TIP3    H260249   5.604   0.928  16.908 -0.4170  0.7070 -0.0007
12920TIP3   OH260250   4.925   0.972  12.964 -0.4227 -0.4027  0.5631
12920TIP3    H160251   4.839   0.977  13.006 -0.9384  0.1331 -0.5180
12920TIP3    H260252   4.905   0.978  12.870  0.6151 -2.4278  0.1792
12921TIP3   OH260253   1.021   6.806   2.149  0.2974 -0.0731  0.1959
12921TIP3    H160254   1.094   6.786   2.207 -1.4684 -1.5898  1.9476
12921TIP3    H260255   1.032   6.746   2.075  0.8559 -0.2577  0.4232
12922TIP3   OH260256   4.932   2.438   3.839  0.5963  0.8342  0.3108
12922TIP3    H160257   4.956   2.444   3.931 -2.5260 -1.9842  1.4060
12922TIP3    H260258   4.915   2.345   3.824 -1.1316  1.5200 -2.4855
12923TIP3   OH260259   3.886   0.334  16.471 -0.0834 -0.3653 -0.1468
12923TIP3    H160260   3.852   0.313  16.385 -1.4842  1.0020  0.0421
12923TIP3    H260261   3.876   0.253  16.522 -0.8811 -0.6659 -0.7721
12924TIP3   OH260262   5.284   0.279   4.852  0.2360 -0.2822  0.3752
12924TIP3    H160263   5.270   0.370   4.823 -1.8580 -0.5809  0.3794
12924TIP3    H260264   5.256   0.279   4.943  0.7516 -0.8299  0.5346
12925TIP3   OH260265   4.253   5.288  11.978  0.4191  0.1337 -0.2284
12925TIP3    H160266   4.317   5.224  11.947 -0.1628 -2.0294  2.8449
12925TIP3    H260267   4.286   5.315  12.063 -1.9956  0.0785  0.7562
12926TIP3   OH260268   5.329   0.276  12.479  0.1942  0.5298  0.5158
12926TIP3    H160269   5.309   0.183  12.489 -0.7148  0.6296 -0.3926
12926TIP3    H260270   5.304   0.315  12.563 -0.1794  0.0955  0.6059
12927TIP3   OH260271   5.246   3.547  13.434 -0.2328  0.4132 -0.3730
12927TIP3    H160272   5.309   3.477  13.452 -1.0023  0.1397  1.3004
12927TIP3    H260273   5.171   3.502  13.394 -0.5956  0.3185  0.4071
12928TIP3   OH260274   3.728   5.359   4.117  0.0299 -0.2304 -0.9138
12928TIP3    H160275   3.782   5.385   4.191  0.3204  1.5284 -1.7268
12928TIP3    H260276   3.767   5.277   4.086  0.1164 -0.7927  0.6392
12929TIP3   OH260277   2.962   3.564  11.094 -0.1682  0.0974 -0.4094
12929TIP3    H160278   2.981   3.605  11.178 -0.1317  2.0872 -1.3685
12929TIP3    H260279   3.043   3.573  11.044  0.2066 -2.1494 -0.2621
12930TIP3   OH260280   0.129   3.808  15.034 -0.7394  0.0578 -0.0663
12930TIP3    H160281   0.204   3.809  14.974 -0.7661  0.0183 -0.1014
12930TIP3    H260282   0.166   3.786  15.119 -0.6783  0.2783 -0.0360
12931TIP3   OH260283   4.938   0.103   0.104  0.0176  0.5489  0.2098
12931TIP3    H160284   4.994   0.036   0.144 -0.0278  0.9234  0.9177
12931TIP3    H260285   4.936   0.174   0.169  0.6617  1.5455 -0.8517
12932TIP3   OH260286   2.207   5.155  11.749  0.2614  0.0028 -0.5833
12932TIP3    H160287   2.149   5.093  11.793  0.4610 -1.0277 -1.7558
12932TIP3    H260288   2.250   5.202  11.821 -0.9339 -0.2379  0.3007
12933TIP3   OH260289   4.285   4.586  12.336  0.2583 -0.0509  0.2341
12933TIP3    H160290   4.276   4.584  12.240 -1.0618  0.6842  0.3205
12933TIP3    H260291   4.352   4.521  12.355  2.5121  1.6707 -1.3994
12934TIP3   OH260292   5.594   0.167  16.420 -0.1409 -0.2306  0.0716
12934TIP3    H160293   5.634   0.125  16.497 -0.0646 -0.8684 -0.3079
12934TIP3    H260294   5.640   0.128  16.346  1.3096  2.0063 -0.2245
12935TIP3   OH260295   0.949   1.858   1.318 -0.4783  0.7507 -0.3788
12935TIP3    H160296   1.032   1.889   1.355 -0.4342 -0.2136  0.3462
12935TIP3    H260297   0.882   1.908   1.364 -0.2762  2.2434 -1.6567
12936TIP3   OH260298   4.736   4.910   5.279  0.0841  0.1688  0.4139
12936TIP3    H160299   4.733   4.843   5.211 -0.6202 -0.4791  1.0813
12936TIP3    H260300   4.721   4.992   5.232 -0.9958 -0.3364 -0.1268
12937TIP3   OH260301   5.239   5.346   3.889 -0.4684 -0.0251 -0.1002
12937TIP3    H160302   5.258   5.257   3.860  3.1701  1.1069 -1.4987
12937TIP3    H260303   5.284   5.353   3.974 -0.7829  0.4582  0.0250
12938TIP3   OH260304   1.751   5.569   5.717 -0.5208  0.2020  0.5635
12938TIP3    H160305   1.804   5.531   5.647 -0.3201 -0.3950  1.0336
12938TIP3    H260306   1.796   5.544   5.797 -1.2473  0.0946  0.9434
12939TIP3   OH260307   6.147   1.977   3.242  0.4957  0.3904 -0.2985
12939TIP3    H160308   6.204   1.954   3.168  0.7444  0.7627 -0.2272
12939TIP3    H260309   6.159   2.072   3.252  2.0383  0.0196  1.5322
12940TIP3   OH260310   6.161   0.828  14.191  0.0662 -0.2497  0.1426
12940TIP3    H160311   6.122   0.885  14.257  0.5419  0.5095 -0.2081
12940TIP3    H260312   6.116   0.852  14.109  0.0393 -0.6084  0.0544
12941TIP3   OH260313   5.929   5.682   0.202 -0.0012 -0.1055 -0.6504
12941TIP3    H160314   5.911   5.675   0.295 -0.6514  3.3127 -0.4362
12941TIP3    H260315   5.849   5.651   0.159 -0.0282 -0.8631 -0.0461
12942TIP3   OH260316   6.599   4.524  14.090 -0.2340 -0.1402 -0.2967
12942TIP3    H160317   6.693   4.525  14.071 -0.0825 -0.6434  0.3858
12942TIP3    H260318   6.575   4.431  14.084 -0.9719  0.1427 -1.8110
12943TIP3   OH260319   5.718   4.483   3.663  0.0697 -0.3709 -0.5701
12943TIP3    H160320   5.659   4.431   3.609 -0.0390  0.8826 -1.6653
12943TIP3    H260321   5.665   4.556   3.693  0.8878  0.4333 -1.0645
12944TIP3   OH260322   1.656   1.401  15.391 -0.2965 -0.5123  0.1093
12944TIP3    H160323   1.652   1.496  15.374  0.4035 -0.5126 -0.0633
12944TIP3    H260324   1.735   1.372  15.345 -1.0500 -1.3469 -0.6630
12945TIP3   OH260325   0.552   1.375   4.196 -0.1289 -0.2980  0.2296
12945TIP3    H160326   0.608   1.408   4.126  1.4334 -1.7131  0.7692
12945TIP3    H260327   0.465   1.367   4.156  0.6736 -0.7842 -1.4628
12946TIP3   OH260328   1.404   0.745  14.159 -0.3322 -0.1764  0.2610
12946TIP3    H160329   1.485   0.776  14.200 -0.5524  2.3692 -1.1167
12946TIP3    H260330   1.425   0.738  14.066 -1.8137  1.0485 -0.1849
12947TIP3   OH260331   3.945   5.294  15.646  0.6785  0.3809 -0.2894
12947TIP3    H160332   4.007   5.288  15.574 -0.7276 -0.3539 -1.4509
12947TIP3    H260333   3.958   5.383  15.681 -0.6503  1.8194 -3.2924
12948TIP3   OH260334   6.410   5.601  15.434  0.1014  0.2739 -0.1878
12948TIP3    H160335   6.332   5.560  15.397 -0.7196  1.7596 -0.1364
12948TIP3    H260336   6.441   5.660  15.365 -2.3857  4.3232  1.9001
12949TIP3   OH260337   4.041   1.362   3.992  0.2841  0.6809 -0.1120
12949TIP3    H160338   4.018   1.341   3.901 -1.4351  3.1096 -0.2990
12949TIP3    H260339   4.024   1.281   4.040  1.9270 -0.8685 -2.0312
12950TIP3   OH260340   6.750   6.260  14.514  0.1694 -0.3057 -1.0496
12950TIP3    H160341   6.761   6.332  14.576  1.2066  0.2518 -1.8571
12950TIP3    H260342   6.658   6.266  14.487 -0.7993 -1.7205  1.8117
12951TIP3   OH260343   0.347   0.954   5.053  0.1737  0.5694  0.1133
12951TIP3    H160344   0.253   0.945   5.068  0.1766  1.2684  0.5812
12951TIP3    H260345   0.379   0.865   5.040 -0.8697  0.4584 -1.9581
12952TIP3   OH260346   1.009   1.321   5.984  0.6981  0.4378  0.1252
12952TIP3    H160347   1.084   1.270   5.951 -1.4120 -1.1755 -2.3288
12952TIP3    H260348   0.978   1.270   6.059  0.2518 -0.4612 -0.6657
12953TIP3   OH260349   3.533   6.532   4.417 -0.5167 -0.9372 -0.1788
12953TIP3    H160350   3.558   6.592   4.487 -0.2055 -0.3079 -0.8243
12953TIP3    H260351   3.443   6.507   4.438 -0.2886 -1.0781  0.6653
12954TIP3   OH260352   5.975   5.415   4.154 -0.3045  0.0424 -0.4223
12954TIP3    H160353   5.974   5.446   4.063  1.8661  0.6681 -0.2683
12954TIP3    H260354   6.049   5.354   4.157 -0.1833  0.2455  0.9850
12955TIP3   OH260355   5.218   0.330  13.347 -0.6057  0.2186  0.0635
12955TIP3    H160356   5.295   0.277  13.366 -1.0383  0.2092  1.9096
12955TIP3    H260357   5.252   0.411  13.310  0.3804  0.6179  1.7776
12956TIP3   OH260358   3.697   4.287   3.306  0.4586 -0.0648 -0.2168
12956TIP3    H160359   3.606   4.314   3.294 -0.1186 -1.6684  0.4281
12956TIP3    H260360   3.741   4.366   3.337 -0.7991  0.6265 -0.1572
12957TIP3   OH260361   3.727   3.521   3.219  0.1696 -0.6378 -0.1589
12957TIP3    H160362   3.813   3.480   3.209  0.6996  0.3389  0.3164
12957TIP3    H260363   3.682   3.467   3.284 -0.0916 -1.9408 -1.3794
12958TIP3   OH260364   1.196   3.074  16.863  0.1439  0.0203  0.0552
12958TIP3    H160365   1.198   3.170  16.865 -0.8450  0.0274  1.1170
12958TIP3    H260366   1.227   3.051  16.775 -0.0633  1.3230 -0.3667
12959TIP3   OH260367   1.590   2.360  14.643  0.7718 -0.1477  0.0476
12959TIP3    H160368   1.631   2.281  14.681  3.5615  1.1702 -0.0770
12959TIP3    H260369   1.549   2.330  14.563  0.8127 -1.6955  0.5906
12960TIP3   OH260370   6.287   2.425  15.702  0.6540 -0.0072  0.0689
12960TIP3    H160371   6.228   2.484  15.749  1.0531  0.0144  0.5507
12960TIP3    H260372   6.260   2.338  15.729  0.9167  0.0072  0.3857
12961TIP3   OH260373   1.808   0.997   5.725 -0.0509  0.6772 -0.3971
12961TIP3    H160374   1.779   0.982   5.815  1.1128 -2.5073 -0.4869
12961TIP3    H260375   1.903   0.988   5.728 -0.2535 -3.3999 -2.5340
12962TIP3   OH260376   2.278   6.421   4.759 -0.4755  0.3181 -0.5277
12962TIP3    H160377   2.245   6.510   4.773  0.3403  0.8344 -1.7662
12962TIP3    H260378   2.209   6.364   4.793 -1.8649  1.3911 -1.4776
12963TIP3   OH260379   4.291   3.974   1.601 -0.4343 -0.1803 -0.5006
12963TIP3    H160380   4.270   3.893   1.648 -1.7751 -0.6078 -1.7906
12963TIP3    H260381   4.301   4.039   1.670  1.4230 -1.5747  0.6114
12964TIP3   OH260382   2.661   2.742  12.318 -0.0639  0.2677  0.2115
12964TIP3    H160383   2.673   2.833  12.291 -0.0461 -0.3441 -1.9539
12964TIP3    H260384   2.748   2.703  12.311  0.1551  0.3406  2.2379
12965TIP3   OH260385   2.989   2.886  13.379  0.0741 -0.1138 -0.6643
12965TIP3    H160386   3.007   2.835  13.457  0.3491  0.2672 -0.4800
12965TIP3    H260387   3.003   2.977  13.405 -0.7372  0.0823 -0.8965
12966TIP3   OH260388   4.741   4.965   2.049  0.5246 -0.0591  0.4931
12966TIP3    H160389   4.652   4.987   2.021  0.1936 -2.4284 -0.4447
12966TIP3    H260390   4.772   5.043   2.095 -1.8709  0.9598  0.4342
12967TIP3   OH260391   0.409   6.061  14.161  0.0883  0.3807 -0.4534
12967TIP3    H160392   0.401   6.001  14.235  0.0944  0.2769 -0.5367
12967TIP3    H260393   0.503   6.065  14.143  0.1837  1.2004  0.2021
12968TIP3   OH260394   5.012   6.329  12.912  0.2669  0.0921  0.1704
12968TIP3    H160395   4.971   6.414  12.896  2.4607  0.9371 -1.3508
12968TIP3    H260396   5.014   6.321  13.007 -1.4749  0.9709  0.2991
12969TIP3   OH260397   6.632   1.605  10.732  0.0172 -0.1280  0.7063
12969TIP3    H160398   6.681   1.570  10.806 -0.2710 -1.0319  0.4854
12969TIP3    H260399   6.670   1.561  10.656 -0.4937 -0.1172  0.4410
12970TIP3   OH260400   4.896   6.246  15.145 -0.2447  0.1023 -0.4787
12970TIP3    H160401   4.859   6.317  15.093 -0.4324  1.4709  1.4750
12970TIP3    H260402   4.880   6.272  15.236 -2.0331 -3.3394  0.2756
12971TIP3   OH260403   1.810   3.683  12.704 -0.2070 -0.2568  0.4156
12971TIP3    H160404   1.758   3.618  12.751 -0.6745 -0.5235 -0.4532
12971TIP3    H260405   1.872   3.716  12.769 -0.4613 -1.0302  1.0578
12972TIP3   OH260406   3.316   6.455   2.365 -0.0249  0.1486  0.7603
12972TIP3    H160407   3.226   6.424   2.378  0.4629 -0.8442  1.8684
12972TIP3    H260408   3.326   6.524   2.431 -0.1681  0.6802  0.2286
12973TIP3   OH260409   4.499   3.107   1.399 -0.6491 -0.2424 -0.3715
12973TIP3    H160410   4.520   3.139   1.487  0.0073  1.4840 -1.1264
12973TIP3    H260411   4.424   3.160   1.371 -0.7906 -0.7089 -0.8867
12974TIP3   OH260412   4.724   1.226  13.928  0.0273 -0.0593 -0.1388
12974TIP3    H160413   4.644   1.206  13.976  0.7123  0.0019  1.0587
12974TIP3    H260414   4.746   1.316  13.954  1.1679 -0.5272  0.5302
12975TIP3   OH260415   6.491   0.487  15.338  0.0035 -0.1846 -0.1467
12975TIP3    H160416   6.519   0.434  15.413 -0.7306  0.3137  0.4727
12975TIP3    H260417   6.477   0.423  15.268  3.4074 -0.4134 -0.7065
12976TIP3   OH260418   3.939   0.624   1.533 -0.6028 -0.0934 -0.0352
12976TIP3    H160419   3.906   0.636   1.622 -0.7413  2.7277 -0.4395
12976TIP3    H260420   4.013   0.564   1.544 -0.5339  0.3087  2.0082
12977TIP3   OH260421   2.242   6.615   2.326 -0.2919 -0.1514 -0.6296
12977TIP3    H160422   2.247   6.521   2.340 -0.3429 -0.2077 -0.9895
12977TIP3    H260423   2.160   6.642   2.368  0.7886  0.0756  1.3867
12978TIP3   OH260424   2.876   6.326  15.477 -0.3279  0.4489  0.2007
12978TIP3    H160425   2.937   6.370  15.537 -0.5428  0.5226  0.3681
12978TIP3    H260426   2.913   6.341  15.390  0.6691 -0.7538  0.4037
12979TIP3   OH260427   3.475   2.668   1.187 -0.0193 -0.0892  0.0207
12979TIP3    H160428   3.504   2.735   1.249 -0.1968  0.4894 -0.5174
12979TIP3    H260429   3.484   2.709   1.101 -3.5575  0.5819 -0.1289
12980TIP3   OH260430   6.623   2.941  16.882 -0.4953  0.1170  0.7512
12980TIP3    H160431   6.577   3.023  16.901 -0.6779  0.2393 -0.2271
12980TIP3    H260432   6.631   2.899  16.968 -0.9604  0.8580  1.1696
12981TIP3   OH260433   1.815   4.525   4.075  0.4067 -0.2925 -0.2389
12981TIP3    H160434   1.751   4.550   4.008  0.2442  0.4544  0.1978
12981TIP3    H260435   1.765   4.475   4.139  0.4132 -0.3591 -0.2859
12982TIP3   OH260436   5.097   4.940   0.284 -0.0432  1.0157 -0.4138
12982TIP3    H160437   5.050   4.959   0.203 -1.7995 -1.3118  0.0260
12982TIP3    H260438   5.035   4.961   0.353 -0.1306 -1.2103  0.2014
12983TIP3   OH260439   2.823   0.558   1.901 -0.2262  0.0689  0.0929
12983TIP3    H160440   2.750   0.524   1.953  0.0120  0.9548  1.0167
12983TIP3    H260441   2.895   0.497   1.918  0.1521  0.9098  1.6143
12984TIP3   OH260442   6.193   0.667   0.878  0.4486  0.6014 -0.1073
12984TIP3    H160443   6.152   0.730   0.820  1.8204  1.3952 -0.2448
12984TIP3    H260444   6.172   0.581   0.840 -1.5780  0.9395  0.1894
12985TIP3   OH260445   5.749   6.587  14.473  0.0701  0.1101  0.2872
12985TIP3    H160446   5.666   6.615  14.434 -0.5107 -0.4816  1.0839
12985TIP3    H260447   5.726   6.510  14.525  1.1780 -0.2287  0.2797
12986TIP3   OH260448   1.587   3.844   5.228  0.1262 -0.5499  1.0966
12986TIP3    H160449   1.502   3.865   5.189 -0.8902 -1.3609  2.8239
12986TIP3    H260450   1.631   3.790   5.162 -0.6300  0.0168  0.1187
12987TIP3   OH260451   5.461   1.306  16.768 -0.3324 -0.0812 -0.0180
12987TIP3    H160452   5.553   1.280  16.757 -0.8758 -1.5208 -1.3429
12987TIP3    H260453   5.433   1.259  16.847 -0.4371 -1.1558 -0.6751
12988TIP3   OH260454   1.644   0.473   0.485  0.4935 -0.2663  0.0683
12988TIP3    H160455   1.678   0.384   0.481  1.4768  0.1315 -0.4048
12988TIP3    H260456   1.637   0.500   0.394 -1.9979 -0.6773  0.0969
12989TIP3   OH260457   5.982   2.989  14.788  0.3622 -0.3190 -0.5329
12989TIP3    H160458   5.943   2.950  14.710  0.1404 -1.6094  0.2034
12989TIP3    H260459   6.075   2.968  14.782  0.8507  2.0431 -1.8687
12990TIP3   OH260460   6.377   2.456   0.954  0.2582 -0.7545 -0.0990
12990TIP3    H160461   6.415   2.391   1.012  1.2501  0.0696  0.1911
12990TIP3    H260462   6.445   2.523   0.945  0.5707 -1.4059 -3.1092
12991TIP3   OH260463   4.547   1.457  15.008  0.0487 -0.8091 -0.2124
12991TIP3    H160464   4.576   1.477  15.097  0.8883 -1.0399 -0.4199
12991TIP3    H260465   4.464   1.503  14.998  0.5016  0.1274  0.3133
12992TIP3   OH260466   5.031   3.408  16.618  0.1396  0.3183 -0.4818
12992TIP3    H160467   5.004   3.338  16.559 -0.5909  0.4941 -0.3726
12992TIP3    H260468   4.948   3.441  16.655  0.6400 -0.3696  1.2978
12993TIP3   OH260469   3.854   3.479   1.439 -0.4744 -0.1987 -0.0810
12993TIP3    H160470   3.895   3.507   1.357 -1.6140 -0.2098 -0.6818
12993TIP3    H260471   3.830   3.561   1.482  0.9969 -0.1748  0.7139
12994TIP3   OH260472   5.224   2.126  11.925  0.6665  0.1134  0.7077
12994TIP3    H160473   5.148   2.068  11.921  0.3653  0.4863  1.0330
12994TIP3    H260474   5.187   2.214  11.921  1.0089  0.3184  1.7644
12995TIP3   OH260475   6.814   5.489   1.767 -0.3536  0.0422  0.6038
12995TIP3    H160476   6.851   5.429   1.831  3.1218  1.5868  0.1330
12995TIP3    H260477   6.806   5.572   1.814 -0.4346  0.4693 -0.1554
12996TIP3   OH260478   4.753   4.647  13.100  0.1985 -0.0932 -0.1022
12996TIP3    H160479   4.849   4.650  13.095  0.3270 -0.4560  1.7114
12996TIP3    H260480   4.735   4.627  13.192 -1.6880  2.3186  0.0859
12997TIP3   OH260481   5.152   1.759   1.242 -0.1474 -0.0379 -0.1802
12997TIP3    H160482   5.209   1.688   1.269 -0.6694 -1.1318 -1.8539
12997TIP3    H260483   5.211   1.824   1.203  0.2417  0.0738  0.5986
12998TIP3   OH260484   2.889   4.390  10.791  0.2358 -0.0024 -0.0771
12998TIP3    H160485   2.925   4.342  10.866  1.3680 -0.1143 -0.6822
12998TIP3    H260486   2.960   4.392  10.727 -0.9420 -0.5335 -1.4458
12999TIP3   OH260487   0.204   3.498   0.984  0.0852  0.4093 -0.2874
12999TIP3    H160488   0.165   3.440   0.919 -0.2549 -0.9182  1.0894
12999TIP3    H260489   0.142   3.569   0.993 -0.7526 -0.3481 -0.0517
13000TIP3   OH260490   6.357   3.863   2.717 -0.6992 -0.0838  0.1054
13000TIP3    H160491   6.312   3.947   2.729  0.5681  0.4631  1.1116
13000TIP3    H260492   6.304   3.817   2.652 -2.0565  1.0175  0.4124
13001TIP3   OH260493   0.588   0.974   1.030  0.4234  0.1559  0.2569
13001TIP3    H160494   0.589   0.879   1.031 -0.7411  0.1292 -0.6581
13001TIP3    H260495   0.501   0.998   1.061 -0.0007  0.8799 -1.4732
13002TIP3   OH260496   4.399   1.855  11.662  0.0040 -0.1143  0.1321
13002TIP3    H160497   4.491   1.869  11.688 -0.8948  2.7950  2.0926
13002TIP3    H260498   4.366   1.791  11.725  0.6175 -1.0318 -0.4657
13003TIP3   OH260499   5.834   2.696  16.728  0.3983  0.9317 -0.0012
13003TIP3    H160500   5.858   2.743  16.648 -1.9214  0.3500 -1.1044
13003TIP3    H260501   5.877   2.611  16.720 -0.5114  0.5538 -1.0835
13004TIP3   OH260502   0.094   6.792  11.480 -0.4151  0.4058  0.1148
13004TIP3    H160503   0.009   6.797  11.524 -0.8574  1.8650 -0.9005
13004TIP3    H260504   0.142   6.867  11.514  0.8699 -0.9924  1.4743
13005TIP3   OH260505   0.697   2.301  13.470 -0.4955  0.2758 -0.2477
13005TIP3    H160506   0.788   2.300  13.499 -0.0157 -0.0252 -1.7005
13005TIP3    H260507   0.687   2.385  13.425 -1.3405  0.9155  1.0947
13006TIP3   OH260508   4.015   3.534  13.189  0.0298 -0.0916  0.4511
13006TIP3    H160509   4.075   3.603  13.161  2.1366 -2.4324 -1.1432
13006TIP3    H260510   4.066   3.481  13.250 -1.0204 -1.0645  0.5125
13007TIP3   OH260511   0.972   2.614  14.883 -0.2700 -0.5910  0.2927
13007TIP3    H160512   0.897   2.606  14.824 -0.6960 -1.7030  0.9752
13007TIP3    H260513   1.006   2.525  14.891  1.4120 -0.0269 -0.3640
13008TIP3   OH260514   6.180   0.121   3.848  0.1953  0.5103  0.0351
13008TIP3    H160515   6.142   0.034   3.850  1.9586 -0.2703 -0.0210
13008TIP3    H260516   6.183   0.149   3.940  1.5312 -0.3404  0.2628
13009TIP3   OH260517   5.540   5.046  16.164  0.2263 -0.0637  0.5792
13009TIP3    H160518   5.542   4.978  16.231  1.3455 -0.1767  0.4248
13009TIP3    H260519   5.582   5.122  16.204  0.3901  0.0495  0.1978
13010TIP3   OH260520   4.261   2.925  14.852  0.5183  0.1429  0.1528
13010TIP3    H160521   4.315   2.992  14.894  0.0859  1.3946 -1.2211
13010TIP3    H260522   4.213   2.972  14.784 -1.6629 -1.1116  0.7712
13011TIP3   OH260523   4.698   1.376   5.232 -0.3945 -0.1224  0.0920
13011TIP3    H160524   4.686   1.294   5.279  1.9156 -0.9823 -0.7315
13011TIP3    H260525   4.722   1.349   5.143 -1.7362  1.4598 -0.7759
13012TIP3   OH260526   6.263   4.562   3.806 -0.8892 -0.5493 -0.1256
13012TIP3    H160527   6.271   4.618   3.884 -0.0571 -0.1597 -0.4875
13012TIP3    H260528   6.310   4.482   3.830 -1.3706 -0.7697  0.0871
13013TIP3   OH260529   0.126   3.394  13.912  0.0236  0.2815 -0.0937
13013TIP3    H160530   0.131   3.403  14.007 -0.7691  0.2495 -0.0423
13013TIP3    H260531   0.063   3.461  13.885  0.0541  0.1222 -0.5671
13014TIP3   OH260532   2.322   5.509  12.444  0.3275 -0.1204  0.4460
13014TIP3    H160533   2.394   5.454  12.476  1.2390  1.6765  1.6340
13014TIP3    H260534   2.243   5.462  12.469  1.0824 -0.8905  1.4531
13015TIP3   OH260535   0.776   1.676  11.706 -0.2575  0.0708  0.5191
13015TIP3    H160536   0.694   1.725  11.721  0.3087  0.5972  2.0351
13015TIP3    H260537   0.824   1.730  11.643 -0.3563  0.6176  0.9047
13016TIP3   OH260538   2.002   5.610  11.534  0.2062  0.0999 -0.1144
13016TIP3    H160539   1.961   5.592  11.450  0.1965 -0.6081  0.0380
13016TIP3    H260540   2.042   5.697  11.524 -1.3175  0.7991 -0.2683
13017TIP3   OH260541   3.065   6.356   2.433  0.3445 -0.1080 -0.1702
13017TIP3    H160542   3.028   6.401   2.357 -0.1222  0.3371  0.3127
13017TIP3    H260543   2.988   6.321   2.479  0.6799 -1.0818 -0.3502
13018TIP3   OH260544   6.143   0.889   3.456 -0.6129  0.3075  0.3607
13018TIP3    H160545   6.059   0.855   3.488 -0.5591 -2.6583 -2.3431
13018TIP3    H260546   6.208   0.849   3.513 -0.9677  3.1094  2.8692
13019TIP3   OH260547   4.788   6.364   4.248 -0.0823 -0.6015 -0.0160
13019TIP3    H160548   4.846   6.432   4.283 -1.9953 -0.1849  2.4806
13019TIP3    H260549   4.706   6.410   4.228 -1.3202 -2.1123  1.4603
13020TIP3   OH260550   3.032   1.007   4.182 -0.7041 -0.1170 -0.0916
13020TIP3    H160551   3.051   1.098   4.161  0.8546 -0.3951  0.0354
13020TIP3    H260552   3.002   1.009   4.273  0.0822  0.1949  0.1694
13021TIP3   OH260553   0.199   1.347   0.024 -0.0537 -0.0759  0.3009
13021TIP3    H160554   0.271   1.293   0.055  0.5422  1.8369  2.3613
13021TIP3    H260555   0.120   1.299   0.048  0.4477  0.3694  2.9518
13022TIP3   OH260556   0.938   2.276  12.792  0.1285  0.0435  0.2313
13022TIP3    H160557   1.030   2.289  12.813  0.2532 -0.2612 -0.1286
13022TIP3    H260558   0.918   2.344  12.727  0.3087 -0.4026 -0.2925
13023TIP3   OH260559   4.319   2.893  13.526  0.6748 -0.1410  0.4740
13023TIP3    H160560   4.262   2.822  13.495  0.7802 -0.3404  0.7358
13023TIP3    H260561   4.388   2.848  13.575  0.9877  0.1095  0.2632
13024TIP3   OH260562   2.337   5.686   3.390  0.5028 -0.1608 -0.0856
13024TIP3    H160563   2.256   5.690   3.442  0.6956 -0.4370  0.2396
13024TIP3    H260564   2.338   5.769   3.341 -0.8649 -0.9237 -1.4347
13025TIP3   OH260565   3.825   6.349  12.693  0.0497  0.3957  0.3320
13025TIP3    H160566   3.826   6.412  12.764  0.3429  0.7938 -0.0219
13025TIP3    H260567   3.791   6.269  12.732  0.2819  0.5911  0.9355
13026TIP3   OH260568   5.402   5.809  16.657 -0.2990 -0.0613 -0.0289
13026TIP3    H160569   5.389   5.720  16.625  1.0075  0.4505 -2.0269
13026TIP3    H260570   5.315   5.836  16.688 -0.7376 -1.9491  0.4682
13027TIP3   OH260571   0.397   3.435  14.990 -0.3523  0.0286 -0.1488
13027TIP3    H160572   0.410   3.472  15.078 -1.8531 -0.1736  0.1700
13027TIP3    H260573   0.451   3.489  14.933 -1.2499  1.6940  0.5510
13028TIP3   OH260574   6.293   4.226  13.359  0.2713 -0.4744 -0.4173
13028TIP3    H160575   6.377   4.229  13.404 -0.3129 -0.5322  0.7164
13028TIP3    H260576   6.261   4.316  13.361  0.9680 -0.1606 -2.1847
13029TIP3   OH260577   2.840   1.533  16.124 -0.5397  0.0050  0.1523
13029TIP3    H160578   2.916   1.515  16.068 -0.6322  0.0644  0.0053
13029TIP3    H260579   2.847   1.470  16.195 -0.2501  0.1355  0.2397
13030TIP3   OH260580   3.327   2.642   2.905 -0.1433  0.5957 -0.5222
13030TIP3    H160581   3.410   2.685   2.925  0.0710 -0.1783  0.2874
13030TIP3    H260582   3.261   2.697   2.947  0.0312  0.7352 -0.4298
13031TIP3   OH260583   1.750   3.238  11.946 -0.5283 -0.2342 -0.6792
13031TIP3    H160584   1.800   3.278  11.874  0.1034  0.4640  0.1310
13031TIP3    H260585   1.686   3.305  11.969 -0.0250 -0.0194  0.1159
13032TIP3   OH260586   2.130   2.267  15.009  0.1049 -0.3696  0.4887
13032TIP3    H160587   2.082   2.320  15.073  0.9034  0.1351  0.6789
13032TIP3    H260588   2.184   2.330  14.961  1.6917 -1.0955  1.2808
13033TIP3   OH260589   2.940   3.535   1.424 -0.1514  0.0637  0.8507
13033TIP3    H160590   2.854   3.549   1.462 -0.9497 -0.9951 -0.5004
13033TIP3    H260591   2.974   3.457   1.469 -1.1816 -1.3123 -0.6879
13034TIP3   OH260592   0.082   1.246  15.133  0.2578 -0.5725  0.0328
13034TIP3    H160593   0.009   1.295  15.170  1.8114  0.8490  1.2713
13034TIP3    H260594   0.113   1.300  15.060  0.9972 -0.4567  0.4307
13035TIP3   OH260595   1.783   0.444   5.340 -0.2364  0.3505  0.2993
13035TIP3    H160596   1.774   0.475   5.250 -0.0685  1.3962  0.6314
13035TIP3    H260597   1.729   0.504   5.391  0.1622  0.1378  0.9742
13036TIP3   OH260598   5.671   6.330  11.922 -0.2021  0.1436  0.2570
13036TIP3    H160599   5.658   6.313  11.829 -0.2200  1.0609  0.0800
13036TIP3    H260600   5.590   6.302  11.963  0.2655 -1.3982  0.1606
13037TIP3   OH260601   5.932   3.707   0.828 -0.1226  0.2441  0.2700
13037TIP3    H160602   5.899   3.664   0.749  1.0018 -0.4261  0.1576
13037TIP3    H260603   5.854   3.716   0.884 -1.0144  1.1019 -1.0576
13038TIP3   OH260604   4.067   0.571   0.191  0.4163 -0.7645  0.0456
13038TIP3    H160605   4.115   0.649   0.218 -0.5515 -0.8335  2.0440
13038TIP3    H260606   4.000   0.604   0.130 -1.3687  0.3169  2.5098
13039TIP3   OH260607   5.392   0.954   0.917 -0.2320 -0.2671  0.2612
13039TIP3    H160608   5.418   0.926   1.004 -0.5253 -0.3479  0.3211
13039TIP3    H260609   5.424   0.884   0.859  0.2816 -0.0372  0.2641
13040TIP3   OH260610   5.123   0.256  15.361  0.3546 -0.3493 -0.4874
13040TIP3    H160611   5.165   0.257  15.275 -0.4708 -0.9675 -0.9144
13040TIP3    H260612   5.073   0.174  15.362  0.5622 -0.4677  0.6814
13041TIP3   OH260613   5.758   1.601   1.106 -0.0586 -0.3257  0.1934
13041TIP3    H160614   5.689   1.660   1.135 -0.5413 -0.9089  0.2318
13041TIP3    H260615   5.835   1.657   1.096 -0.1956  0.0889  1.4121
13042TIP3   OH260616   1.598   1.778   5.244  0.4446 -0.1770  0.9081
13042TIP3    H160617   1.659   1.705   5.231  0.2990 -0.0766 -0.3992
13042TIP3    H260618   1.618   1.810   5.332  0.3528 -1.9393  1.5877
13043TIP3   OH260619   2.097   6.390  14.828  0.2966 -0.1728  0.0125
13043TIP3    H160620   2.094   6.472  14.878 -0.1306 -0.1322 -0.0718
13043TIP3    H260621   2.158   6.406  14.757 -2.2831  1.2175 -1.9891
13044TIP3   OH260622   0.894   0.056  17.050 -0.1147  0.2572 -0.2602
13044TIP3    H160623   0.912   0.115  17.123 -1.0014 -0.0171  0.1863
13044TIP3    H260624   0.846  -0.017  17.089 -0.9456  0.3006 -1.1780
13045TIP3   OH260625   4.169   4.607  13.091 -0.2092 -0.0374  0.4758
13045TIP3    H160626   4.095   4.546  13.098 -0.9663  0.8728  0.5425
13045TIP3    H260627   4.220   4.574  13.017 -0.0645 -1.3227  1.1257
13046TIP3   OH260628   4.689   1.719   1.983 -0.5367 -0.3145 -0.2328
13046TIP3    H160629   4.615   1.779   1.992  0.3416  0.4799  2.1726
13046TIP3    H260630   4.692   1.673   2.067  1.0341 -1.0974 -0.7106
13047TIP3   OH260631   4.101   1.447  13.733  0.0506  0.5994  0.2076
13047TIP3    H160632   4.105   1.357  13.700 -0.8567  0.7343 -0.2942
13047TIP3    H260633   4.040   1.491  13.674  0.2950  1.4784  0.6087
13048TIP3   OH260634   0.977   0.312   2.767 -0.5079 -0.2652 -0.0885
13048TIP3    H160635   0.978   0.306   2.863 -1.7613  1.0802  0.0215
13048TIP3    H260636   1.051   0.369   2.746 -1.9513  1.8078  0.2911
13049TIP3   OH260637   4.552   3.253   5.819  0.0407 -0.5910  0.2031
13049TIP3    H160638   4.588   3.176   5.776  1.8646  0.9817 -1.1765
13049TIP3    H260639   4.463   3.262   5.784  0.8354 -0.4389 -1.8018
13050TIP3   OH260640   3.472   3.765   1.192  0.6767  0.1203  0.1917
13050TIP3    H160641   3.466   3.861   1.190  2.0649  0.2140 -1.8654
13050TIP3    H260642   3.556   3.746   1.150 -0.5132 -2.0598 -1.2953
13051TIP3   OH260643   2.839   0.215   4.150  0.0764  0.5118 -0.2636
13051TIP3    H160644   2.766   0.209   4.210 -1.1964 -0.4745 -1.8700
13051TIP3    H260645   2.917   0.203   4.205 -1.0546 -0.3619  1.1760
13052TIP3   OH260646   1.032   3.314  13.577 -0.4775  0.1185  0.1426
13052TIP3    H160647   0.950   3.269  13.556  0.6282 -2.1267  0.4667
13052TIP3    H260648   1.035   3.316  13.673  0.0345 -0.2041  0.1381
13053TIP3   OH260649   3.589   1.950  10.869 -0.2242  0.0472 -0.0146
13053TIP3    H160650   3.644   1.888  10.821  0.2555 -0.1845  0.8168
13053TIP3    H260651   3.513   1.898  10.896  1.7036 -1.1084  3.5255
13054TIP3   OH260652   5.500   1.497   2.135  0.1583 -0.1856 -0.2777
13054TIP3    H160653   5.560   1.487   2.062  0.1772 -0.1520 -0.2667
13054TIP3    H260654   5.443   1.570   2.110  1.2084  0.8945  0.4533
13055TIP3   OH260655   4.102   5.178  17.147  0.1106  0.3424  0.2548
13055TIP3    H160656   4.098   5.126  17.227  1.5068 -0.5115 -0.2138
13055TIP3    H260657   4.014   5.174  17.111 -0.1607 -0.4633  0.9981
13056TIP3   OH260658   3.824   4.167   4.682 -0.2868 -0.5564  0.0243
13056TIP3    H160659   3.830   4.099   4.614 -0.1831 -1.4480  0.9040
13056TIP3    H260660   3.750   4.139   4.736  1.4639 -1.4979  2.0213
13057TIP3   OH260661   2.150   0.004   4.164  0.0183 -0.4007 -0.5740
13057TIP3    H160662   2.103   0.043   4.090 -1.4321 -1.0401 -0.0121
13057TIP3    H260663   2.082  -0.011   4.230  1.2416 -0.1199  0.7759
13058TIP3   OH260664   6.784   6.590   1.207 -0.3582 -0.5629  0.5123
13058TIP3    H160665   6.764   6.498   1.192  0.7887 -1.2879  3.1174
13058TIP3    H260666   6.878   6.597   1.194  0.1196 -0.5190  3.6242
13059TIP3   OH260667   3.434   3.693   3.055 -0.1738 -0.1098  0.1861
13059TIP3    H160668   3.428   3.612   3.106  0.1071 -0.5288 -0.4482
13059TIP3    H260669   3.475   3.667   2.973  0.2262  0.7434  0.1138
13060TIP3   OH260670   1.537   2.356  15.505 -0.8709 -0.1083 -0.2612
13060TIP3    H160671   1.537   2.337  15.599  0.0737 -0.2397 -0.2825
13060TIP3    H260672   1.586   2.437  15.497 -0.0778 -0.6243 -0.7393
13061TIP3   OH260673   1.099   3.771   1.101  0.2843  0.2368  0.6293
13061TIP3    H160674   1.111   3.734   1.014  0.7183  2.2597 -0.1819
13061TIP3    H260675   1.069   3.860   1.086  0.3646  0.6152  2.5542
13062TIP3   OH260676   0.219   6.796  11.953  0.5153  0.1679 -0.4252
13062TIP3    H160677   0.219   6.703  11.974  1.6731  0.8254  2.6178
13062TIP3    H260678   0.127   6.817  11.938 -0.0268 -0.9723  1.2142
13063TIP3   OH260679   6.264   1.004   4.910 -0.0707 -0.1168 -0.0102
13063TIP3    H160680   6.200   0.949   4.955 -2.2241  2.9340  0.8322
13063TIP3    H260681   6.231   1.093   4.922  2.7070  1.2825 -2.2480
13064TIP3   OH260682   0.995   5.298   2.912 -0.1579 -0.2206  0.0368
13064TIP3    H160683   1.069   5.258   2.958 -3.4178 -2.5026  3.6628
13064TIP3    H260684   0.996   5.389   2.940  0.2843 -0.6397  1.4189
13065TIP3   OH260685   0.912   2.774  15.945  0.0841 -0.2129 -0.1985
13065TIP3    H160686   0.819   2.754  15.948  0.3662 -1.4058  0.6685
13065TIP3    H260687   0.936   2.790  16.036  1.0903 -1.6075 -0.2025
13066TIP3   OH260688   2.629   2.825   5.934 -0.1848  0.6398 -0.1657
13066TIP3    H160689   2.664   2.776   6.009 -1.2651  2.4524  1.5409
13066TIP3    H260690   2.549   2.778   5.910  0.4409 -0.2554 -0.5496
13067TIP3   OH260691   6.169   4.138   5.352  0.0446  0.7200  0.5503
13067TIP3    H160692   6.217   4.080   5.412  0.1322  0.3099  0.0919
13067TIP3    H260693   6.167   4.089   5.269  1.1809  1.8818 -0.1884
13068TIP3   OH260694   2.245   2.228  14.662  0.4774  0.4489 -0.4250
13068TIP3    H160695   2.302   2.293  14.702  0.6354 -0.7762  1.3822
13068TIP3    H260696   2.280   2.144  14.690 -2.5829 -0.3258  1.3632
13069TIP3   OH260697   3.440   5.006  13.824 -0.2062 -0.1921 -0.2196
13069TIP3    H160698   3.435   4.987  13.730  0.7974  0.7475 -0.4762
13069TIP3    H260699   3.417   5.099  13.831  1.8671  0.3069  0.2077
13070TIP3   OH260700   5.339   2.048   4.692 -0.1805 -0.4128 -0.2035
13070TIP3    H160701   5.419   2.091   4.661 -0.4510  0.0524 -0.2654
13070TIP3    H260702   5.367   1.998   4.769  0.2585 -0.6125 -0.4851
13071TIP3   OH260703   3.339   3.560   2.098  0.0034 -0.1437  0.0183
13071TIP3    H160704   3.385   3.488   2.055 -1.0446 -0.6545 -0.2340
13071TIP3    H260705   3.256   3.523   2.126 -0.5870  0.9914 -0.2075
13072TIP3   OH260706   5.543   6.617   4.690 -0.2808 -0.1388 -0.7906
13072TIP3    H160707   5.583   6.568   4.617  2.3378  0.1491  0.4208
13072TIP3    H260708   5.519   6.549   4.753 -1.3876 -0.2658 -1.3153
13073TIP3   OH260709   5.785   1.604  14.917  0.1260  0.4497  0.2159
13073TIP3    H160710   5.852   1.590  14.985 -0.5518 -0.5157  0.6989
13073TIP3    H260711   5.812   1.547  14.845 -0.3705 -0.2224  0.5562
13074TIP3   OH260712   6.037   0.813   4.804 -0.3310 -0.0069  0.2565
13074TIP3    H160713   5.986   0.888   4.773 -1.4584 -1.1625 -0.7967
13074TIP3    H260714   6.100   0.796   4.734 -1.4010 -1.2478 -0.4375
13075TIP3   OH260715   5.153   0.575   5.690 -0.1120  0.0377  0.2202
13075TIP3    H160716   5.122   0.530   5.612 -0.5880  0.1547  0.3394
13075TIP3    H260717   5.109   0.531   5.762  2.1174 -1.6050  0.6251
13076TIP3   OH260718   0.757   3.894   1.427 -0.6412 -0.3103 -0.3563
13076TIP3    H160719   0.829   3.951   1.455  0.3800 -1.4719 -0.5738
13076TIP3    H260720   0.794   3.805   1.431 -2.3765 -1.0239  0.5274
13077TIP3   OH260721   5.686   5.733  11.335 -0.1491 -0.0952  0.3462
13077TIP3    H160722   5.751   5.667  11.359 -0.5612 -0.3492  0.7906
13077TIP3    H260723   5.602   5.695  11.364 -0.6522 -0.3723 -1.3980
13078TIP3   OH260724   1.437   3.809   2.015  0.3065 -0.2445  0.2711
13078TIP3    H160725   1.468   3.796   2.105 -0.5621  1.0322  0.7724
13078TIP3    H260726   1.504   3.864   1.974  0.2567 -0.0715  0.4184
13079TIP3   OH260727   6.317   4.889   0.251  0.1033 -0.1367  0.4864
13079TIP3    H160728   6.306   4.981   0.226  0.4778  0.2599  1.7553
13079TIP3    H260729   6.233   4.865   0.290  0.4089  0.0227  1.2499
13080TIP3   OH260730   3.579   2.551  13.269 -0.6569  0.3909  0.7321
13080TIP3    H160731   3.521   2.590  13.204  0.3774 -1.0480 -1.1164
13080TIP3    H260732   3.657   2.607  13.270 -0.2166 -0.1966 -0.0902
13081TIP3   OH260733   1.266   2.765   5.396  0.0381 -0.4783  0.0240
13081TIP3    H160734   1.308   2.850   5.407  0.0174 -0.3382 -0.8658
13081TIP3    H260735   1.188   2.784   5.342 -1.4090 -0.6588  1.9975
13082TIP3   OH260736   6.659   6.687  14.879 -0.2305  0.1200 -0.2345
13082TIP3    H160737   6.610   6.660  14.956  2.3284  0.9455  1.7300
13082TIP3    H260738   6.678   6.780  14.893  2.4493 -0.3170 -0.5966
13083TIP3   OH260739   3.356   0.552   5.558  0.6989 -0.5348 -0.7397
13083TIP3    H160740   3.397   0.609   5.493  0.7881  1.3716  0.9348
13083TIP3    H260741   3.426   0.532   5.620 -0.1603  0.3627  0.5463
13084TIP3   OH260742   5.278   6.685   3.796 -0.7655 -0.6175  0.3625
13084TIP3    H160743   5.250   6.614   3.854 -0.4673 -0.3791  0.8025
13084TIP3    H260744   5.339   6.643   3.735 -1.2159 -0.9060  0.1151
13085TIP3   OH260745   5.312   0.211   4.597  0.4227 -0.2536 -0.1882
13085TIP3    H160746   5.301   0.117   4.586  0.5193 -0.2484 -0.3263
13085TIP3    H260747   5.302   0.225   4.692  0.1540 -0.3675 -0.1981
13086TIP3   OH260748   1.203   3.358  16.767  0.6768  0.2126 -0.0126
13086TIP3    H160749   1.195   3.388  16.858  1.9215  0.8348 -0.1057
13086TIP3    H260750   1.115   3.366  16.731  0.5532  1.7062  0.6000
13087TIP3   OH260751   0.776   6.394   3.042 -0.3416  0.4452 -0.8093
13087TIP3    H160752   0.815   6.327   2.986  2.6519 -0.0292  1.6619
13087TIP3    H260753   0.684   6.369   3.050  0.8037 -3.8235  0.5377
13088TIP3   OH260754   0.332   6.465  15.145  0.0942  0.0651 -0.5899
13088TIP3    H160755   0.329   6.463  15.050  0.7764  0.7150 -0.6326
13088TIP3    H260756   0.300   6.553  15.168  1.2907  0.4327 -0.2891
13089TIP3   OH260757   0.171   1.238   3.685  0.6836  0.0691 -0.5768
13089TIP3    H160758   0.144   1.322   3.647 -1.0742  0.2009  0.9307
13089TIP3    H260759   0.262   1.228   3.657  0.2807  1.4826 -2.4992
13090TIP3   OH260760   6.002   2.864  15.437 -0.4675  0.7870 -0.0597
13090TIP3    H160761   6.050   2.850  15.355 -0.7003 -1.8698  0.2156
13090TIP3    H260762   5.958   2.948  15.424  2.3977  2.1821 -1.2141
13091TIP3   OH260763   0.751   3.218  14.271  0.2430  1.0810  0.3411
13091TIP3    H160764   0.722   3.143  14.323 -2.2858  1.5781 -0.2802
13091TIP3    H260765   0.731   3.294  14.327 -1.4538  1.5460 -0.8578
13092TIP3   OH260766   1.309   0.231  16.481  0.4892  0.2012  0.1702
13092TIP3    H160767   1.391   0.190  16.454 -0.9706 -2.7353 -0.0371
13092TIP3    H260768   1.243   0.195  16.421 -0.8743  3.0298 -0.1174
13093TIP3   OH260769   3.643   2.926   0.003 -0.2867 -0.3578  0.0494
13093TIP3    H160770   3.583   2.943   0.075 -0.9972 -0.2329 -0.5663
13093TIP3    H260771   3.669   3.013  -0.028  1.6267 -0.4059  1.4738
13094TIP3   OH260772   2.124   4.042   1.509 -0.1839  0.0216 -0.4059
13094TIP3    H160773   2.076   3.995   1.577 -0.5456  0.3658 -0.4180
13094TIP3    H260774   2.190   3.980   1.479 -0.2594 -0.2620  0.0026
13095TIP3   OH260775   3.687   0.035  11.335  0.1830  0.3524 -0.5367
13095TIP3    H160776   3.635   0.053  11.257 -0.8068 -3.2142 -0.7725
13095TIP3    H260777   3.778   0.044  11.305 -0.1903 -0.2778 -1.9146
13096TIP3   OH260778   0.168   1.813   2.615 -0.1249  0.4318  0.0320
13096TIP3    H160779   0.114   1.736   2.596  1.0664 -0.3133 -0.4528
13096TIP3    H260780   0.231   1.782   2.681 -0.0022  1.1524  0.2580
13097TIP3   OH260781   1.433   6.446   2.975 -0.6158 -0.5328 -0.3651
13097TIP3    H160782   1.340   6.468   2.981 -0.1373  1.5103  0.0016
13097TIP3    H260783   1.474   6.495   3.047  0.5666 -2.3903  0.2471
13098TIP3   OH260784   5.041   4.159   0.843  0.5386 -0.4947 -0.2602
13098TIP3    H160785   5.105   4.230   0.850 -0.5283  0.4737 -0.1986
13098TIP3    H260786   5.006   4.149   0.931  0.5507 -0.9763 -0.3086
13099TIP3   OH260787   1.908   6.238  11.372 -0.3386 -0.0613  0.0921
13099TIP3    H160788   1.997   6.211  11.395  0.3407  1.9055 -0.1214
13099TIP3    H260789   1.902   6.222  11.277  0.2383  0.9660 -0.1277
13100TIP3   OH260790   2.218   3.922   2.393 -0.0371 -0.3291 -0.3020
13100TIP3    H160791   2.165   3.894   2.318 -0.1334 -0.6643 -0.1061
13100TIP3    H260792   2.274   3.991   2.357 -1.3870  0.8235 -0.2573
13101TIP3   OH260793   3.005   1.009  14.100 -0.6738  0.4490  0.1025
13101TIP3    H160794   3.069   0.941  14.082 -0.0569  0.4974  1.9261
13101TIP3    H260795   3.003   1.014  14.196 -2.4184  1.3775  0.0308
13102TIP3   OH260796   5.651   2.766  17.174  0.6783 -1.2220  0.0563
13102TIP3    H160797   5.676   2.799  17.088  1.0276 -0.7451  0.3392
13102TIP3    H260798   5.655   2.671  17.166  1.0735 -1.1700 -0.3409
13103TIP3   OH260799   6.503   2.937   3.652 -0.1351 -0.1962  0.2213
13103TIP3    H160800   6.541   2.930   3.739 -0.6076  1.5935  0.5885
13103TIP3    H260801   6.532   3.022   3.620  0.5154 -1.0793 -1.6157
13104TIP3   OH260802   0.877   5.881   0.866  0.0313 -0.1120 -0.7753
13104TIP3    H160803   0.939   5.951   0.846  0.1115  0.9242  2.7360
13104TIP3    H260804   0.792   5.919   0.846  0.0350  1.2354  1.5938
13105TIP3   OH260805   1.109   6.563  10.590 -0.3599  0.2523  0.0921
13105TIP3    H160806   1.109   6.544  10.684 -1.2064  0.2018  0.0853
13105TIP3    H260807   1.151   6.649  10.583  2.0424 -0.8741  0.2669
13106TIP3   OH260808   4.472   6.276   4.622 -0.1845  0.0807 -0.4070
13106TIP3    H160809   4.387   6.285   4.665 -0.0442  3.7760 -0.7636
13106TIP3    H260810   4.534   6.311   4.686  0.8757 -0.9630 -0.8501
13107TIP3   OH260811   4.705   4.706   1.392  0.2204  0.1790  0.3463
13107TIP3    H160812   4.654   4.632   1.425  1.2441  0.2973  2.2768
13107TIP3    H260813   4.651   4.783   1.413 -0.4427  0.0634 -0.8773
13108TIP3   OH260814   3.641   2.575   2.420  0.3698 -0.1399 -0.5791
13108TIP3    H160815   3.630   2.637   2.492 -2.5198 -0.1830 -0.9058
13108TIP3    H260816   3.688   2.625   2.353  1.0689  0.6226  0.4789
13109TIP3   OH260817   5.640   5.626  11.769  0.2472 -0.4789  0.1431
13109TIP3    H160818   5.564   5.604  11.824 -0.4181  0.0087 -0.5835
13109TIP3    H260819   5.695   5.547  11.772 -0.0362 -0.6468  1.0867
13110TIP3   OH260820   4.986   0.715   4.605  0.7391 -0.5320 -0.2120
13110TIP3    H160821   5.055   0.781   4.599 -0.9350  1.2890 -0.0639
13110TIP3    H260822   5.006   0.666   4.684  0.4605  1.6833  1.2883
13111TIP3   OH260823   1.994   1.278   1.247  0.3988  0.6096  0.0369
13111TIP3    H160824   2.079   1.277   1.203  0.5382  0.4385  0.3119
13111TIP3    H260825   1.958   1.365   1.228  1.2069  1.1613  1.0084
13112TIP3   OH260826   3.817   2.579   4.225 -0.0401  0.0692  0.3209
13112TIP3    H160827   3.911   2.565   4.237  0.3177  1.8624 -0.2410
13112TIP3    H260828   3.804   2.579   4.130 -0.6452 -0.3280  0.3981
13113TIP3   OH260829   5.711   0.231   2.752 -0.4487  0.0585  0.5172
13113TIP3    H160830   5.679   0.205   2.666  0.6832 -1.3965  0.5223
13113TIP3    H260831   5.773   0.301   2.735 -1.2420  0.7049  0.2605
13114TIP3   OH260832   1.683   2.586   6.472 -0.1359  0.8802 -0.1173
13114TIP3    H160833   1.648   2.519   6.412  1.5214 -2.7119  2.7494
13114TIP3    H260834   1.618   2.592   6.542 -0.1696  2.2207 -0.2390
13115TIP3   OH260835   0.102   2.805  14.358  0.3013 -0.3952 -0.2568
13115TIP3    H160836   0.115   2.843  14.271 -2.8452  1.4106 -0.0035
13115TIP3    H260837   0.160   2.855  14.415 -0.7224  1.2666 -0.6460
13116TIP3   OH260838   3.516   5.664  15.628 -0.3448  0.0213 -0.1875
13116TIP3    H160839   3.425   5.693  15.639 -0.3110  0.9802 -2.2641
13116TIP3    H260840   3.569   5.742  15.645 -0.0706  0.2744 -2.1770
13117TIP3   OH260841   5.822   0.798  11.327  0.6791  0.3271 -0.3053
13117TIP3    H160842   5.901   0.745  11.318  1.7825  1.7140  0.9936
13117TIP3    H260843   5.853   0.887  11.342 -1.0224  0.4797  3.0681
13118TIP3   OH260844   6.447   1.929  16.464  0.9567  0.2777 -0.3489
13118TIP3    H160845   6.451   1.997  16.532  2.3489  0.2836 -0.4307
13118TIP3    H260846   6.435   1.977  16.382 -3.2095  0.1818  0.0611
13119TIP3   OH260847   4.065   4.911   5.758  0.3066  0.6646  0.2623
13119TIP3    H160848   3.998   4.888   5.693  0.2833  2.0337 -0.2138
13119TIP3    H260849   4.027   4.884   5.842  0.1188 -0.6463 -0.2348
13120TIP3   OH260850   4.984   0.195  16.075 -0.1797 -0.0672  0.4016
13120TIP3    H160851   5.006   0.265  16.013  1.1575 -0.4736  0.4051
13120TIP3    H260852   5.060   0.189  16.132 -1.2374  0.0358  1.8590
13121TIP3   OH260853   2.695   1.343  13.249  0.2536  0.5167 -0.2818
13121TIP3    H160854   2.618   1.339  13.306  0.1857 -1.2122 -0.4650
13121TIP3    H260855   2.673   1.286  13.175  1.9525 -0.4698 -0.0344
13122TIP3   OH260856   1.144   5.704  15.769 -0.1635 -0.1861  0.3021
13122TIP3    H160857   1.149   5.622  15.720  1.0599  0.0480  0.0116
13122TIP3    H260858   1.143   5.772  15.701  1.2405  0.1270  0.5799
13123TIP3   OH260859   2.232   2.291  10.678  0.0781  0.3521  0.0619
13123TIP3    H160860   2.294   2.269  10.609  0.7381  0.6341  0.5623
13123TIP3    H260861   2.146   2.271  10.641  0.4520  0.2168 -0.7253
13124TIP3   OH260862   5.212   2.914   3.888 -0.4655  0.2558  0.2652
13124TIP3    H160863   5.188   2.822   3.903  0.9796  0.1415  2.0743
13124TIP3    H260864   5.308   2.914   3.894 -0.4661  1.9094  0.4107
13125TIP3   OH260865   2.207   4.250  12.607 -0.0600 -0.1999  0.5653
13125TIP3    H160866   2.182   4.173  12.556  0.5758  0.0914 -0.1978
13125TIP3    H260867   2.213   4.218  12.697 -0.0592 -0.9807  0.2918
13126TIP3   OH260868   0.670   1.509   5.322 -0.4092 -0.3306 -0.2022
13126TIP3    H160869   0.707   1.513   5.411 -0.2587 -2.1303 -0.1645
13126TIP3    H260870   0.654   1.601   5.299 -0.2714  0.1794  1.6065
13127TIP3   OH260871   4.559   3.918   1.057  0.2230  0.0040  0.1017
13127TIP3    H160872   4.606   3.932   1.140 -0.8376  1.3472  0.4994
13127TIP3    H260873   4.552   3.823   1.049 -0.5978 -0.1325  2.1088
13128TIP3   OH260874   5.265   3.195   3.200  0.4428 -0.0827 -1.1848
13128TIP3    H160875   5.264   3.100   3.209 -2.0457 -0.0410 -0.6927
13128TIP3    H260876   5.338   3.224   3.254 -1.3661 -1.4201  2.0991
13129TIP3   OH260877   2.643   3.244  16.360 -0.3163  0.0656 -0.6323
13129TIP3    H160878   2.578   3.277  16.299 -1.0816  1.4874  0.9009
13129TIP3    H260879   2.703   3.193  16.306 -1.3672  0.6780 -2.4338
13130TIP3   OH260880   5.029   0.597   2.477 -0.0577  0.1490 -0.9291
13130TIP3    H160881   5.087   0.607   2.552 -0.5622  2.7612 -0.8392
13130TIP3    H260882   5.088   0.577   2.404  0.7737  0.9595 -0.4918
13131TIP3   OH260883   6.318   2.970   2.008  0.2484  0.3441  0.3128
13131TIP3    H160884   6.391   2.912   1.984 -0.0288 -0.3641  1.1814
13131TIP3    H260885   6.338   3.053   1.964  1.9826  0.4046  1.1732
13132TIP3   OH260886   3.017   6.676   7.176 -0.2647 -0.0387  0.0403
13132TIP3    H160887   3.095   6.680   7.120 -0.4038  1.8683 -0.0572
13132TIP3    H260888   3.022   6.590   7.218  1.2578 -0.4203 -0.8733
13133TIP3   OH260889   0.823   3.368  11.465 -0.7907 -0.4607 -0.2206
13133TIP3    H160890   0.821   3.445  11.408 -0.4274  0.8691  1.5363
13133TIP3    H260891   0.915   3.341  11.466 -0.6352  0.0861  0.4791
13134TIP3   OH260892   6.088   3.169   5.788  0.4394 -0.1250  0.3200
13134TIP3    H160893   6.156   3.107   5.814 -0.9147 -1.0342  1.8253
13134TIP3    H260894   6.075   3.224   5.865 -0.5669 -0.0004  0.0748
13135TIP3   OH260895   1.435   5.696  16.437  0.3955  0.1766 -0.2636
13135TIP3    H160896   1.448   5.722  16.346  1.1774  0.3223 -0.1133
13135TIP3    H260897   1.367   5.628  16.433  0.7939 -0.1856 -1.0080
13136TIP3   OH260898   4.295   0.934  12.999 -0.3039  0.4305  0.3009
13136TIP3    H160899   4.285   0.969  13.087 -0.3813  2.4927 -0.5083
13136TIP3    H260900   4.379   0.968  12.968 -0.5276  0.1674 -0.6177
13137TIP3   OH260901   2.347   2.607   0.106  0.5721 -0.5298  0.4458
13137TIP3    H160902   2.421   2.583   0.161 -0.7755  1.4055  3.1769
13137TIP3    H260903   2.280   2.542   0.126  0.0435  0.2369  1.1983
13138TIP3   OH260904   4.653   2.265   0.856  0.1389 -0.2965 -0.7875
13138TIP3    H160905   4.561   2.279   0.834 -0.0025  0.2478  0.1557
13138TIP3    H260906   4.674   2.333   0.919  1.0752 -0.6766 -0.6788
13139TIP3   OH260907   1.160   6.520   2.989  0.2213  0.2034  0.2395
13139TIP3    H160908   1.084   6.477   2.951  1.7755 -3.7882  1.3449
13139TIP3    H260909   1.141   6.521   3.083  0.3210  1.7504  0.2425
13140TIP3   OH260910   6.495   6.654  12.085  0.4736 -0.1685 -0.0929
13140TIP3    H160911   6.405   6.674  12.058  0.4036 -0.4987 -0.1052
13140TIP3    H260912   6.485   6.586  12.151  0.8405 -2.0434 -1.9099
13141TIP3   OH260913   1.421   4.616   1.816  0.0671  0.8572 -0.0941
13141TIP3    H160914   1.451   4.632   1.727  0.5295 -0.9520 -0.2779
13141TIP3    H260915   1.468   4.537   1.843 -0.4206  1.1305  1.5880
13142TIP3   OH260916   6.760   2.685  11.438  0.3969  0.5027 -0.0170
13142TIP3    H160917   6.818   2.714  11.368  0.2229  0.2783 -0.2582
13142TIP3    H260918   6.774   2.747  11.509  0.6716  0.6534 -0.2041
13143TIP3   OH260919   0.985   4.413  15.981  0.5235 -0.2497 -0.5923
13143TIP3    H160920   0.891   4.408  15.962  0.5661 -3.0917 -0.2704
13143TIP3    H260921   0.992   4.482  16.047 -1.6683 -1.5244  1.0438
13144TIP3   OH260922   0.174   2.149  15.544 -0.2829  0.4373  0.1589
13144TIP3    H160923   0.230   2.127  15.618 -1.5700 -0.3180  0.9242
13144TIP3    H260924   0.089   2.109  15.565 -0.8544  0.7880 -1.3986
13145TIP3   OH260925   5.943   3.174   6.077 -0.0674  0.5619 -0.3755
13145TIP3    H160926   5.889   3.096   6.090  0.6832  0.2075  0.7982
13145TIP3    H260927   6.008   3.170   6.148  0.5066  1.8084 -0.8049
13146TIP3   OH260928   4.203   6.246   1.445 -0.0698 -0.3072  0.1466
13146TIP3    H160929   4.157   6.329   1.454 -0.0243 -0.3179  0.5060
13146TIP3    H260930   4.285   6.268   1.401  0.0483 -0.1219  0.4545
13147TIP3   OH260931   4.536   1.511  11.896 -0.3304  0.2189  0.0877
13147TIP3    H160932   4.478   1.503  11.821  0.8403  0.2590 -0.8257
13147TIP3    H260933   4.513   1.437  11.952  0.2468 -1.0460 -1.3190
13148TIP3   OH260934   4.567   3.427  12.120  0.0384 -0.1601  0.1531
13148TIP3    H160935   4.616   3.350  12.148 -0.3716 -0.3672  0.3058
13148TIP3    H260936   4.479   3.414  12.155 -0.9094 -1.1336 -2.4072
13149TIP3   OH260937   0.977   2.710  13.669  0.7286  0.3233 -0.0808
13149TIP3    H160938   0.965   2.624  13.709 -2.5342  0.3819 -0.8034
13149TIP3    H260939   0.901   2.720  13.611  2.2948  2.7062 -1.7822
13150TIP3   OH260940   4.351   6.198  16.070 -0.2372  0.1946 -0.0444
13150TIP3    H160941   4.309   6.149  16.000  1.1526  0.3148 -0.9885
13150TIP3    H260942   4.404   6.264  16.025  2.1933 -0.9430  1.0129
13151TIP3   OH260943   2.581   6.071   3.158 -0.1165  0.2517 -0.5368
13151TIP3    H160944   2.637   6.027   3.222 -0.0340  0.5582 -0.4007
13151TIP3    H260945   2.574   6.161   3.189 -0.6599  0.2244 -0.5651
13152TIP3   OH260946   0.231   2.242   5.760 -0.2469  0.2281 -0.1905
13152TIP3    H160947   0.184   2.167   5.726 -0.0400 -0.3051  0.6660
13152TIP3    H260948   0.302   2.204   5.813  1.5661  0.9946 -1.9919
13153TIP3   OH260949   5.786   2.769  11.253 -0.2213  0.2879  0.0378
13153TIP3    H160950   5.774   2.864  11.244 -1.6967  0.1309  0.2011
13153TIP3    H260951   5.795   2.737  11.163  0.2829  0.5705 -0.0166
13154TIP3   OH260952   1.395   6.305   2.688 -0.3683  0.1077  0.1603
13154TIP3    H160953   1.396   6.398   2.713  0.4753 -0.4892  2.4578
13154TIP3    H260954   1.365   6.260   2.767 -0.7308 -1.5879 -0.9366
13155TIP3   OH260955   4.544   2.036  15.958  0.8130  0.1446  0.0455
13155TIP3    H160956   4.508   1.948  15.946 -1.9217  1.2697 -0.2279
13155TIP3    H260957   4.601   2.049  15.882  0.0323 -0.8131 -0.7186
13156TIP3   OH260958   0.275   0.376  16.765 -0.4045 -0.2123  0.4958
13156TIP3    H160959   0.262   0.471  16.761 -1.2412 -0.4030 -2.0044
13156TIP3    H260960   0.203   0.340  16.714  1.2824 -2.0642 -0.6543
13157TIP3   OH260961   1.906   1.630  11.554  0.2747  0.0053  0.0370
13157TIP3    H160962   1.865   1.596  11.633 -0.2590 -0.0149 -0.2460
13157TIP3    H260963   1.833   1.656  11.498  0.6222 -1.2767 -1.0174
13158TIP3   OH260964   5.760   0.657   4.824  0.2279  0.3329  0.5416
13158TIP3    H160965   5.844   0.703   4.833  1.5151 -1.9723  0.6237
13158TIP3    H260966   5.708   0.688   4.898  1.1902  1.3950  0.7907
13159TIP3   OH260967   6.574   5.790  14.084  0.2164 -0.0841 -0.3064
13159TIP3    H160968   6.569   5.836  14.000 -1.3057 -2.0709 -1.3486
13159TIP3    H260969   6.665   5.760  14.090  0.0220 -1.0467 -1.8815
13160TIP3   OH260970   4.376   1.422   4.112 -0.2465  0.0474 -0.2871
13160TIP3    H160971   4.322   1.494   4.145 -0.1777 -0.8072  1.7405
13160TIP3    H260972   4.350   1.346   4.165 -0.4684 -1.4983 -2.5259
13161TIP3   OH260973   2.351   3.597  15.775 -0.0960  0.4559 -0.1503
13161TIP3    H160974   2.359   3.609  15.681 -0.4430 -0.5264 -0.3083
13161TIP3    H260975   2.425   3.644  15.812 -0.5242  1.6942 -0.8485
13162TIP3   OH260976   5.448   4.444   5.157  0.4569 -0.1512 -0.3956
13162TIP3    H160977   5.466   4.350   5.165 -1.1235 -0.5092 -0.8410
13162TIP3    H260978   5.535   4.484   5.150  1.1376 -1.6383 -0.7970
13163TIP3   OH260979   4.785   3.068  13.078 -0.2827 -0.0546  0.1344
13163TIP3    H160980   4.810   2.993  13.024  0.0506 -0.2986  0.6130
13163TIP3    H260981   4.705   3.040  13.123 -1.3199  0.6568 -1.2571
13164TIP3   OH260982   2.847   1.795   2.577  0.1247 -0.5083  0.0047
13164TIP3    H160983   2.874   1.734   2.646  0.6488 -1.0079 -0.6419
13164TIP3    H260984   2.913   1.785   2.509 -0.1381  0.3288 -0.3715
13165TIP3   OH260985   5.040   3.034  11.341 -0.4117 -0.3103  0.0707
13165TIP3    H160986   4.949   3.061  11.348 -0.1552  0.4744  0.4229
13165TIP3    H260987   5.090   3.112  11.362  0.3560 -0.4675 -1.0940
13166TIP3   OH260988   5.949   4.709   5.699  0.4314  0.7345  0.0697
13166TIP3    H160989   5.996   4.719   5.781 -2.2823 -0.0118  1.7886
13166TIP3    H260990   5.912   4.621   5.703 -2.3247  1.8202 -0.5308
13167TIP3   OH260991   5.099   1.296   3.561  0.5880  0.1943 -0.5603
13167TIP3    H160992   5.155   1.328   3.491 -0.3341 -0.0635 -1.4281
13167TIP3    H260993   5.031   1.245   3.516 -1.4511  2.0818  0.2914
13168TIP3   OH260994   1.967   2.207   2.556 -0.0362 -0.4892 -0.6298
13168TIP3    H160995   2.031   2.269   2.590 -0.7263 -1.0930  1.9031
13168TIP3    H260996   2.019   2.135   2.520  0.7259 -0.6823  0.8266
13169TIP3   OH260997   4.764   2.967   0.347 -0.1563 -0.1195 -0.5913
13169TIP3    H160998   4.671   2.986   0.333  0.1160  0.6355 -1.4738
13169TIP3    H260999   4.798   3.046   0.388  0.0118 -0.5554  0.1078
13170TIP3   OH261000   1.126   2.081  14.238 -0.2090 -0.0258 -0.0228
13170TIP3    H161001   1.064   2.009  14.238 -1.8462  1.3742 -0.7911
13170TIP3    H261002   1.073   2.160  14.248  1.5134  1.1358  0.3642
13171TIP3   OH261003   1.899   2.327   3.984  0.6564 -0.3682 -0.4920
13171TIP3    H161004   1.840   2.347   4.057  0.6676  0.7725 -0.7835
13171TIP3    H261005   1.845   2.338   3.906  0.8295 -0.9056 -0.6876
13172TIP3   OH261006   3.683   6.196  15.312  0.6079  0.1753  0.2943
13172TIP3    H161007   3.672   6.264  15.379  0.7990  0.8827 -0.3840
13172TIP3    H261008   3.777   6.183  15.306  0.5100 -1.1284  1.3791
13173TIP3   OH261009   0.182   2.696   4.182 -0.6538 -0.3672 -0.3735
13173TIP3    H161010   0.256   2.739   4.140 -0.7507  0.0092 -0.1729
13173TIP3    H261011   0.194   2.714   4.276 -1.0664 -0.1879 -0.3531
13174TIP3   OH261012   0.363   6.211   5.292 -0.7522  0.1752 -0.2472
13174TIP3    H161013   0.317   6.225   5.375 -1.6254 -0.2633 -0.6485
13174TIP3    H261014   0.331   6.126   5.261  0.4036 -0.1805 -0.4909
13175TIP3   OH261015   5.495   3.982   4.200 -0.0400  1.0576  0.2140
13175TIP3    H161016   5.438   3.976   4.124 -0.6206  0.4919  0.6839
13175TIP3    H261017   5.484   4.072   4.232 -0.7684  0.9116  0.3777
13176TIP3   OH261018   6.244   5.513   0.992  0.1650  0.6926  0.5069
13176TIP3    H161019   6.257   5.526   1.086  0.5956  0.0975  0.5317
13176TIP3    H261020   6.152   5.488   0.984 -0.0893  1.5599  0.6808
13177TIP3   OH261021   3.595   5.120   0.691 -0.3833  0.1034  0.0678
13177TIP3    H161022   3.560   5.144   0.777  1.2843  1.5297  0.3815
13177TIP3    H261023   3.674   5.070   0.711  0.7669  1.6225 -0.6286
13178TIP3   OH261024   1.766   6.030  13.428  0.6699  0.3006 -0.2494
13178TIP3    H161025   1.682   6.070  13.404 -0.3275 -1.5578  0.0073
13178TIP3    H261026   1.768   5.948  13.379  0.6968 -1.3513  2.3852
13179TIP3   OH261027   3.232   2.654  16.695  0.0919  0.2370 -0.0667
13179TIP3    H161028   3.139   2.641  16.711 -0.1004 -0.7460 -1.8302
13179TIP3    H261029   3.235   2.705  16.613  1.0839  1.0724  0.4703
13180TIP3   OH261030   1.937   3.561   1.658  0.3254  0.5749 -0.3492
13180TIP3    H161031   1.860   3.556   1.601  0.3193  0.8355 -0.3624
13180TIP3    H261032   1.997   3.495   1.622  0.1038  0.3602 -0.3289
13181TIP3   OH261033   0.464   5.943   1.095  0.5883 -0.8122  0.5036
13181TIP3    H161034   0.408   5.880   1.049  0.4179 -1.0398  1.0115
13181TIP3    H261035   0.552   5.907   1.086  0.4319 -1.3853  1.2021
13182TIP3   OH261036   0.737   5.998   2.977 -0.0741 -0.1833  0.3186
13182TIP3    H161037   0.709   6.030   3.063  0.3537  1.9246 -0.2926
13182TIP3    H261038   0.677   5.926   2.957 -1.5767  0.7445  1.4085
13183TIP3   OH261039   1.399   3.710   3.166 -0.1356 -0.3461  0.6242
13183TIP3    H161040   1.407   3.760   3.248  2.3756 -0.1451  0.3062
13183TIP3    H261041   1.472   3.649   3.168 -0.5401 -0.9138 -1.0918
13184TIP3   OH261042   4.804   1.468  16.135  0.0390  0.0369  0.8630
13184TIP3    H161043   4.785   1.401  16.200  0.4871  0.5934  1.5692
13184TIP3    H261044   4.723   1.476  16.084 -0.2222 -0.5787  1.1803
13185TIP3   OH261045   6.749   1.532  14.457  0.0671 -0.0787 -0.4522
13185TIP3    H161046   6.843   1.534  14.436 -0.1653 -1.3493 -1.6822
13185TIP3    H261047   6.706   1.532  14.372 -1.0492 -0.0506  0.1099
13186TIP3   OH261048   1.231   3.748  13.963 -0.0880  0.0880 -0.2527
13186TIP3    H161049   1.170   3.683  14.000 -0.4896  1.3828  1.4615
13186TIP3    H261050   1.261   3.798  14.040  1.9586  0.4475 -1.2796
13187TIP3   OH261051   0.016   3.147   1.984 -0.3677 -0.4190 -0.1268
13187TIP3    H161052  -0.071   3.107   1.991  0.8611 -3.1400  0.1507
13187TIP3    H261053   0.023   3.203   2.061 -0.9013 -2.1776  1.2222
13188TIP3   OH261054   5.497   3.946   5.101  0.0443  0.4215  0.3261
13188TIP3    H161055   5.410   3.917   5.126 -0.7577  1.5757 -1.0829
13188TIP3    H261056   5.554   3.872   5.123 -1.5923 -1.2173 -0.8151
13189TIP3   OH261057   3.770   2.100   3.704 -0.2209 -0.1651  0.0814
13189TIP3    H161058   3.817   2.062   3.629  1.3176 -1.6485  1.7272
13189TIP3    H261059   3.683   2.060   3.701 -0.7429  1.0472 -1.8296
13190TIP3   OH261060   1.430   3.147  12.143 -0.0479 -0.1001  0.3945
13190TIP3    H161061   1.353   3.103  12.106  0.4521 -0.3054 -0.4308
13190TIP3    H261062   1.401   3.236  12.160 -0.7236 -0.4168  0.9282
13191TIP3   OH261063   6.610   6.707   1.706 -0.4532  0.0772 -0.4863
13191TIP3    H161064   6.700   6.686   1.682  0.0292  1.0299  0.4501
13191TIP3    H261065   6.603   6.802   1.693 -0.6669  0.3558  1.5388
13192TIP3   OH261066   5.753   0.119   6.248  0.4204  0.3547  0.2148
13192TIP3    H161067   5.777   0.188   6.310  1.9723  0.3679 -0.3643
13192TIP3    H261068   5.820   0.052   6.261 -1.9968 -1.8252  1.9470
13193TIP3   OH261069   1.237   0.222  13.684 -0.5750  0.6988  0.2700
13193TIP3    H161070   1.168   0.288  13.696 -1.1085  0.2224 -0.1222
13193TIP3    H261071   1.216   0.153  13.747 -0.2021  0.7613  0.4591
13194TIP3   OH261072   4.343   0.679   0.259 -0.5148 -0.8055  0.2571
13194TIP3    H161073   4.414   0.672   0.323  0.3033 -1.7263 -0.7312
13194TIP3    H261074   4.290   0.753   0.289  1.2254  0.2980  0.6478
13195TIP3   OH261075   1.573   1.654  16.120 -0.0491  0.3134 -0.2981
13195TIP3    H161076   1.599   1.700  16.040 -1.2448 -0.4308 -1.1293
13195TIP3    H261077   1.481   1.633  16.107  0.3736 -1.9592  0.2366
13196TIP3   OH261078   5.419   4.253   2.876  0.2335 -0.6169 -0.1921
13196TIP3    H161079   5.509   4.269   2.847  0.0219  0.3805 -0.3119
13196TIP3    H261080   5.393   4.173   2.830  0.9086 -0.6697 -0.4917
13197TIP3   OH261081   0.180   2.736   0.627  0.7263 -0.5834  0.0891
13197TIP3    H161082   0.252   2.724   0.689  0.3405 -1.9888  0.3002
13197TIP3    H261083   0.127   2.806   0.665  2.4950  1.1685 -0.5802
13198TIP3   OH261084   0.142   0.671   4.122  0.0032 -0.2146 -0.3934
13198TIP3    H161085   0.223   0.650   4.074  0.8368  1.4396  0.2578
13198TIP3    H261086   0.156   0.633   4.209  0.0051 -0.0950 -0.3412
13199TIP3   OH261087   3.777   5.709  13.402  0.2749  1.0071  0.0801
13199TIP3    H161088   3.734   5.661  13.472  1.1685  0.5490  0.3200
13199TIP3    H261089   3.733   5.794  13.401 -0.0939  0.8306  0.8477
13200TIP3   OH261090   2.514   4.775   2.072 -0.5368 -0.0796  0.2988
13200TIP3    H161091   2.608   4.776   2.055 -0.5380  0.8281  0.3474
13200TIP3    H261092   2.476   4.828   2.001 -0.8299  1.1428  1.3569
13201TIP3   OH261093   1.391   5.384   4.258  0.1180  0.5131 -0.0286
13201TIP3    H161094   1.345   5.308   4.295  1.2479  0.3691  1.1332
13201TIP3    H261095   1.440   5.349   4.184 -0.3612  0.3472 -0.2652
13202TIP3   OH261096   1.604   4.470  17.051 -0.0100 -0.1277 -0.0339
13202TIP3    H161097   1.537   4.481  16.983  0.0029 -0.0460 -0.0335
13202TIP3    H261098   1.597   4.550  17.104 -0.2638 -0.3495  0.2737
13203TIP3   OH261099   5.810   1.834  16.432  0.2243 -0.7398  0.1387
13203TIP3    H161100   5.904   1.821  16.447  0.8367  0.2767 -2.5747
13203TIP3    H261101   5.791   1.783  16.353 -0.5947  2.2975 -1.7302
13204TIP3   OH261102   2.141   4.570   3.320 -0.1910  0.8577  0.1033
13204TIP3    H161103   2.212   4.554   3.258  1.0803 -0.7540  1.9343
13204TIP3    H261104   2.148   4.663   3.343  1.9393  0.4772  1.0276
13205TIP3   OH261105   0.860   5.947  13.819  0.4416 -0.5590 -0.0670
13205TIP3    H161106   0.886   6.036  13.843  1.4847 -1.7859  3.5861
13205TIP3    H261107   0.943   5.902  13.801 -0.1250 -0.6357 -2.6449
13206TIP3   OH261108   0.025   3.019   5.683  0.0759 -0.3084 -0.5697
13206TIP3    H161109   0.080   3.070   5.742  0.2886  0.2041 -1.2081
13206TIP3    H261110  -0.063   3.055   5.696  0.5280  1.5300 -2.4096
13207TIP3   OH261111   1.893   0.784  14.295  0.6722  0.4018 -0.9785
13207TIP3    H161112   1.825   0.735  14.248  1.1648  1.0456 -2.4045
13207TIP3    H261113   1.845   0.832  14.363  0.2217 -2.2440  0.6401
13208TIP3   OH261114   5.550   4.875   1.151  0.4871  0.0900 -0.1017
13208TIP3    H161115   5.458   4.872   1.125  0.0860 -0.9094  1.3720
13208TIP3    H261116   5.591   4.803   1.102 -0.0168 -1.0025  1.0553
13209TIP3   OH261117   3.892   6.324   4.636 -0.8390 -0.1260 -0.4165
13209TIP3    H161118   3.906   6.418   4.647 -0.9777  0.1476 -2.3496
13209TIP3    H261119   3.963   6.295   4.579 -1.0877 -1.1006 -0.2552
13210TIP3   OH261120   3.048   3.891   0.142  0.2530  0.6334 -0.6372
13210TIP3    H161121   2.957   3.860   0.144  0.0639  1.2920  1.5066
13210TIP3    H261122   3.041   3.986   0.133  0.6964  0.7990  0.6633
13211TIP3   OH261123   6.764   5.943   3.085 -0.6963  0.2073 -0.0709
13211TIP3    H161124   6.825   5.977   3.151 -0.1992  1.5564 -1.2152
13211TIP3    H261125   6.776   5.848   3.089  1.4678  0.4362 -0.2467
13212TIP3   OH261126   4.408   4.026   1.326  0.0746 -0.5961 -0.2974
13212TIP3    H161127   4.390   3.936   1.300  0.5969 -1.1638  1.2073
13212TIP3    H261128   4.409   4.023   1.422 -0.6990  1.1771 -0.2186
13213TIP3   OH261129   2.782   2.409   0.727 -0.1940 -0.5987 -0.5949
13213TIP3    H161130   2.813   2.498   0.712 -1.9557  0.0353 -0.6032
13213TIP3    H261131   2.762   2.406   0.820 -2.3788 -0.2224 -1.0217
13214TIP3   OH261132   0.975   5.127   0.612 -0.0332  0.1929 -0.9254
13214TIP3    H161133   1.032   5.150   0.685  0.3592 -0.3806 -1.0452
13214TIP3    H261134   0.998   5.036   0.592 -2.9743 -1.0396  0.9014
13215TIP3   OH261135   2.252   6.286  11.276 -0.6175  0.1687  0.4348
13215TIP3    H161136   2.220   6.375  11.287  2.0293  0.9664  2.1302
13215TIP3    H261137   2.279   6.281  11.184  0.8158  1.7167  0.7354
13216TIP3   OH261138   2.860   4.120   6.027 -0.4630  0.0272 -0.5200
13216TIP3    H161139   2.807   4.041   6.036 -0.7191  0.3140  0.5351
13216TIP3    H261140   2.927   4.113   6.095 -1.9039  1.8206  1.1539
13217TIP3   OH261141   0.716   0.831  17.021  0.2069 -0.0890 -0.5699
13217TIP3    H161142   0.744   0.899  17.083 -0.6270 -0.5577  0.3228
13217TIP3    H261143   0.792   0.820  16.963  0.8781  0.5787  0.1574
13218TIP3   OH261144   0.261   1.843  12.453  0.1397  0.0464  0.0633
13218TIP3    H161145   0.306   1.926  12.467 -0.8303  0.3605  1.4562
13218TIP3    H261146   0.194   1.862  12.387 -1.4318  0.9036  1.8617
13219TIP3   OH261147   3.066   1.914   2.714  0.4074  0.5155  0.1305
13219TIP3    H161148   3.000   1.914   2.783  0.8730 -2.9101  0.6722
13219TIP3    H261149   3.016   1.919   2.633 -0.7972 -3.6778  0.4539
13220TIP3   OH261150   1.182   3.733   6.095  0.0536  0.1436  0.3303
13220TIP3    H161151   1.088   3.726   6.079  0.1494  0.5852 -0.4324
13220TIP3    H261152   1.222   3.691   6.019  0.4707 -0.7467  1.0248
13221TIP3   OH261153   5.571   5.149   5.570  0.0562 -0.0999 -0.6978
13221TIP3    H161154   5.547   5.225   5.517 -1.3038  0.4289  0.6511
13221TIP3    H261155   5.511   5.081   5.543  0.5765 -0.3881 -1.1429
13222TIP3   OH261156   4.924   1.661  12.215  0.0640  0.1976 -0.4205
13222TIP3    H161157   4.977   1.656  12.135  1.1233  1.2670  0.1936
13222TIP3    H261158   4.834   1.660  12.183  0.4710  0.3990 -1.6265
13223TIP3   OH261159   6.403   5.356  14.767  0.2348  1.0651 -0.6388
13223TIP3    H161160   6.416   5.306  14.687  0.4261  0.8031 -0.4475
13223TIP3    H261161   6.354   5.297  14.825  0.7003  0.9913 -0.3112
13224TIP3   OH261162   0.618   1.242  16.670  0.7537 -0.2077 -0.2316
13224TIP3    H161163   0.677   1.301  16.717  0.1604  1.8376 -1.9944
13224TIP3    H261164   0.535   1.248  16.717  0.9490 -0.3711  0.1371
13225TIP3   OH261165   1.760   0.084  12.229 -0.0814  0.4125 -0.0943
13225TIP3    H161166   1.788   0.129  12.149 -0.4023  1.0757  0.1611
13225TIP3    H261167   1.665   0.090  12.228 -0.2307 -1.6521 -0.8501
13226TIP3   OH261168   4.609   1.305   2.580  0.0833 -0.3234 -0.1492
13226TIP3    H161169   4.583   1.224   2.538  0.4708 -0.5492  0.0489
13226TIP3    H261170   4.550   1.313   2.656 -1.1986  0.5217 -1.2001
13227TIP3   OH261171   3.076   3.803   4.081 -0.0929 -0.5516  0.2682
13227TIP3    H161172   3.109   3.738   4.143 -1.8893 -2.0310 -0.2789
13227TIP3    H261173   3.122   3.784   3.999 -1.2982 -1.7870 -0.1465
13228TIP3   OH261174   6.694   4.584   5.081  0.0390 -0.3516 -0.4310
13228TIP3    H161175   6.694   4.548   5.170 -2.4476  0.8208  0.0906
13228TIP3    H261176   6.686   4.507   5.024  1.4853 -1.0924  0.3382
13229TIP3   OH261177   0.023   1.492   0.986 -0.2505  0.0778  0.3838
13229TIP3    H161178  -0.069   1.475   1.005 -0.4553  0.8615  0.0973
13229TIP3    H261179   0.022   1.549   0.909  0.4130  1.6410  1.5063
13230TIP3   OH261180   1.769   1.288   0.955  0.1646 -0.1330 -0.0246
13230TIP3    H161181   1.787   1.348   1.027 -1.1907  2.2915 -1.6603
13230TIP3    H261182   1.696   1.234   0.986  2.0272 -1.6796  1.8272
13231TIP3   OH261183   3.065   5.086  15.326  0.4262 -0.2877  0.1269
13231TIP3    H161184   3.157   5.108  15.313  0.6368 -1.0521  0.2986
13231TIP3    H261185   3.020   5.171  15.331  1.0897  0.0814 -0.1530
13232TIP3   OH261186   3.508   6.135  15.748  0.2667  0.0922  0.4147
13232TIP3    H161187   3.503   6.042  15.771  2.1543  0.0783  0.8228
13232TIP3    H261188   3.483   6.138  15.656  2.3811 -1.1221 -0.2271
13233TIP3   OH261189   3.008   5.867   3.024  0.5641  0.0429  0.2621
13233TIP3    H161190   2.941   5.810   3.061 -0.6844  1.1078 -0.3116
13233TIP3    H261191   3.016   5.938   3.086  1.1678 -0.0826  0.3289
13234TIP3   OH261192   6.623   0.901  13.294  0.0858 -0.5876 -0.2923
13234TIP3    H161193   6.620   0.848  13.214 -0.2047 -1.2055  0.1223
13234TIP3    H261194   6.642   0.837  13.363 -0.1499 -0.1268  0.1944
13235TIP3   OH261195   1.509   2.972  14.582 -0.0646 -0.1070  0.1887
13235TIP3    H161196   1.437   2.913  14.563  0.9960 -1.7614  1.2220
13235TIP3    H261197   1.550   2.988  14.496 -1.5633  0.7605 -0.3831
13236TIP3   OH261198   3.813   3.548   6.480  0.2838  0.2764 -0.1591
13236TIP3    H161199   3.804   3.487   6.406 -1.3671 -1.6834  1.5880
13236TIP3    H261200   3.881   3.609   6.453 -0.7776  0.0292 -3.5835
13237TIP3   OH261201   5.728   0.451  14.419 -0.0478 -0.1039  0.6492
13237TIP3    H161202   5.800   0.443  14.481  0.8826  0.6895 -0.3098
13237TIP3    H261203   5.758   0.405  14.341 -1.2089 -1.1021  0.7791
13238TIP3   OH261204   5.804   4.721   1.492 -0.3220  0.5420  0.4457
13238TIP3    H161205   5.830   4.779   1.420 -0.9001  0.7539  0.4043
13238TIP3    H261206   5.838   4.764   1.570 -0.5540  0.8207  0.3938
13239TIP3   OH261207   1.671   6.060  13.078 -0.2120 -0.7301  0.3978
13239TIP3    H161208   1.681   6.034  12.986 -1.5497  0.8488 -0.2183
13239TIP3    H261209   1.678   5.978  13.127 -2.7834 -2.0772 -1.3699
13240TIP3   OH261210   1.070   1.649   3.602  0.1290 -0.8837 -0.0988
13240TIP3    H161211   1.144   1.644   3.663  0.4644  0.2757 -0.4032
13240TIP3    H261212   1.052   1.743   3.594 -2.0292 -1.1999  0.7452
13241TIP3   OH261213   4.668   1.851  13.097 -0.5533  0.0421  0.1915
13241TIP3    H161214   4.632   1.939  13.110 -0.4105  0.0146  0.8137
13241TIP3    H261215   4.756   1.856  13.134 -0.6034 -0.4064  0.3678
13242TIP3   OH261216   5.400   3.850   3.771 -0.2830  0.2917  0.0919
13242TIP3    H161217   5.463   3.784   3.741  0.1092  0.7995 -0.2220
13242TIP3    H261218   5.328   3.844   3.708 -0.6037 -0.3636  0.5145
13243TIP3   OH261219   4.051   5.662   6.790 -0.2394 -0.0725  0.0489
13243TIP3    H161220   4.085   5.731   6.733 -0.5974 -0.7280 -0.9655
13243TIP3    H261221   3.985   5.706   6.844 -1.1417  0.1950 -1.2420
13244TIP3   OH261222   2.541   4.587  15.776  0.5128  0.2124 -0.3279
13244TIP3    H161223   2.535   4.630  15.862 -0.7648  0.3865 -0.4945
13244TIP3    H261224   2.632   4.602  15.748  0.5857  1.2629  0.4257
13245TIP3   OH261225   0.926   0.164   3.758  0.1182 -0.1732 -0.7621
13245TIP3    H161226   0.951   0.168   3.850 -1.8874 -1.0851 -0.1741
13245TIP3    H261227   0.969   0.241   3.719  1.6990 -0.2759  0.7306
13246TIP3   OH261228   5.081   4.252  16.621  0.2515  0.2921  0.4056
13246TIP3    H161229   4.999   4.296  16.598  0.5265 -0.0168 -1.2241
13246TIP3    H261230   5.054   4.174  16.669 -0.4310 -0.0398 -0.5076
13247TIP3   OH261231   4.804   0.309   4.511  0.1878  0.8059 -0.6864
13247TIP3    H161232   4.886   0.358   4.501  0.2831  0.9001  0.4450
13247TIP3    H261233   4.757   0.356   4.581  0.3628 -0.8196  0.5409
13248TIP3   OH261234   2.218   4.283   1.364  0.2730  0.0402  0.2684
13248TIP3    H161235   2.188   4.204   1.409 -0.1378 -0.8430 -1.5068
13248TIP3    H261236   2.185   4.274   1.275 -0.4914  2.6196  0.2412
13249TIP3   OH261237   5.449   2.600   0.823 -0.5482 -0.0423 -0.1963
13249TIP3    H161238   5.454   2.556   0.737 -0.1900  3.3594 -1.9926
13249TIP3    H261239   5.540   2.602   0.853 -0.2156  1.5763 -1.2514
13250TIP3   OH261240   1.615   2.263   4.907 -0.2024  0.9676  0.1770
13250TIP3    H161241   1.553   2.204   4.863  1.3278 -0.8492  0.4090
13250TIP3    H261242   1.680   2.205   4.946  1.6637  2.8281 -0.0585
13251TIP3   OH261243   1.073   1.535  13.439 -0.2366 -0.0677  0.1565
13251TIP3    H161244   1.134   1.481  13.490 -0.2819  0.2284  0.5302
13251TIP3    H261245   0.995   1.481  13.431 -1.0347  0.7032  2.2768
13252TIP3   OH261246   1.075   3.674   0.837 -0.3459 -0.1039 -0.2204
13252TIP3    H161247   1.119   3.619   0.773 -0.5277 -1.1766  0.5638
13252TIP3    H261248   1.030   3.740   0.784 -1.0375 -1.3638 -1.2616
13253TIP3   OH261249   3.646   5.057   0.075  0.0277 -0.1305  0.2327
13253TIP3    H161250   3.665   5.151   0.078 -3.1000  0.6348 -1.6875
13253TIP3    H261251   3.666   5.031  -0.015  0.8325 -1.3212  0.7462
13254TIP3   OH261252   2.146   3.044   3.082  0.2732 -0.2156 -0.7314
13254TIP3    H161253   2.123   3.042   2.989 -2.0808  2.9924 -0.2748
13254TIP3    H261254   2.070   3.081   3.125  1.2361 -1.9155  2.5715
13255TIP3   OH261255   4.891   2.569   1.173  0.3215 -0.2322 -0.1290
13255TIP3    H161256   4.925   2.642   1.223 -0.2400 -2.5841  3.9166
13255TIP3    H261257   4.967   2.516   1.151  0.4817  0.3994 -1.1140
13256TIP3   OH261258   0.829   3.875   2.738 -0.4378  0.2580 -0.1016
13256TIP3    H161259   0.849   3.788   2.771  0.3877  1.0605  1.5417
13256TIP3    H261260   0.740   3.867   2.704 -0.5874 -1.0757  0.5689
13257TIP3   OH261261   3.973   0.522   5.215  0.1093 -0.0083 -0.3922
13257TIP3    H161262   3.897   0.517   5.273  0.2269  1.1111 -0.1336
13257TIP3    H261263   4.014   0.436   5.222 -0.4332 -0.2098  0.4207
13258TIP3   OH261264   6.474   3.272   4.414 -0.2222  0.0434 -0.3510
13258TIP3    H161265   6.431   3.188   4.425  0.8840 -0.3497  1.0451
13258TIP3    H261266   6.566   3.251   4.398  0.4235  1.0269  1.9062
13259TIP3   OH261267   5.726   6.403  13.190 -0.3541  0.2391 -0.2896
13259TIP3    H161268   5.661   6.431  13.255 -1.7744 -2.0142 -0.6998
13259TIP3    H261269   5.679   6.342  13.133  1.7691 -0.4149 -1.4111
13260TIP3   OH261270   3.369   0.961   6.524  0.1154 -0.7077 -0.2792
13260TIP3    H161271   3.334   0.872   6.522 -0.6563 -0.4855  1.9575
13260TIP3    H261272   3.292   1.017   6.514  0.2710 -0.2662  0.8862
13261TIP3   OH261273   5.408   4.245   6.551  0.7893 -0.1649 -0.0483
13261TIP3    H161274   5.434   4.154   6.557  2.6607  0.2845 -0.7978
13261TIP3    H261275   5.412   4.278   6.641 -3.8383 -1.7940  0.8614
13262TIP3   OH261276   5.959   6.118   0.220 -0.4973 -0.2218 -0.8318
13262TIP3    H161277   5.992   6.160   0.140 -0.3639  1.7429  0.2238
13262TIP3    H261278   6.024   6.051   0.241  0.7359  0.8860 -1.0422
13263TIP3   OH261279   4.575   0.860  15.163  0.0260 -0.0173  0.1616
13263TIP3    H161280   4.544   0.804  15.092 -2.3270  0.4305  0.8138
13263TIP3    H261281   4.640   0.806  15.208 -0.1720 -1.1812 -0.8928
13264TIP3   OH261282   0.733   2.249   0.347 -0.1105 -0.9205  0.4232
13264TIP3    H161283   0.674   2.225   0.276 -1.2864  1.3143  0.5658
13264TIP3    H261284   0.680   2.237   0.426 -0.7337  1.8881  0.4973
13265TIP3   OH261285   4.978   0.951   2.222 -0.0569  0.3105 -0.0285
13265TIP3    H161286   5.032   0.938   2.143  1.0375  1.7529  0.4550
13265TIP3    H261287   4.890   0.925   2.195  0.4742 -0.0593 -1.4712
13266TIP3   OH261288   1.148   5.419  13.520 -0.3121  0.2602  0.0835
13266TIP3    H161289   1.089   5.483  13.479 -2.6060 -0.8969  1.4398
13266TIP3    H261290   1.118   5.334  13.486  0.7948 -0.3199  0.5422
13267TIP3   OH261291   4.775   3.775  16.303  0.3647  0.4583  0.8560
13267TIP3    H161292   4.717   3.714  16.256 -1.0159  0.4290  2.5422
13267TIP3    H261293   4.724   3.856  16.310  1.2286  1.0085  0.7980
13268TIP3   OH261294   4.804   0.174  13.336  0.0806 -0.1249 -0.0338
13268TIP3    H161295   4.838   0.264  13.335 -0.1589  0.0004  1.8940
13268TIP3    H261296   4.783   0.156  13.244  1.2602  1.3513 -0.6240
13269TIP3   OH261297   5.798   4.258   4.959 -0.1144 -0.2171 -0.0495
13269TIP3    H161298   5.842   4.264   4.874 -0.7601  0.4420 -0.3418
13269TIP3    H261299   5.850   4.194   5.008  0.6706 -0.0820 -0.6877
13270TIP3   OH261300   3.041   1.940   6.348 -0.3221 -0.0779 -0.4709
13270TIP3    H161301   3.129   1.915   6.375 -0.2306 -0.0209 -0.7177
13270TIP3    H261302   2.989   1.937   6.429  0.0751  0.6351 -0.1884
13271TIP3   OH261303   4.484   4.605   4.878  1.0881  0.1184 -0.3809
13271TIP3    H161304   4.472   4.511   4.887  0.6038  0.2376  0.2206
13271TIP3    H261305   4.491   4.638   4.967  0.3092  0.7710 -0.5444
13272TIP3   OH261306   1.339   1.576   5.195 -0.2520  0.2971  0.1912
13272TIP3    H161307   1.258   1.607   5.155 -0.5087  0.5032  0.8696
13272TIP3    H261308   1.388   1.538   5.122 -0.5435  1.0241 -0.3871
13273TIP3   OH261309   1.299   6.672  12.937 -0.0539 -0.3009  0.1001
13273TIP3    H161310   1.292   6.689  13.031 -0.4504 -0.4629  0.1034
13273TIP3    H261311   1.392   6.661  12.921  0.0591  0.2304  0.3857
13274TIP3   OH261312   4.786   0.807   2.108  0.2763 -0.2613 -0.1580
13274TIP3    H161313   4.729   0.730   2.116  1.2118 -0.9287  0.1465
13274TIP3    H261314   4.762   0.846   2.024 -1.4282  0.1207  0.4779
13275TIP3   OH261315   6.596   4.211  16.425 -0.6285 -0.1621 -0.9072
13275TIP3    H161316   6.533   4.276  16.457  2.4585  1.2352  2.6950
13275TIP3    H261317   6.588   4.139  16.487 -0.7714 -1.2489 -2.1867
13276TIP3   OH261318   5.032   1.680  16.985 -0.4379  0.3747  0.6268
13276TIP3    H161319   4.974   1.651  16.914 -3.6299 -1.1556  3.6795
13276TIP3    H261320   5.042   1.774  16.970 -1.3909  0.1781 -1.5776
13277TIP3   OH261321   0.379   5.295  16.389  0.4504  0.5390  0.1253
13277TIP3    H161322   0.458   5.348  16.401  0.7961  0.2437 -0.8059
13277TIP3    H261323   0.316   5.355  16.349  1.5777 -0.2976 -3.0927
13278TIP3   OH261324   2.690   2.329  16.305  0.3781  0.2404 -0.0006
13278TIP3    H161325   2.776   2.293  16.327  0.7676  0.1084 -1.6568
13278TIP3    H261326   2.628   2.268  16.344  1.0362 -0.1915  0.3871
13279TIP3   OH261327   0.817   2.153  14.919 -0.1311 -0.0035  0.3378
13279TIP3    H161328   0.744   2.198  14.962 -0.2812 -0.5694  0.6814
13279TIP3    H261329   0.817   2.186  14.830  0.7257  1.8574  1.0005
13280TIP3   OH261330   4.859   4.346   6.492  0.3140  0.8174  0.0811
13280TIP3    H161331   4.832   4.311   6.577  1.2059  2.9310  1.2782
13280TIP3    H261332   4.941   4.301   6.473  0.9216  1.4462  1.1171
13281TIP3   OH261333   5.950   6.178   2.528 -0.2048 -0.4097  0.1018
13281TIP3    H161334   5.861   6.147   2.544  0.5441 -1.8505  1.6589
13281TIP3    H261335   5.962   6.248   2.592  0.0381 -0.7266  0.4031
13282TIP3   OH261336   0.090   3.748  14.371 -0.0651 -0.4188 -0.3584
13282TIP3    H161337   0.079   3.832  14.416  2.0945 -0.2631 -0.0648
13282TIP3    H261338   0.048   3.685  14.429  1.6480 -0.0501  1.3410
13283TIP3   OH261339   4.855   0.572  12.141  0.1856  0.6112 -0.6982
13283TIP3    H161340   4.938   0.533  12.169  0.1289  1.2570  0.3765
13283TIP3    H261341   4.798   0.498  12.123  1.5601  0.1168 -3.1949
13284TIP3   OH261342   6.485   1.580   1.705  0.5287  0.2885 -0.2477
13284TIP3    H161343   6.506   1.505   1.761  0.5717  0.0029 -0.6496
13284TIP3    H261344   6.510   1.552   1.617 -0.0028  0.5580 -0.4833
13285TIP3   OH261345   4.181   6.211   2.703 -0.2459 -0.0698  0.3525
13285TIP3    H161346   4.171   6.127   2.658 -0.3575  0.1536 -0.0504
13285TIP3    H261347   4.275   6.218   2.720 -0.0121  0.4003 -0.9832
13286TIP3   OH261348   5.052   0.415   4.567 -0.1655 -0.0313  0.2159
13286TIP3    H161349   5.033   0.489   4.509 -0.9149 -0.1471  0.3088
13286TIP3    H261350   5.139   0.434   4.603 -0.8152  1.3468  1.0930
13287TIP3   OH261351   1.337   1.499  16.021  0.4280  0.1852  0.0205
13287TIP3    H161352   1.328   1.483  16.115  0.0375 -0.4134 -0.1215
13287TIP3    H261353   1.354   1.413  15.983 -0.9218  0.2125 -0.6511
13288TIP3   OH261354   5.745   2.152   5.624 -0.3004 -0.2653 -0.3112
13288TIP3    H161355   5.797   2.222   5.663 -3.4942  1.3391  1.2474
13288TIP3    H261356   5.723   2.095   5.698 -0.3378 -1.2002 -1.0353
13289TIP3   OH261357   4.630   5.255   4.853 -0.3992  0.4654 -0.3997
13289TIP3    H161358   4.628   5.334   4.906 -0.1617 -1.0946  2.0412
13289TIP3    H261359   4.717   5.254   4.814  0.1971  0.5839  0.9002
13290TIP3   OH261360   6.094   5.198   2.131  0.0327 -0.2004 -0.1285
13290TIP3    H161361   6.107   5.278   2.080  2.5912  0.3063  1.2805
13290TIP3    H261362   6.006   5.208   2.168 -0.6252  0.8364 -1.8786
13291TIP3   OH261363   5.143   2.775   3.368  0.3916  0.1965  0.4797
13291TIP3    H161364   5.159   2.717   3.442  0.1839 -1.5035 -0.7949
13291TIP3    H261365   5.230   2.800   3.337  0.4810  0.1274  0.6794
13292TIP3   OH261366   6.717   3.841  11.966 -0.7486  0.2943 -0.2114
13292TIP3    H161367   6.671   3.923  11.946 -1.1038  0.5937  1.8043
13292TIP3    H261368   6.810   3.861  11.950 -0.8536  1.0375  0.1028
13293TIP3   OH261369   4.804   3.149  12.612 -0.3300 -0.5225  0.0986
13293TIP3    H161370   4.873   3.144  12.678 -0.3040  0.9082  0.1865
13293TIP3    H261371   4.724   3.125  12.659 -0.5165  1.7619  0.9824
13294TIP3   OH261372   3.118   0.714   5.213  0.2884  0.2197 -0.3989
13294TIP3    H161373   3.068   0.782   5.168  0.8085 -0.6243 -2.3064
13294TIP3    H261374   3.131   0.748   5.301 -1.7886  1.3901 -0.5121
13295TIP3   OH261375   5.414   3.492   3.315  0.0050 -0.1757  0.2085
13295TIP3    H161376   5.453   3.576   3.340 -2.6847  0.9318  0.8049
13295TIP3    H261377   5.411   3.442   3.397 -2.6530  0.9275  0.8175
13296TIP3   OH261378   2.722   2.281  12.687  0.2247  0.6771 -0.0188
13296TIP3    H161379   2.712   2.268  12.593  2.0487  0.4941 -0.2134
13296TIP3    H261380   2.675   2.362  12.706 -1.5832 -0.1672 -0.7704
13297TIP3   OH261381   0.124   1.670  16.040 -0.0815 -0.2032 -0.1993
13297TIP3    H161382   0.177   1.606  15.992 -0.4443 -1.6867  1.3482
13297TIP3    H261383   0.141   1.651  16.132 -2.6687 -0.2004  0.3172
13298TIP3   OH261384   1.983   5.908  12.841  0.2628 -0.2012  0.2080
13298TIP3    H161385   1.916   5.849  12.875  0.8525 -1.1400 -0.2350
13298TIP3    H261386   2.018   5.952  12.918 -1.4682  0.9811  0.3709
13299TIP3   OH261387   1.989   2.778   0.770  0.8111  0.8161 -0.4020
13299TIP3    H161388   2.014   2.868   0.752  0.0718  1.0197 -0.4341
13299TIP3    H261389   1.898   2.784   0.801  0.6291  0.0481 -0.7743
13300TIP3   OH261390   4.666   2.569  14.946 -0.1669  0.4909  0.4881
13300TIP3    H161391   4.670   2.658  14.980 -1.5264  0.4785  0.7209
13300TIP3    H261392   4.682   2.513  15.022 -2.6052  0.4771  1.0326
13301TIP3   OH261393   4.050   1.160  14.446  0.2718 -0.5788 -0.3490
13301TIP3    H161394   4.109   1.085  14.456  2.3954  0.7988 -2.0519
13301TIP3    H261395   4.099   1.234  14.484 -1.4903  0.0832  0.6694
13302TIP3   OH261396   3.556   3.970   2.194  0.0877 -0.2665 -0.1249
13302TIP3    H161397   3.482   3.975   2.134  0.4036 -1.3151 -0.5990
13302TIP3    H261398   3.603   3.891   2.169  0.2660 -0.6691  1.4479
13303TIP3   OH261399   2.746   1.953   0.121 -0.0490 -0.0789  0.3632
13303TIP3    H161400   2.677   1.919   0.064 -1.1513 -1.7725  2.6262
13303TIP3    H261401   2.703   1.965   0.205  2.3379 -0.9498  1.7578
13304TIP3   OH261402   0.121   4.447  14.508  0.5090 -0.4998 -0.0497
13304TIP3    H161403   0.132   4.488  14.593  0.4573 -0.0269 -0.2708
13304TIP3    H261404   0.039   4.483  14.474 -0.7999 -2.6021  0.7906
13305TIP3   OH261405   2.864   0.665   4.745  0.3807 -0.0103 -0.1398
13305TIP3    H161406   2.851   0.595   4.808 -2.3622  0.4419 -0.1022
13305TIP3    H261407   2.958   0.681   4.745  0.7916 -2.1890  1.4515
13306TIP3   OH261408   6.652   3.108   6.674  0.3147  0.1795  0.7667
13306TIP3    H161409   6.711   3.073   6.608 -0.3608  1.0309 -0.2991
13306TIP3    H261410   6.596   3.034   6.697 -1.0110  0.4681 -1.3714
13307TIP3   OH261411   5.109   1.158  12.891 -0.1136  0.0280 -1.0095
13307TIP3    H161412   5.042   1.100  12.927 -0.0778  0.3269 -0.4692
13307TIP3    H261413   5.073   1.246  12.901 -0.0255  0.1282 -1.5354
13308TIP3   OH261414   3.155   3.001   0.366 -0.0957  0.1158 -0.0085
13308TIP3    H161415   3.075   2.984   0.317  1.2086  1.0421 -2.5803
13308TIP3    H261416   3.217   2.935   0.335  1.1273  1.4850 -0.5959
13309TIP3   OH261417   0.169   0.227  11.372  0.0674 -0.3497 -0.5121
13309TIP3    H161418   0.234   0.270  11.427  0.5197 -1.0708 -0.4723
13309TIP3    H261419   0.218   0.159  11.325 -0.4502 -0.1959 -1.2842
13310TIP3   OH261420   5.987   3.055  12.292 -0.0451  0.0046  0.0411
13310TIP3    H161421   5.917   3.076  12.354  1.4381  1.1934  1.3696
13310TIP3    H261422   5.944   3.051  12.207 -1.8104  0.2048  0.8984
13311TIP3   OH261423   6.527   1.479   0.074  0.1060  0.1928 -0.2896
13311TIP3    H161424   6.557   1.398   0.117  0.6480  0.8437  0.5911
13311TIP3    H261425   6.598   1.501   0.014 -2.0213 -2.4257 -3.9292
13312TIP3   OH261426   2.743   4.739  12.014  0.1738 -0.1227  0.1003
13312TIP3    H161427   2.657   4.709  11.985  1.2862 -1.6692 -1.7146
13312TIP3    H261428   2.740   4.834  12.001 -0.4905 -0.4130 -2.2128
13313TIP3   OH261429   5.391   5.511  12.097  0.1521 -0.2563  0.6910
13313TIP3    H161430   5.422   5.581  12.039  0.0897 -0.0460  0.9099
13313TIP3    H261431   5.364   5.556  12.177  2.5829 -0.7932  1.8507
13314TIP3   OH261432   0.758   5.365   2.714 -0.4808 -1.1177 -0.1605
13314TIP3    H161433   0.754   5.445   2.766 -1.4526 -1.4115  0.2106
13314TIP3    H261434   0.798   5.300   2.772  0.5849 -0.8394 -0.5584
13315TIP3   OH261435   1.842   1.466  13.765  0.0494 -0.6211 -0.2085
13315TIP3    H161436   1.818   1.473  13.673 -2.5703 -1.0240  0.3931
13315TIP3    H261437   1.934   1.492  13.768 -0.8184  3.1186 -2.4058
13316TIP3   OH261438   4.285   5.363  17.110 -0.2655 -0.2609  0.3086
13316TIP3    H161439   4.203   5.339  17.154 -0.0967 -1.3265  0.0357
13316TIP3    H261440   4.307   5.287  17.057  0.6618  0.2106  0.0135
13317TIP3   OH261441   1.554   6.530   2.325  0.2743  0.8206 -0.6502
13317TIP3    H161442   1.584   6.549   2.414 -0.3645  1.4234 -0.5598
13317TIP3    H261443   1.634   6.507   2.277  0.5289 -0.2253  0.2526
13318TIP3   OH261444   0.989   4.368  15.420  0.1340 -0.5163  0.1321
13318TIP3    H161445   1.041   4.289  15.406  0.8013 -0.4408  2.0588
13318TIP3    H261446   0.969   4.368  15.513  2.7034  3.0905  0.7993
13319TIP3   OH261447   4.373   4.550  16.140  0.2373  0.6285  0.1729
13319TIP3    H161448   4.467   4.544  16.129  0.2686  0.5180  0.4818
13319TIP3    H261449   4.356   4.509  16.225  0.1470  2.4888  1.0856
13320TIP3   OH261450   1.098   3.099  13.311 -0.0869 -0.2048  0.3523
13320TIP3    H161451   1.102   3.043  13.388  0.2894 -0.4491  0.1614
13320TIP3    H261452   1.189   3.103  13.280 -0.2767 -0.3325 -0.2317
13321TIP3   OH261453   2.849   1.246  15.545 -1.2981  1.2156 -0.2365
13321TIP3    H161454   2.842   1.311  15.615  1.5247  0.9134  0.3743
13321TIP3    H261455   2.943   1.229  15.537 -1.7752 -0.6144 -2.4022
13322TIP3   OH261456   6.335   6.060   3.653  0.3848 -0.1256 -0.5874
13322TIP3    H161457   6.376   6.015   3.579  0.7632 -0.4817 -0.1615
13322TIP3    H261458   6.333   6.152   3.626  0.6033 -0.2385 -1.0026
13323TIP3   OH261459   6.427   3.501   2.863 -0.4969 -0.6246 -0.4294
13323TIP3    H161460   6.472   3.439   2.921 -0.0825  0.7753  0.7785
13323TIP3    H261461   6.498   3.539   2.810 -0.4651  0.3461  0.2989
13324TIP3   OH261462   4.570   2.221   4.427 -0.0989 -0.2103  0.2058
13324TIP3    H161463   4.476   2.225   4.447 -0.5753 -3.1517 -1.2090
13324TIP3    H261464   4.584   2.293   4.366 -1.8021 -0.7381 -0.8570
13325TIP3   OH261465   0.950   4.155   0.585  0.1661 -0.7136 -0.1072
13325TIP3    H161466   0.903   4.107   0.653 -1.0267  0.4532 -0.0810
13325TIP3    H261467   0.953   4.245   0.618 -0.2635 -0.1752 -1.5058
13326TIP3   OH261468   3.402   1.590   2.591  0.1303  0.1009  0.2083
13326TIP3    H161469   3.306   1.592   2.597 -0.0701 -0.6926 -1.9493
13326TIP3    H261470   3.433   1.626   2.674 -2.0486  3.1198 -0.2183
13327TIP3   OH261471   2.790   0.979   5.627 -0.6815 -0.3858  0.1679
13327TIP3    H161472   2.822   1.012   5.711 -1.2915 -0.0516  0.2666
13327TIP3    H261473   2.838   1.031   5.561 -0.5249 -0.3497  0.3091
13328TIP3   OH261474   0.228   2.499  16.604 -0.1709 -0.1702 -0.5506
13328TIP3    H161475   0.309   2.530  16.645 -0.5712  2.4124 -1.6000
13328TIP3    H261476   0.178   2.460  16.676  1.2442 -0.2124  0.4365
13329TIP3   OH261477   2.755   3.197   0.714 -0.5651 -0.1146 -0.4199
13329TIP3    H161478   2.716   3.110   0.714  0.2230 -0.4785 -1.1297
13329TIP3    H261479   2.809   3.199   0.635  0.9826  0.2961  0.6168
13330TIP3   OH261480   2.341   4.645   0.760 -0.3970  0.0115 -0.2600
13330TIP3    H161481   2.326   4.731   0.722 -2.0752  0.9457  2.3934
13330TIP3    H261482   2.287   4.643   0.839  0.7051 -2.9444  0.5124
13331TIP3   OH261483   6.018   5.057  11.399  0.0829 -0.3688  0.2344
13331TIP3    H161484   5.991   5.075  11.489  1.1001 -0.3981  0.5470
13331TIP3    H261485   6.101   5.102  11.389 -0.1827 -0.0964 -0.8010
13332TIP3   OH261486   3.225   0.961  15.607 -0.1235  0.0907 -0.5012
13332TIP3    H161487   3.129   0.952  15.607  0.0064 -1.6964  1.0236
13332TIP3    H261488   3.250   0.947  15.516 -1.4698  2.8307 -1.3492
13333TIP3   OH261489   0.771   4.287  14.171  0.0846 -0.1681 -0.3098
13333TIP3    H161490   0.682   4.310  14.146 -0.1716  1.4724  1.9416
13333TIP3    H261491   0.811   4.370  14.197  0.8042 -1.4988  3.0651
13334TIP3   OH261492   0.886   3.185   2.568 -0.1521  0.3225  0.3264
13334TIP3    H161493   0.898   3.275   2.598  0.9600  0.0085  0.8401
13334TIP3    H261494   0.812   3.152   2.618 -1.0354  1.1878 -0.4019
13335TIP3   OH261495   5.146   0.742  11.633  0.1788 -0.1349  0.2845
13335TIP3    H161496   5.059   0.716  11.603  0.4377 -0.1804 -0.4420
13335TIP3    H261497   5.157   0.697  11.717  0.7816 -2.7332 -1.1395
13336TIP3   OH261498   3.137   6.740   2.042  0.2139  0.1129  0.0887
13336TIP3    H161499   3.071   6.807   2.060 -0.9275 -0.5069 -1.6935
13336TIP3    H261500   3.184   6.774   1.965 -0.6005 -1.2560 -1.0429
13337TIP3   OH261501   0.516   6.461  16.892 -0.3332 -0.0855  0.8517
13337TIP3    H161502   0.506   6.377  16.937 -0.5646  0.8899  2.6682
13337TIP3    H261503   0.445   6.463  16.828  0.4937 -1.8569 -0.1456
13338TIP3   OH261504   6.688   4.872   1.386 -0.0267  0.1203 -0.0271
13338TIP3    H161505   6.627   4.875   1.460  2.1496  1.7975  1.7611
13338TIP3    H261506   6.707   4.963   1.366  2.0906 -0.3593 -0.3674
13339TIP3   OH261507   0.685   1.380  11.848  0.4264  0.1509  0.2842
13339TIP3    H161508   0.629   1.409  11.920 -0.4499 -0.2661 -0.2359
13339TIP3    H261509   0.675   1.448  11.781 -1.0666 -0.9829 -0.6454
13340TIP3   OH261510   2.401   5.361   5.343 -0.2506 -0.1449 -0.0173
13340TIP3    H161511   2.380   5.441   5.295 -2.7234 -0.7038  0.0771
13340TIP3    H261512   2.492   5.373   5.371 -0.7372  2.8361  0.4445
13341TIP3   OH261513   5.119   1.667  12.016  0.1219 -0.7326 -0.1126
13341TIP3    H161514   5.130   1.670  11.921  1.2984 -0.9523  0.0155
13341TIP3    H261515   5.167   1.742  12.050 -0.9487 -0.2033  0.2575
13342TIP3   OH261516   4.011   5.792   0.672  0.5158 -0.2585  0.2144
13342TIP3    H161517   4.029   5.797   0.578  0.6021  1.8126  0.3095
13342TIP3    H261518   3.938   5.731   0.679 -3.7050  4.2346 -1.8627
13343TIP3   OH261519   2.590   6.736   3.697  0.2293 -0.0606  0.1282
13343TIP3    H161520   2.590   6.762   3.789  2.3069 -2.3178  0.8139
13343TIP3    H261521   2.504   6.697   3.683  1.2810 -3.3518  2.2514
13344TIP3   OH261522   1.557   1.347   5.396 -0.2219 -0.0735 -0.5394
13344TIP3    H161523   1.504   1.269   5.408 -2.2750  1.1046 -1.7150
13344TIP3    H261524   1.595   1.338   5.308 -0.2911  0.1568 -0.5945
13345TIP3   OH261525   0.725   1.196  14.854 -0.4050  0.2318  0.2483
13345TIP3    H161526   0.806   1.154  14.825 -1.3466 -1.6141  0.2103
13345TIP3    H261527   0.747   1.289  14.859  1.1063  0.0193 -1.8165
13346TIP3   OH261528   6.656   6.102  13.244 -0.2320 -0.1746  0.1619
13346TIP3    H161529   6.629   6.050  13.169  2.2737  0.5196 -1.2725
13346TIP3    H261530   6.598   6.178  13.243 -0.0760 -0.0579 -1.2238
13347TIP3   OH261531   2.333   5.096  13.966  0.0205 -0.3577 -0.6762
13347TIP3    H161532   2.290   5.056  13.890  0.7763 -0.2989 -1.1455
13347TIP3    H261533   2.425   5.105  13.939  0.3708 -0.6750  0.3824
13348TIP3   OH261534   2.963   4.136  16.476 -0.1335 -0.0087  0.2484
13348TIP3    H161535   3.019   4.112  16.401 -0.8877 -1.4421  0.1216
13348TIP3    H261536   3.014   4.200  16.524 -0.2236  2.0425 -2.2952
13349TIP3   OH261537   3.399   0.717  17.084 -0.2129  0.2047  0.1074
13349TIP3    H161538   3.421   0.626  17.107  0.4192  0.1706 -0.6033
13349TIP3    H261539   3.442   0.770  17.151 -1.5269 -0.0695  1.1860
13350TIP3   OH261540   2.107   1.957  13.730 -0.4547 -0.2254  0.1109
13350TIP3    H161541   2.102   1.960  13.825  0.3978 -2.3407  0.2418
13350TIP3    H261542   2.174   2.022  13.707  1.5342 -1.8416  1.1906
13351TIP3   OH261543   3.856   2.294   5.585  0.2675 -0.2060 -0.7606
13351TIP3    H161544   3.891   2.207   5.569  0.7198 -0.2601  0.4751
13351TIP3    H261545   3.856   2.303   5.681  1.3167  1.5977 -0.9170
13352TIP3   OH261546   3.441   2.695   0.080  0.0172 -0.5845 -0.4371
13352TIP3    H161547   3.398   2.776   0.107 -0.2557 -0.6907 -0.5497
13352TIP3    H261548   3.394   2.626   0.127 -0.3381 -0.7549 -1.0242
13353TIP3   OH261549   6.409   4.355  14.629  0.5467 -0.3885  0.7469
13353TIP3    H161550   6.499   4.338  14.599  0.3057 -1.0420  0.4018
13353TIP3    H261551   6.376   4.422  14.568  1.2654  0.8760  1.7082
13354TIP3   OH261552   5.835   4.983   1.343  0.2125 -0.1104  0.5624
13354TIP3    H161553   5.772   5.055   1.334 -0.6794 -0.9517  0.0101
13354TIP3    H261554   5.905   5.019   1.397  0.0008  1.3338 -0.1058
13355TIP3   OH261555   5.945   4.581   1.051  0.6064 -0.9402 -0.0228
13355TIP3    H161556   5.992   4.587   1.134  1.6037 -1.8528 -0.5169
13355TIP3    H261557   5.998   4.631   0.989 -2.3034  3.4256  0.7939
13356TIP3   OH261558   3.928   5.121   3.090 -0.1061 -0.5479 -0.4689
13356TIP3    H161559   3.982   5.122   3.168 -1.1956  0.9682  0.3152
13356TIP3    H261560   3.839   5.108   3.122 -0.2074 -3.6192 -1.7770
13357TIP3   OH261561   3.716   0.865  11.114 -0.0961  0.3652  0.4440
13357TIP3    H161562   3.791   0.897  11.164  1.3772  0.5123 -1.7664
13357TIP3    H261563   3.688   0.942  11.063 -1.4944  0.1944  0.9367
13358TIP3   OH261564   6.023   4.162  12.957 -0.3872  0.0569 -0.2498
13358TIP3    H161565   6.085   4.106  12.911 -0.2214  0.0276  0.0103
13358TIP3    H261566   6.020   4.127  13.046 -0.7865  0.0484 -0.2642
13359TIP3   OH261567   4.663   5.303  15.721 -0.0604 -0.0399  0.0497
13359TIP3    H161568   4.742   5.316  15.670  0.8080 -0.4653  1.2768
13359TIP3    H261569   4.608   5.379  15.700  1.3386  1.0909  0.4668
13360TIP3   OH261570   1.930   4.174  16.229 -0.0553 -0.4035 -0.1453
13360TIP3    H161571   1.883   4.188  16.312 -1.0269 -0.0664 -0.7476
13360TIP3    H261572   1.861   4.166  16.163  0.6470 -2.3092 -0.6903
13361TIP3   OH261573   1.455   6.596  10.527  0.8129 -0.3387 -0.3276
13361TIP3    H161574   1.382   6.642  10.485  2.8858  2.9653 -0.4899
13361TIP3    H261575   1.429   6.504  10.526 -3.3982  0.7536 -0.2040
13362TIP3   OH261576   2.203   1.346   5.032  0.5747  0.2504  0.0701
13362TIP3    H161577   2.254   1.342   5.113  0.9439 -0.3329 -0.1892
13362TIP3    H261578   2.159   1.262   5.027  0.3184  0.3995 -0.1844
13363TIP3   OH261579   5.140   4.309  12.214 -0.3576  0.1641  0.3640
13363TIP3    H161580   5.187   4.315  12.130 -1.5371 -0.6170 -0.3703
13363TIP3    H261581   5.105   4.220  12.215 -0.0884  0.0682  1.8500
13364TIP3   OH261582   6.224   5.205   3.596  0.0766 -0.5257 -0.2263
13364TIP3    H161583   6.139   5.167   3.618 -0.1847 -0.1379 -0.5618
13364TIP3    H261584   6.287   5.147   3.637 -0.3817 -0.2887  0.8561
13365TIP3   OH261585   3.289   0.177   2.738 -0.3100  0.0892 -0.0802
13365TIP3    H161586   3.246   0.121   2.674 -0.4661  1.5478 -1.2701
13365TIP3    H261587   3.366   0.211   2.693  0.9287 -0.8031  1.3229
13366TIP3   OH261588   1.703   6.390   1.490 -0.4193 -0.1320  0.3026
13366TIP3    H161589   1.707   6.465   1.549 -2.6672  0.8366 -0.7112
13366TIP3    H261590   1.787   6.391   1.444 -0.3506  1.6928  0.4159
13367TIP3   OH261591   6.505   1.541   5.760  0.1472 -0.4318 -0.4887
13367TIP3    H161592   6.561   1.575   5.830 -0.9547 -0.5059  0.4456
13367TIP3    H261593   6.434   1.605   5.754 -1.1857 -1.8013  0.3045
13368TIP3   OH261594   1.214   5.344  15.625  0.2240 -0.6418 -0.1990
13368TIP3    H161595   1.152   5.391  15.569  0.0568 -1.6591 -0.8943
13368TIP3    H261596   1.299   5.381  15.604 -0.2684  1.6847  1.7110
13369TIP3   OH261597   3.710   0.313  11.069 -0.0017  0.2900 -0.0379
13369TIP3    H161598   3.757   0.320  10.986  1.1937  2.7716  0.7914
13369TIP3    H261599   3.684   0.221  11.075  1.5588 -0.3184 -2.2495
13370TIP3   OH261600   1.112   4.840  17.247 -0.4093 -0.8677 -0.0546
13370TIP3    H161601   1.150   4.878  17.326  0.5098 -0.7409 -0.5480
13370TIP3    H261602   1.034   4.793  17.278 -1.4678  1.2372  0.6012
13371TIP3   OH261603   4.502   3.046   0.141 -0.0416  0.1032  0.2643
13371TIP3    H161604   4.483   2.978   0.077  0.0981 -0.2251  0.5716
13371TIP3    H261605   4.495   3.128   0.092  2.0091 -0.2348 -0.6680
13372TIP3   OH261606   1.452   4.754  14.254  0.2926 -0.1308 -0.0792
13372TIP3    H161607   1.507   4.676  14.257  0.7915  0.0712 -2.6216
13372TIP3    H261608   1.510   4.823  14.222 -1.1345  0.3026 -1.8385
13373TIP3   OH261609   3.022   2.730  16.063 -0.2311 -0.1405 -0.0389
13373TIP3    H161610   3.000   2.693  16.148 -0.5224  0.5794  0.1988
13373TIP3    H261611   3.004   2.660  16.001 -0.4723 -0.5072  0.4413
13374TIP3   OH261612   6.493   6.369   2.735 -0.3479  0.2625 -0.5440
13374TIP3    H161613   6.475   6.404   2.823  0.4803 -1.0544  0.1620
13374TIP3    H261614   6.419   6.311   2.717 -0.6376  0.7146 -0.8245
13375TIP3   OH261615   3.702   6.058   6.472  0.0776  0.3946  0.1007
13375TIP3    H161616   3.636   6.090   6.411  0.7753  2.8842  0.5892
13375TIP3    H261617   3.786   6.070   6.426  0.4059 -0.1933  0.5342
13376TIP3   OH261618   4.152   1.607   0.786 -0.7611  0.0066  0.1814
13376TIP3    H161619   4.123   1.675   0.726 -0.8365 -1.6045 -1.6468
13376TIP3    H261620   4.075   1.588   0.840 -0.9126  0.9071  0.2914
13377TIP3   OH261621   6.149   0.937  11.770 -0.0290  0.5574  0.3340
13377TIP3    H161622   6.125   0.858  11.722 -0.6134  1.0790 -0.2454
13377TIP3    H261623   6.065   0.980  11.788  0.2807  1.0039  0.7044
13378TIP3   OH261624   5.040   2.835   1.112  0.3222  0.4197  0.3443
13378TIP3    H161625   5.061   2.745   1.088 -0.8426 -0.3870  2.2299
13378TIP3    H261626   5.112   2.863   1.167  0.1115  0.2240  0.7225
13379TIP3   OH261627   3.625   0.574  12.662 -0.3645 -0.4816  1.0516
13379TIP3    H161628   3.628   0.522  12.742  1.1409 -2.4463 -0.2439
13379TIP3    H261629   3.714   0.605  12.649 -0.1540 -1.8362 -0.9071
13380TIP3   OH261630   0.060   3.079   4.820 -0.7195  0.1144 -0.1048
13380TIP3    H161631   0.095   2.991   4.831  2.1559  0.7969 -2.9167
13380TIP3    H261632   0.049   3.113   4.909  1.5541 -1.8187  0.9594
13381TIP3   OH261633   4.377   1.196   0.397  0.6178  0.1792  0.2214
13381TIP3    H161634   4.362   1.144   0.476 -2.3342 -0.8096 -0.9180
13381TIP3    H261635   4.472   1.196   0.385  0.9368 -1.4854  2.5493
13382TIP3   OH261636   1.677   2.957   5.130  0.0785 -0.4147 -0.3902
13382TIP3    H161637   1.705   2.932   5.041  0.3875 -0.8566 -0.1675
13382TIP3    H261638   1.694   2.879   5.183 -2.9490 -1.2244 -0.5298
13383TIP3   OH261639   5.298   4.314   1.336 -0.0279 -0.1040  0.0553
13383TIP3    H161640   5.375   4.299   1.389 -1.4482 -1.0387  1.9125
13383TIP3    H261641   5.298   4.409   1.319  0.2697  0.2600  2.0160
13384TIP3   OH261642   1.753   0.119   4.103 -0.4207 -0.0305 -0.1309
13384TIP3    H161643   1.703   0.161   4.173 -2.9625  0.6465 -2.2739
13384TIP3    H261644   1.718   0.030   4.098  0.6094 -0.4579  0.2806
13385TIP3   OH261645   0.953   1.767   6.307 -0.0278  0.4815  0.3569
13385TIP3    H161646   0.925   1.794   6.219  0.9861  1.4202  0.3184
13385TIP3    H261647   0.889   1.806   6.366 -0.2214  0.5565  0.0978
13386TIP3   OH261648   4.775   3.655  14.336  0.3080 -0.0269  0.1161
13386TIP3    H161649   4.866   3.642  14.310  0.1858 -0.5109 -0.0687
13386TIP3    H261650   4.740   3.716  14.271 -0.1153 -1.5589 -1.1314
13387TIP3   OH261651   1.701   2.934   0.655  0.6740  0.4085 -0.0515
13387TIP3    H161652   1.640   2.862   0.671  1.0250  0.5311  1.8946
13387TIP3    H261653   1.727   2.964   0.742  3.7467  0.1557 -0.8187
13388TIP3   OH261654   1.040   0.571  15.825  0.4564 -0.3829 -0.0940
13388TIP3    H161655   1.015   0.581  15.917 -0.6600 -0.8214 -0.3386
13388TIP3    H261656   0.959   0.544  15.781  1.4877 -2.4149 -0.8225
13389TIP3   OH261657   3.660   6.492  11.846 -0.3047  0.4862 -0.6035
13389TIP3    H161658   3.660   6.585  11.826  0.0978  0.2773 -1.6133
13389TIP3    H261659   3.625   6.451  11.766 -2.3338 -0.0783  0.5367
13390TIP3   OH261660   0.464   5.530   5.838 -0.0049  0.3892 -0.2357
13390TIP3    H161661   0.541   5.493   5.796  1.2111  1.6037  0.8613
13390TIP3    H261662   0.395   5.524   5.773  1.7601  2.0156 -2.3309
13391TIP3   OH261663   3.108   4.211   5.371 -0.5694 -0.1333 -0.8227
13391TIP3    H161664   3.135   4.124   5.340  0.6307  0.3711 -1.2206
13391TIP3    H261665   3.085   4.259   5.291  1.8817  0.9475 -0.9344
13392TIP3   OH261666   6.648   6.066   4.559  0.0257 -0.5373 -0.0282
13392TIP3    H161667   6.613   5.977   4.561  0.4323 -0.6828  0.8094
13392TIP3    H261668   6.573   6.122   4.579 -0.1717 -0.7052 -0.2909
13393TIP3   OH261669   3.098   6.070   5.372 -0.0607  0.0910  0.1983
13393TIP3    H161670   3.005   6.055   5.386 -0.5067  1.3434 -1.1903
13393TIP3    H261671   3.122   6.135   5.437 -0.7990  1.7284 -1.1218
13394TIP3   OH261672   2.735   5.958   3.381 -0.3980 -0.5211 -0.0216
13394TIP3    H161673   2.769   5.952   3.471  0.8552 -0.4120 -0.4751
13394TIP3    H261674   2.687   5.876   3.368  1.9226 -1.9016 -0.2442
13395TIP3   OH261675   0.855   2.010  14.011  0.0926  0.3232 -0.0525
13395TIP3    H161676   0.902   1.964  14.079  0.4027  1.7018  0.6856
13395TIP3    H261677   0.769   2.030  14.049 -0.4161 -0.5193 -0.7252
13396TIP3   OH261678   4.165   6.018  15.971 -0.4006 -0.9908  0.3225
13396TIP3    H161679   4.184   5.925  15.976  1.4089 -0.6207  0.6062
13396TIP3    H261680   4.118   6.038  16.052  2.2230 -1.0028  1.9030
13397TIP3   OH261681   6.597   6.183  15.450 -0.3984  0.0013 -0.2615
13397TIP3    H161682   6.682   6.227  15.457 -0.8497  0.8995 -0.3258
13397TIP3    H261683   6.605   6.106  15.506  0.7933 -0.4523 -1.0439
13398TIP3   OH261684   2.398   4.703   6.400 -0.7827  0.3561 -0.4385
13398TIP3    H161685   2.372   4.656   6.479 -0.2393 -1.3345 -1.2410
13398TIP3    H261686   2.387   4.795   6.422 -0.1786 -0.0741  1.7858
13399TIP3   OH261687   1.478   4.650  15.603  0.2423 -0.4353  0.0711
13399TIP3    H161688   1.531   4.715  15.557  0.3554  0.1014  0.9402
13399TIP3    H261689   1.496   4.568  15.558 -0.8963  0.3302 -1.8759
13400TIP3   OH261690   2.117   0.863  13.321  0.2524  0.0252 -0.5420
13400TIP3    H161691   2.042   0.854  13.261 -0.2479 -2.0810  0.3491
13400TIP3    H261692   2.188   0.815  13.278  0.6807  0.8164 -0.7184
13401TIP3   OH261693   0.309   5.286  16.038  0.1128  0.2635 -0.5966
13401TIP3    H161694   0.225   5.259  16.001 -0.2398  1.3127 -0.5682
13401TIP3    H261695   0.374   5.251  15.977 -0.4763  2.2150 -2.3728
13402TIP3   OH261696   5.472   5.126   1.470 -0.7381  0.0953  0.4494
13402TIP3    H161697   5.504   5.113   1.381  0.9654 -0.1827  1.0735
13402TIP3    H261698   5.466   5.037   1.506  0.8829  0.3298  1.3597
13403TIP3   OH261699   5.665   1.384  14.442  1.0703 -0.6056 -0.3185
13403TIP3    H161700   5.723   1.315  14.475  1.3835 -0.4499 -0.5370
13403TIP3    H261701   5.606   1.338  14.382  0.6165 -0.8566  0.3143
13404TIP3   OH261702   1.297   0.791   4.848  0.5083  0.2517  0.1587
13404TIP3    H161703   1.372   0.735   4.827 -0.2732 -1.5725  1.9788
13404TIP3    H261704   1.222   0.731   4.850 -1.1172  2.1257 -2.1180
13405TIP3   OH261705   0.760   2.773   0.296 -0.1122 -0.1291  0.0419
13405TIP3    H161706   0.792   2.840   0.356 -1.6814  0.4417  0.2753
13405TIP3    H261707   0.814   2.783   0.218 -0.0500  1.1375  0.2293
13406TIP3   OH261708   3.844   2.121   5.255 -0.4214  0.8597  0.9186
13406TIP3    H161709   3.808   2.205   5.227  1.5849  1.6060  0.4492
13406TIP3    H261710   3.939   2.134   5.252 -0.0314 -2.1605 -1.4504
13407TIP3   OH261711   3.942   0.035  14.688  0.2589 -0.2537 -0.6611
13407TIP3    H161712   4.029  -0.002  14.674  0.2655  0.2848 -2.2051
13407TIP3    H261713   3.895  -0.031  14.739  1.6926 -0.3639  0.5474
13408TIP3   OH261714   3.296   4.266   5.589  0.0700 -0.0667  0.9212
13408TIP3    H161715   3.236   4.255   5.515  1.8001 -3.1106 -0.1272
13408TIP3    H261716   3.240   4.298   5.660 -2.0137  0.9728 -1.1308
13409TIP3   OH261717   1.904   3.695  16.387  0.2060  0.2629 -0.5113
13409TIP3    H161718   1.813   3.701  16.359  0.0425 -1.5606 -0.3741
13409TIP3    H261719   1.903   3.633  16.459  1.7069 -0.5284 -1.1555
13410TIP3   OH261720   6.754   5.790  11.209  0.0972  0.2548  0.1459
13410TIP3    H161721   6.805   5.827  11.137 -1.4963 -0.2908 -1.3151
13410TIP3    H261722   6.704   5.864  11.243 -2.0500 -0.1678 -1.8828
13411TIP3   OH261723   0.977   3.916   4.329 -0.4816  0.7820  0.2946
13411TIP3    H161724   0.947   3.981   4.393  2.3846  1.2659  1.2212
13411TIP3    H261725   1.028   3.967   4.265 -1.6460  0.0082 -1.2934
13412TIP3   OH261726   3.979   0.965   2.177  0.0143  0.1699  0.5738
13412TIP3    H161727   3.974   0.897   2.244 -3.6124 -0.1219  0.1000
13412TIP3    H261728   3.975   1.048   2.225 -0.8921 -0.0217  0.8336
13413TIP3   OH261729   1.355   0.176  16.753 -0.2853 -0.5207 -0.3221
13413TIP3    H161730   1.338   0.208  16.664  1.1411 -0.2231 -0.4991
13413TIP3    H261731   1.268   0.157  16.789 -0.8339 -1.4812 -2.0884
13414TIP3   OH261732   1.867   6.096  12.620 -0.4348  0.2172  0.0515
13414TIP3    H161733   1.784   6.053  12.606 -0.8594  1.5607 -1.7196
13414TIP3    H261734   1.906   6.050  12.694 -2.6566 -0.5395  0.7872
13415TIP3   OH261735   2.342   5.126   4.835  0.2537 -0.0856  0.1848
13415TIP3    H161736   2.369   5.177   4.759  0.7229 -0.3505  0.1752
13415TIP3    H261737   2.269   5.072   4.804 -0.6386  1.0134  0.3444
13416TIP3   OH261738   3.544   2.903   5.249 -0.0756  0.3688 -0.3586
13416TIP3    H161739   3.513   2.833   5.306 -1.0139  0.8037 -0.3332
13416TIP3    H261740   3.596   2.960   5.306  0.8948 -0.4190 -0.4290
13417TIP3   OH261741   1.706   2.706   5.287  0.3337 -0.5402  0.5596
13417TIP3    H161742   1.648   2.652   5.341 -0.8602  0.0136 -0.1619
13417TIP3    H261743   1.730   2.649   5.214 -1.9767  0.2931 -0.8986
13418TIP3   OH261744   0.073   0.243   4.472  0.2069  0.2072 -0.6463
13418TIP3    H161745   0.054   0.290   4.553  0.1799  1.8696 -1.6101
13418TIP3    H261746   0.155   0.197   4.489  1.1264  1.9774 -0.2888
13419TIP3   OH261747   4.989   1.215  16.026 -0.6827 -0.2442 -0.1634
13419TIP3    H161748   5.005   1.204  16.120 -1.6190  0.4734  0.1003
13419TIP3    H261749   5.004   1.129  15.988 -1.6276 -0.8734  0.8554
13420TIP3   OH261750   6.195   3.803  13.646 -0.4832  0.2147  0.1904
13420TIP3    H161751   6.220   3.895  13.631  2.1807 -0.0275  2.6181
13420TIP3    H261752   6.261   3.753  13.598 -1.8143 -0.4777 -0.9544
13421TIP3   OH261753   3.866   0.415   0.490  0.3437 -0.2004  0.2608
13421TIP3    H161754   3.798   0.348   0.491  0.0236  0.1273  0.9335
13421TIP3    H261755   3.935   0.379   0.435  0.5440 -1.4563  1.3167
13422TIP3   OH261756   5.394   6.764  15.607 -0.0329  1.2743  0.2061
13422TIP3    H161757   5.445   6.818  15.667  0.1650  1.1619  0.1387
13422TIP3    H261758   5.408   6.805  15.521  0.3580  0.9452  0.1091
13423TIP3   OH261759   4.975   0.601  13.143 -0.2733 -0.1839 -1.2356
13423TIP3    H161760   4.913   0.671  13.161 -1.2415 -1.3384  0.0726
13423TIP3    H261761   5.026   0.632  13.069 -1.1780  1.5773 -1.1443
13424TIP3   OH261762   5.839   4.533   2.369 -0.1068 -0.4257  0.0480
13424TIP3    H161763   5.803   4.603   2.424  1.6666 -0.1760  0.9321
13424TIP3    H261764   5.782   4.532   2.292 -0.2227  1.9513  0.0370
13425TIP3   OH261765   5.997   5.918  13.422 -0.3048  0.3123 -0.3379
13425TIP3    H161766   5.991   5.825  13.445  1.1923  0.6096  1.4234
13425TIP3    H261767   6.088   5.929  13.393  0.3749  1.7667  2.2041
13426TIP3   OH261768   2.650   4.530   4.920 -0.5079  0.2960 -0.7325
13426TIP3    H161769   2.592   4.459   4.893  1.0843 -1.7756  1.0834
13426TIP3    H261770   2.611   4.564   5.000 -0.2440  0.1415 -0.5337
13427TIP3   OH261771   4.668   2.157   5.351  0.1421 -0.4246 -0.3327
13427TIP3    H161772   4.621   2.191   5.427 -0.0167 -1.2784 -0.0520
13427TIP3    H261773   4.758   2.145   5.382 -0.3640 -2.6753  0.2945
13428TIP3   OH261774   0.026   0.924   1.371 -0.1848  0.2133  0.1116
13428TIP3    H161775   0.044   0.844   1.420 -0.5025  0.2375  0.2656
13428TIP3    H261776   0.049   0.901   1.280 -0.2508 -0.0455  0.1581
13429TIP3   OH261777   6.463   5.867  16.149 -0.2949 -0.1121  0.4391
13429TIP3    H161778   6.408   5.791  16.127  1.5045 -1.6035  0.9680
13429TIP3    H261779   6.518   5.837  16.221  1.5480  1.1894 -0.3801
13430TIP3   OH261780   1.299   5.058  15.985 -0.4416 -0.2819 -0.0581
13430TIP3    H161781   1.290   5.023  15.896  0.0443  1.9065 -0.9921
13430TIP3    H261782   1.288   5.152  15.975  0.6770  0.0945  2.0684
13431TIP3   OH261783   4.539   5.538  15.582 -0.0726  0.1015  0.4217
13431TIP3    H161784   4.603   5.554  15.513 -0.6695  2.2980  0.3293
13431TIP3    H261785   4.455   5.568  15.545 -0.6437 -0.0566  1.5449
13432TIP3   OH261786   4.970   0.384   3.767  0.1559 -0.1851  0.5716
13432TIP3    H161787   5.053   0.338   3.759 -0.8845 -2.0114  0.0772
13432TIP3    H261788   4.955   0.421   3.680 -0.5450 -1.6170  0.0700
13433TIP3   OH261789   4.189   1.515  14.846  0.4031 -1.4121  0.1113
13433TIP3    H161790   4.233   1.490  14.927  0.1113 -0.0013  0.7258
13433TIP3    H261791   4.098   1.487  14.858  0.2863 -0.9145  0.4183
13434TIP3   OH261792   5.636   6.482  16.260  0.0056  0.2760 -0.2601
13434TIP3    H161793   5.678   6.411  16.309  0.8503  0.7304 -0.3079
13434TIP3    H261794   5.617   6.445  16.174 -2.7393 -0.9480  0.8385
13435TIP3   OH261795   3.881   0.870  16.795 -0.3174 -0.0095 -0.2665
13435TIP3    H161796   3.839   0.798  16.749 -0.2633 -1.0146  1.2042
13435TIP3    H261797   3.878   0.844  16.887  1.5635  0.9059  0.0810
13436TIP3   OH261798   1.481   6.097  14.343 -0.1198 -0.0899  0.5950
13436TIP3    H161799   1.488   6.048  14.425  1.3525  0.3163  0.7335
13436TIP3    H261800   1.538   6.050  14.282 -0.0757  0.4359  0.2304
13437TIP3   OH261801   4.010   5.173   0.289  0.0602 -0.1457  0.3086
13437TIP3    H161802   3.989   5.167   0.383 -0.0115  0.7282  0.3612
13437TIP3    H261803   3.950   5.240   0.256  1.1537  0.6746 -0.0314
13438TIP3   OH261804   4.425   2.060   5.024  0.5916 -0.3264 -0.7520
13438TIP3    H161805   4.420   2.023   5.113  0.0343  2.2161  0.3175
13438TIP3    H261806   4.362   2.008   4.973 -0.2173 -0.8207  0.7135
13439TIP3   OH261807   6.404   3.328  12.666  0.4344  0.4532  0.1478
13439TIP3    H161808   6.393   3.244  12.711  1.6956  0.5394  0.6540
13439TIP3    H261809   6.469   3.310  12.598 -0.0246  0.7842 -0.3766
13440TIP3   OH261810   1.591   2.103   3.480 -0.1720 -0.5778  0.3540
13440TIP3    H161811   1.680   2.079   3.505 -0.1320 -0.4883  0.2966
13440TIP3    H261812   1.547   2.019   3.465  0.6185 -0.5888 -2.1647
13441TIP3   OH261813   1.084   3.508  14.419  0.1452 -0.4167  0.3917
13441TIP3    H161814   1.021   3.444  14.451 -2.6618  1.3059 -1.4491
13441TIP3    H261815   1.092   3.489  14.325 -1.1162  2.1152 -0.2885
13442TIP3   OH261816   5.489   5.525  17.051  0.4184  0.4998 -0.4283
13442TIP3    H161817   5.584   5.530  17.043  0.6855 -2.1070  0.5259
13442TIP3    H261818   5.456   5.544  16.963  1.9932 -2.0144 -1.6196
13443TIP3   OH261819   1.330   3.623   0.504 -0.0381 -0.1880 -0.4544
13443TIP3    H161820   1.369   3.704   0.471 -0.6740  0.7716  1.1007
13443TIP3    H261821   1.383   3.553   0.465  1.4374  1.0062 -0.6298
13444TIP3   OH261822   5.384   5.790  14.528 -0.0855  0.1332  0.2493
13444TIP3    H161823   5.415   5.727  14.463  2.7071  1.0702  0.6278
13444TIP3    H261824   5.390   5.875  14.483 -0.4526  0.5163  0.9234
13445TIP3   OH261825   2.228   4.505  12.134 -0.1444  0.0529 -0.0047
13445TIP3    H161826   2.181   4.583  12.103  1.5746  0.6021 -1.3064
13445TIP3    H261827   2.295   4.539  12.193 -1.8821 -0.8070  2.5618
13446TIP3   OH261828   6.659   0.764  14.005  0.3309 -0.7143 -0.6842
13446TIP3    H161829   6.644   0.844  13.954 -0.1681  1.1665  2.3200
13446TIP3    H261830   6.573   0.720  14.007 -0.3179  0.5984  0.8139
13447TIP3   OH261831   3.687   6.114   3.364  0.7372 -0.2641 -0.3475
13447TIP3    H161832   3.746   6.175   3.321  1.8664 -1.8717 -1.1389
13447TIP3    H261833   3.724   6.101   3.451 -0.3216  1.2934  0.3466
13448TIP3   OH261834   5.775   2.190   1.625  0.0460 -0.2199 -0.2635
13448TIP3    H161835   5.721   2.245   1.568  0.7985  0.5203 -0.2693
13448TIP3    H261836   5.760   2.223   1.713  0.6687  0.1486 -0.2900
13449TIP3   OH261837   4.969   5.802  11.434 -0.1007  0.5443 -0.0436
13449TIP3    H161838   4.970   5.717  11.479  1.8672  1.3367  1.4640
13449TIP3    H261839   4.878   5.830  11.439 -0.9015 -1.7185 -1.0576
13450TIP3   OH261840   0.523   5.922   2.723  0.4884 -0.4203 -0.4609
13450TIP3    H161841   0.467   5.845   2.727 -1.3373  0.8698 -0.7835
13450TIP3    H261842   0.463   5.995   2.713  2.2752  0.9050 -1.8529
13451TIP3   OH261843   0.350   2.821  12.469  0.6684  0.7942  0.4750
13451TIP3    H161844   0.349   2.878  12.546 -1.4639 -0.5766  1.4934
13451TIP3    H261845   0.433   2.773  12.476  1.1269  1.6788  1.1683
13452TIP3   OH261846   5.000   5.537  12.469  0.9859 -0.5232  0.3745
13452TIP3    H161847   4.924   5.497  12.512  0.4334 -0.8676 -0.8836
13452TIP3    H261848   5.037   5.595  12.535  0.6394 -1.6407  1.5789
13453TIP3   OH261849   6.641   6.115   2.701 -0.0285  0.2604 -0.3571
13453TIP3    H161850   6.591   6.034   2.688  0.6209 -0.1768 -0.1154
13453TIP3    H261851   6.575   6.184   2.693 -0.7421 -0.3347  0.3182
13454TIP3   OH261852   3.700   0.269  13.163  0.3498  0.0660 -0.3194
13454TIP3    H161853   3.642   0.311  13.227  1.4234 -1.6680  1.8819
13454TIP3    H261854   3.642   0.217  13.108 -0.3472 -0.4510  0.8945
13455TIP3   OH261855   0.624   0.666   2.300 -0.6346 -0.6876  0.7333
13455TIP3    H161856   0.685   0.661   2.227 -1.2546  2.0491 -0.0346
13455TIP3    H261857   0.556   0.602   2.279 -1.0280  0.3757 -1.3244
13456TIP3   OH261858   5.208   4.151   0.098  0.6299  0.1411 -0.6169
13456TIP3    H161859   5.153   4.214   0.144 -0.7400  0.1087 -2.1523
13456TIP3    H261860   5.225   4.192   0.013  2.2908 -0.2309 -0.4857
13457TIP3   OH261861   3.625   1.242  14.536  0.0393 -0.2533  0.2030
13457TIP3    H161862   3.700   1.185  14.558  0.8472  0.1429 -1.4956
13457TIP3    H261863   3.549   1.186  14.551  0.7235 -1.0769  0.7170
13458TIP3   OH261864   3.794   2.954  15.502  0.2024  0.0155 -0.1527
13458TIP3    H161865   3.846   2.890  15.453  1.9629  0.2878  1.2988
13458TIP3    H261866   3.710   2.958  15.456  0.5638 -2.3176 -1.0694
13459TIP3   OH261867   0.371   1.117   1.077  0.3409  0.5023  0.0501
13459TIP3    H161868   0.292   1.069   1.052  0.6861  0.4876 -1.0379
13459TIP3    H261869   0.339   1.195   1.122 -0.3087  0.7239 -0.7885
13460TIP3   OH261870   4.842   4.941  15.934 -0.4743  0.0577  0.0115
13460TIP3    H161871   4.825   4.853  15.902 -0.5688 -0.0553  0.3760
13460TIP3    H261872   4.764   4.991  15.911 -0.5087 -0.0053 -0.0072
13461TIP3   OH261873   4.616   0.512  13.897  0.1620  0.0329 -0.0235
13461TIP3    H161874   4.599   0.478  13.984 -0.2575 -1.8702 -0.8285
13461TIP3    H261875   4.703   0.553  13.904  0.7208 -1.2824  0.9417
13462TIP3   OH261876   6.666   0.605   2.426  0.8473  0.5626  0.2025
13462TIP3    H161877   6.599   0.538   2.412  1.1153  0.7479 -2.1778
13462TIP3    H261878   6.708   0.581   2.509  1.1581 -2.3973 -0.7829
13463TIP3   OH261879   1.066   4.842  15.912 -0.1364  0.1481  0.2449
13463TIP3    H161880   0.987   4.862  15.963  0.7010  0.5417  1.4007
13463TIP3    H261881   1.134   4.897  15.950  1.0301 -1.1970  0.1674
13464TIP3   OH261882   2.074   6.469  11.173 -0.0523  0.2330  0.3503
13464TIP3    H161883   2.113   6.488  11.088  1.3023 -2.1681  0.4153
13464TIP3    H261884   2.011   6.400  11.156  1.0305 -1.0558  1.4601
13465TIP3   OH261885   4.673   1.908  10.424  0.4485  0.5297 -0.3606
13465TIP3    H161886   4.696   1.987  10.374  0.0342  1.7578  1.3249
13465TIP3    H261887   4.671   1.938  10.515 -1.7230 -0.9915  0.1114
13466TIP3   OH261888   2.185   2.661   6.151 -0.0586  0.2680 -0.1466
13466TIP3    H161889   2.245   2.606   6.201  0.0363 -1.3975 -2.0115
13466TIP3    H261890   2.104   2.660   6.202  0.2110 -0.9227  0.2857
13467TIP3   OH261891   1.768   3.390   0.663 -0.7296 -0.2232 -0.0385
13467TIP3    H161892   1.715   3.315   0.636 -0.7616 -0.0647 -0.4223
13467TIP3    H261893   1.845   3.387   0.605  0.0209 -0.8463  0.9627
13468TIP3   OH261894   0.733   3.504   5.508  0.2572 -0.5499 -0.5688
13468TIP3    H161895   0.750   3.475   5.598 -2.0100  0.5965  0.2741
13468TIP3    H261896   0.640   3.487   5.495  0.4130 -0.0064 -2.4361
13469TIP3   OH261897   2.937   2.211  11.831  0.0425  0.4364 -0.5246
13469TIP3    H161898   2.933   2.186  11.739 -0.7333  1.7415 -0.8455
13469TIP3    H261899   3.029   2.230  11.846  0.3097 -0.5696 -0.8087
13470TIP3   OH261900   0.415   0.925  15.149  0.1364  0.6235  0.2375
13470TIP3    H161901   0.420   0.886  15.237 -1.9209  0.9269  0.5062
13470TIP3    H261902   0.324   0.949  15.139  0.1682 -0.2038 -2.3639
13471TIP3   OH261903   2.377   5.204  14.457 -0.0166  0.4929 -0.2352
13471TIP3    H161904   2.442   5.206  14.528 -1.8146 -0.5564  1.4684
13471TIP3    H261905   2.380   5.114  14.425 -0.1495  0.6232 -0.6081
13472TIP3   OH261906   0.960   0.032  16.116  0.2063 -0.0047 -0.2134
13472TIP3    H161907   0.867   0.044  16.097  0.2333 -2.3162 -1.9640
13472TIP3    H261908   0.961  -0.003  16.205 -0.5960  0.0434 -0.1746
13473TIP3   OH261909   1.469   3.264  15.405  0.2159 -0.7124  0.5810
13473TIP3    H161910   1.494   3.329  15.339  2.4807 -2.5035 -0.3673
13473TIP3    H261911   1.375   3.250  15.389  0.5251 -0.4447 -1.6785
13474TIP3   OH261912   6.318   3.831  12.058 -0.0813  0.2834  0.0563
13474TIP3    H161913   6.285   3.838  12.148  1.4656  0.1241  0.6652
13474TIP3    H261914   6.277   3.903  12.011 -0.3704  0.7880  1.0709
13475TIP3   OH261915   5.793   1.544  11.275 -0.2879 -0.3878  0.2321
13475TIP3    H161916   5.811   1.531  11.368  1.1060 -1.0296 -0.1135
13475TIP3    H261917   5.698   1.555  11.270 -0.7122 -3.1442  1.4015
13476TIP3   OH261918   4.233   4.711  13.768  0.1327  0.1734 -0.0519
13476TIP3    H161919   4.279   4.794  13.776  0.4395 -0.0441  0.4815
13476TIP3    H261920   4.267   4.673  13.687  0.0170  0.5478 -0.2793
13477TIP3   OH261921   4.246   1.078   5.891  0.4557  0.2924 -0.1299
13477TIP3    H161922   4.165   1.051   5.933 -0.0092  0.4620 -0.8929
13477TIP3    H261923   4.291   1.130   5.956 -1.5746  2.9788 -0.7739
13478TIP3   OH261924   6.092   4.900   5.417 -0.4836  0.2656  0.3698
13478TIP3    H161925   6.015   4.851   5.388 -1.9371  2.3882  0.5202
13478TIP3    H261926   6.069   4.930   5.505  1.1314 -0.2848  1.0091
13479TIP3   OH261927   2.417   4.249   4.378  0.1269  0.0823 -0.1292
13479TIP3    H161928   2.366   4.169   4.386  0.9178 -0.4322 -0.2335
13479TIP3    H261929   2.447   4.268   4.467 -0.4301  0.5195 -0.0250
13480TIP3   OH261930   3.557   6.745   5.397  0.0689  0.0346 -0.6032
13480TIP3    H161931   3.578   6.687   5.470 -1.0911  1.5627  0.9705
13480TIP3    H261932   3.638   6.793   5.381  1.0266 -1.9294 -1.8892
13481TIP3   OH261933   4.734   4.188  13.871  0.4472 -0.1135 -0.3322
13481TIP3    H161934   4.669   4.197  13.941  0.1335 -0.2659 -0.6015
13481TIP3    H261935   4.772   4.101  13.884  1.1882  0.2996  0.3220
13482TIP3   OH261936   1.834   5.599  16.022  0.0037  0.3927 -0.5836
13482TIP3    H161937   1.928   5.618  16.015 -0.0604  0.6599 -0.6998
13482TIP3    H261938   1.802   5.603  15.932 -0.4593  2.0471 -0.3618
13483TIP3   OH261939   0.581   2.150  12.981  0.0983  0.1646  0.8820
13483TIP3    H161940   0.650   2.211  13.004  0.2653 -0.4718  2.1052
13483TIP3    H261941   0.553   2.111  13.064 -0.2636 -1.1321  0.1833
13484TIP3   OH261942   3.394   0.617   1.283  0.4753  0.7655  0.6822
13484TIP3    H161943   3.474   0.564   1.290  1.7867  2.8088  1.8924
13484TIP3    H261944   3.328   0.557   1.251  2.5534 -0.9599 -0.5097
13485TIP3   OH261945   3.332   0.387   3.705 -0.6136 -0.3017  0.0222
13485TIP3    H161946   3.420   0.394   3.741 -0.8108 -2.7141  1.0798
13485TIP3    H261947   3.343   0.395   3.611  0.6781 -0.0687  0.1889
13486TIP3   OH261948   5.015   2.354   2.700  0.0182 -0.4653  0.3466
13486TIP3    H161949   4.952   2.284   2.687  2.0664 -2.4492  0.7841
13486TIP3    H261950   4.999   2.386   2.788  0.4699 -1.8410  0.9314
13487TIP3   OH261951   4.370   1.633   2.735  0.3232  0.0028  0.2575
13487TIP3    H161952   4.339   1.592   2.655 -0.2689  0.9827 -0.0251
13487TIP3    H261953   4.334   1.722   2.732  0.1867  0.0065  1.6726
13488TIP3   OH261954   0.363   1.237   1.698  0.5979  0.3713  0.6952
13488TIP3    H161955   0.449   1.200   1.681 -0.0875 -1.6942  1.5916
13488TIP3    H261956   0.302   1.180   1.651 -0.5272  0.0416  2.4980
13489TIP3   OH261957   3.616   3.555   4.906  0.4762 -0.0580  0.4185
13489TIP3    H161958   3.534   3.597   4.883  0.5231 -1.0413 -1.7153
13489TIP3    H261959   3.621   3.562   5.002 -2.0228  0.1105  0.5771
13490TIP3   OH261960   5.356   0.221   1.889 -0.1918 -0.1736 -0.3626
13490TIP3    H161961   5.337   0.128   1.885  0.5375 -0.3080 -0.7231
13490TIP3    H261962   5.449   0.228   1.868 -0.2651  0.6438 -0.4445
13491TIP3   OH261963   5.093   6.806  13.432 -0.4883 -0.6999  0.4105
13491TIP3    H161964   5.063   6.888  13.472 -2.1753 -1.9243  1.7693
13491TIP3    H261965   5.077   6.740  13.499 -1.1765 -2.4700 -1.4364
13492TIP3   OH261966   2.626   0.833  11.729  0.3169  0.1180 -0.0971
13492TIP3    H161967   2.647   0.841  11.636  0.7001  0.1106 -0.0117
13492TIP3    H261968   2.547   0.779  11.731  1.2084 -1.2133 -0.3332
13493TIP3   OH261969   1.414   4.948  10.635  0.2383 -0.9480 -0.0920
13493TIP3    H161970   1.323   4.955  10.607  0.7038  0.3684 -1.3409
13493TIP3    H261971   1.411   4.892  10.712 -1.8904  0.8114  1.1637
13494TIP3   OH261972   4.798   3.611  16.819  0.3780  0.3972 -0.3862
13494TIP3    H161973   4.759   3.636  16.735  1.7117  0.9231 -0.8657
13494TIP3    H261974   4.868   3.676  16.833  1.1653 -0.5991  0.3816
13495TIP3   OH261975   5.017   2.825  15.278 -0.1117  0.0082 -0.6621
13495TIP3    H161976   5.007   2.896  15.214 -2.3559 -0.3972 -0.7929
13495TIP3    H261977   5.039   2.748  15.226  4.7524  1.0132 -0.3298
13496TIP3   OH261978   3.358   2.508  12.084  0.2030 -0.2687 -0.1692
13496TIP3    H161979   3.394   2.480  12.000 -0.6253 -1.5450 -0.1158
13496TIP3    H261980   3.265   2.523  12.066 -0.1392 -1.3205  0.7020
13497TIP3   OH261981   5.683   4.230   6.463  0.0600 -0.9062 -0.2067
13497TIP3    H161982   5.591   4.217   6.485  0.2411  0.3716  1.4169
13497TIP3    H261983   5.728   4.155   6.500  0.0454  0.0091  1.7250
13498TIP3   OH261984   2.155   3.643   5.029  0.4152 -0.1388  0.1494
13498TIP3    H161985   2.093   3.703   4.987  0.4941  0.4293  0.8418
13498TIP3    H261986   2.210   3.699   5.083  0.0416 -0.9070  1.3512
13499TIP3   OH261987   0.239   6.373   4.728  0.1986  0.4059 -0.5019
13499TIP3    H161988   0.272   6.463   4.729  1.8863 -0.1898  2.2176
13499TIP3    H261989   0.173   6.371   4.797  1.8690 -1.0017  1.1122
13500TIP3   OH261990   2.997   5.391  13.621 -0.3816  0.1236  0.3142
13500TIP3    H161991   2.910   5.408  13.657  0.1945  2.4755  0.6574
13500TIP3    H261992   2.982   5.376  13.527 -1.0098  1.9586  0.1068
13501TIP3   OH261993   6.148   3.327   4.120  0.6642 -0.1838  0.0273
13501TIP3    H161994   6.213   3.335   4.050  1.5756  0.4078  0.9321
13501TIP3    H261995   6.178   3.252   4.172 -0.0392 -0.6534 -0.2239
13502TIP3   OH261996   2.062   3.899   5.264  0.1149 -0.4415 -0.4539
13502TIP3    H161997   2.131   3.886   5.329 -0.0573  1.7609  0.1816
13502TIP3    H261998   2.109   3.904   5.180  0.4698 -1.6196 -0.3419
13503TIP3   OH261999   2.726   6.738   6.357  0.4229 -0.0426 -0.1835
13503TIP3    H162000   2.783   6.813   6.375 -0.2730 -0.0508  2.2224
13503TIP3    H262001   2.666   6.736   6.432 -2.0980 -0.6271 -2.1620
13504TIP3   OH262002   6.668   3.236  12.534 -0.5958 -0.2407  0.4314
13504TIP3    H162003   6.705   3.294  12.600  0.1785 -0.8788  0.5708
13504TIP3    H262004   6.733   3.166  12.524 -0.9624 -0.4497 -0.5933
13505TIP3   OH262005   2.551   6.400  11.394 -0.2360 -0.5850  0.1573
13505TIP3    H162006   2.468   6.431  11.358  0.0101 -2.3226 -1.9776
13505TIP3    H262007   2.586   6.341  11.327  2.5857 -0.1001  1.1450
13506TIP3   OH262008   4.345   5.599  12.396 -0.4576 -0.1624 -0.5317
13506TIP3    H162009   4.389   5.676  12.360  1.2045 -1.5807 -1.6331
13506TIP3    H262010   4.271   5.585  12.337 -0.7829  0.5999 -0.3158
13507TIP3   OH262011   4.619   0.490  14.168  0.1685  0.1766  0.4491
13507TIP3    H162012   4.692   0.442  14.208  1.2193  2.4389  1.3858
13507TIP3    H262013   4.540   0.450  14.205  0.8948 -2.4526 -0.7382
13508TIP3   OH262014   2.526   0.811   4.859 -0.0695 -0.3030 -0.4795
13508TIP3    H162015   2.525   0.725   4.901 -1.1611 -1.1110 -2.1176
13508TIP3    H262016   2.584   0.863   4.914  0.5546 -2.0579  0.5807
13509TIP3   OH262017   2.636   1.757  11.678 -0.7605  0.5513 -0.2014
13509TIP3    H162018   2.559   1.806  11.649 -0.8079  1.2992  1.1496
13509TIP3    H262019   2.602   1.677  11.716 -0.7178 -0.2779 -1.8637
13510TIP3   OH262020   5.099   4.030  11.305 -0.3128  0.7607 -0.7089
13510TIP3    H162021   5.060   3.971  11.370  0.2338 -0.7984 -1.7449
13510TIP3    H262022   5.049   4.013  11.225  0.7974  0.6330 -1.3856
13511TIP3   OH262023   2.882   5.610  13.909  0.3102  0.1719 -0.3744
13511TIP3    H162024   2.868   5.696  13.948  0.1894 -0.2705  0.5714
13511TIP3    H262025   2.954   5.573  13.960  0.0512 -0.4714 -0.4770
13512TIP3   OH262026   6.755   1.898  10.771  0.2131 -0.5829  0.1599
13512TIP3    H162027   6.728   1.807  10.759 -1.1838 -0.2290  0.5862
13512TIP3    H262028   6.694   1.933  10.836  2.4816 -0.1277  2.1426
13513TIP3   OH262029   2.118   1.337   3.810  0.2069 -0.0968  0.2111
13513TIP3    H162030   2.034   1.326   3.766 -0.3773  0.3031  1.2167
13513TIP3    H262031   2.140   1.429   3.799  0.9612 -0.3987 -0.8400
13514TIP3   OH262032   4.184   2.256  12.754  0.2044 -0.5268  0.1053
13514TIP3    H162033   4.261   2.251  12.811 -0.3556 -1.9544  0.7771
13514TIP3    H262034   4.147   2.168  12.756 -0.9066 -0.1084 -0.9807
13515TIP3   OH262035   6.596   2.069   0.545 -0.6519  0.1507 -0.0741
13515TIP3    H162036   6.669   2.059   0.484 -1.2409  0.6488 -0.8596
13515TIP3    H262037   6.546   2.144   0.512 -1.9382 -0.6474  0.0349
13516TIP3   OH262038   3.143   0.990  14.378  0.0830  0.0137  0.1192
13516TIP3    H162039   3.081   0.952  14.440  2.8963 -0.4240  2.7841
13516TIP3    H262040   3.163   1.076  14.414  1.7263 -0.2304 -0.1664
13517TIP3   OH262041   4.229   3.484  11.840  0.7184 -0.1325  0.4056
13517TIP3    H162042   4.319   3.456  11.821  0.6827  0.7454 -1.2032
13517TIP3    H262043   4.183   3.404  11.863  1.6613 -0.7600  0.1463
13518TIP3   OH262044   1.944   3.142   3.233  0.3045  0.1662 -0.2177
13518TIP3    H162045   1.931   3.169   3.324 -0.8609 -0.5171 -0.1695
13518TIP3    H262046   1.882   3.070   3.220  2.8670 -2.0371 -0.5429
13519TIP3   OH262047   6.726   1.563  14.796  0.4392  0.4642  0.3470
13519TIP3    H162048   6.699   1.634  14.738 -0.6777 -1.5958 -1.7148
13519TIP3    H262049   6.820   1.554  14.780  0.4747  1.0826  0.1901
13520TIP3   OH262050   4.161   0.877   0.221  0.3761  0.0859 -0.1374
13520TIP3    H162051   4.216   0.889   0.143  0.8438 -0.8257  0.0366
13520TIP3    H262052   4.161   0.962   0.264  1.1477  0.2658 -0.4779
13521TIP3   OH262053   4.614   4.170  15.472  0.1320 -0.2005 -0.2966
13521TIP3    H162054   4.571   4.212  15.546 -0.4307 -0.5005 -0.4542
13521TIP3    H262055   4.696   4.135  15.508  0.5065  0.8358 -0.1190
13522TIP3   OH262056   4.299   5.741  14.222  0.3031  0.0654 -0.0892
13522TIP3    H162057   4.292   5.662  14.169 -1.2557  0.5701 -0.6415
13522TIP3    H262058   4.215   5.747  14.267  0.9297  0.6528  1.0257
13523TIP3   OH262059   3.101   2.829  12.693 -0.5624  0.6321 -0.0971
13523TIP3    H162060   3.051   2.909  12.711 -1.0644  0.2166  0.3554
13523TIP3    H262061   3.192   2.854  12.710 -0.8346  0.7771  1.2198
13524TIP3   OH262062   3.820   1.299   1.056 -0.5010  0.2918  0.0451
13524TIP3    H162063   3.726   1.280   1.055 -0.7836  1.5757  1.1719
13524TIP3    H262064   3.853   1.253   1.133  0.0629 -1.2918 -1.1099
13525TIP3   OH262065   4.949   1.183  16.586 -0.2784  0.4156  0.0132
13525TIP3    H162066   4.883   1.231  16.636  0.1546  0.9056  0.1125
13525TIP3    H262067   4.999   1.250  16.540  1.6147  0.2380  1.7137
13526TIP3   OH262068   1.855   1.393   1.726  0.3440  0.1187  0.0251
13526TIP3    H162069   1.912   1.470   1.725 -2.3886  2.2525 -1.6438
13526TIP3    H262070   1.854   1.363   1.636 -2.0182  0.8401 -0.2243
13527TIP3   OH262071   2.929   4.037   1.978 -0.8955  0.1536  0.5213
13527TIP3    H162072   3.009   4.012   2.024 -1.3967  0.4101  1.5545
13527TIP3    H262073   2.894   3.954   1.945  0.4450  0.1853 -1.0312
13528TIP3   OH262074   3.658   0.086   1.039 -0.0423  0.2384  0.5277
13528TIP3    H162075   3.642   0.026   1.112 -0.3735 -0.9032 -0.4858
13528TIP3    H262076   3.572   0.121   1.017  0.0557  0.5665  0.6508
13529TIP3   OH262077   3.284   6.179  13.461  0.1934 -0.0755 -0.0970
13529TIP3    H162078   3.378   6.199  13.455  0.5273 -1.6366 -0.2075
13529TIP3    H262079   3.279   6.085  13.446 -1.6654  0.4397 -2.9477
13530TIP3   OH262080   1.795   0.672   4.683 -0.0454 -0.2409  0.4351
13530TIP3    H162081   1.781   0.718   4.600  0.8664  1.1109  0.9937
13530TIP3    H262082   1.810   0.743   4.746 -2.1340 -1.1957  2.0484
13531TIP3   OH262083   0.157   6.748  12.543  0.1815 -0.2008  0.5263
13531TIP3    H162084   0.144   6.661  12.579  1.4022 -1.1336 -1.2272
13531TIP3    H262085   0.196   6.733  12.457  0.0642  2.0606  0.0509
13532TIP3   OH262086   6.169   4.334  12.776  0.7715 -0.3227 -0.3877
13532TIP3    H162087   6.085   4.323  12.820  1.4810 -3.8148  0.2770
13532TIP3    H262088   6.147   4.366  12.689 -1.0435  1.3383  0.6566
13533TIP3   OH262089   3.576   0.605   3.413  0.1634  0.1151 -0.1056
13533TIP3    H162090   3.580   0.691   3.455 -0.5650 -0.1126  0.4596
13533TIP3    H262091   3.666   0.586   3.389  0.2605  1.2664 -0.7118
13534TIP3   OH262092   0.069   5.250   3.279  0.0171  0.3943  0.2389
13534TIP3    H162093  -0.003   5.313   3.267  1.5901  1.8796 -1.8188
13534TIP3    H262094   0.067   5.196   3.201  0.5068 -0.2440  0.6644
13535TIP3   OH262095   5.398   4.898   5.039  0.1753 -0.6316 -0.7030
13535TIP3    H162096   5.478   4.852   5.013  1.3746  0.8585  0.2869
13535TIP3    H262097   5.423   4.990   5.038 -1.1251 -0.2490  1.0288
13536TIP3   OH262098   5.706   5.248  15.596 -0.1807  0.0725  0.1309
13536TIP3    H162099   5.736   5.158  15.578  0.1470 -0.1955  1.9666
13536TIP3    H262100   5.612   5.239  15.611  0.0949 -0.1834  1.7398
13537TIP3   OH262101   1.884   0.827  15.993 -0.2200 -0.7088  0.0235
13537TIP3    H162102   1.815   0.868  15.941 -1.1172  0.3786  1.9973
13537TIP3    H262103   1.845   0.745  16.024 -0.2795 -0.5824  0.2917
13538TIP3   OH262104   2.543   6.650   0.925  0.0173 -0.0879 -0.6983
13538TIP3    H162105   2.603   6.694   0.984  0.7612 -1.2193 -0.5956
13538TIP3    H262106   2.534   6.709   0.850  1.5775 -0.0879 -0.8970
13539TIP3   OH262107   5.086   3.475  11.731 -0.0896  0.4815  0.1117
13539TIP3    H162108   5.122   3.472  11.642  0.8920  1.3607  0.4692
13539TIP3    H262109   5.159   3.505  11.785 -0.8967  0.6693  1.1068
13540TIP3   OH262110   1.492   5.107   2.750  0.2545  0.0804  0.6341
13540TIP3    H162111   1.538   5.162   2.686  1.4820 -3.5237 -1.7746
13540TIP3    H262112   1.405   5.093   2.712 -0.3053  0.9104  1.5872
13541TIP3   OH262113   3.173   5.181   4.108 -0.3721  0.2787 -0.0974
13541TIP3    H162114   3.197   5.088   4.103 -0.2558  0.2627  0.6214
13541TIP3    H262115   3.248   5.228   4.072 -0.4690  0.0886 -0.5499
13542TIP3   OH262116   5.586   5.828   2.973 -0.3692  0.5244 -0.0378
13542TIP3    H162117   5.584   5.794   3.063 -0.4441 -0.5906 -0.4583
13542TIP3    H262118   5.556   5.755   2.919 -1.2936  1.5101 -0.8799
13543TIP3   OH262119   2.440   2.987   4.505  0.3557  0.4997 -0.7031
13543TIP3    H162120   2.529   3.023   4.501  1.0507 -1.0329  0.4835
13543TIP3    H262121   2.401   3.027   4.583 -0.3035  1.8400 -1.7137
13544TIP3   OH262122   4.173   0.356   3.466 -0.0119 -0.4008  0.8510
13544TIP3    H162123   4.154   0.416   3.538 -0.3342  0.7643 -0.2065
13544TIP3    H262124   4.090   0.309   3.451 -1.0852  2.0450 -1.2677
13545TIP3   OH262125   3.306   3.498  13.194  0.2076 -0.1284 -0.4806
13545TIP3    H162126   3.340   3.422  13.240 -2.8027 -1.4606 -0.3821
13545TIP3    H262127   3.222   3.516  13.235 -0.0360  2.0646 -1.8216
13546TIP3   OH262128   1.954   0.266  14.763  0.4491 -0.1448  0.6096
13546TIP3    H162129   1.948   0.174  14.740  0.1533 -0.3474  1.4994
13546TIP3    H262130   1.964   0.311  14.679 -0.1367 -0.9221  0.1165
13547TIP3   OH262131   1.356   5.969   2.201  0.3296 -0.7724  0.5123
13547TIP3    H162132   1.353   6.041   2.137 -0.0831 -0.9912  0.2787
13547TIP3    H262133   1.414   5.904   2.162  1.1791 -0.3085  1.0000
13548TIP3   OH262134   0.822   1.831   1.071  0.1586  0.6304  0.3685
13548TIP3    H162135   0.758   1.899   1.092  0.0821  0.5218  0.4824
13548TIP3    H262136   0.892   1.842   1.136  0.6652  1.2992 -0.2754
13549TIP3   OH262137   1.047   0.911  14.994  0.3106  0.7284 -0.2572
13549TIP3    H162138   1.016   0.821  14.985 -2.3164  1.6008 -0.2903
13549TIP3    H262139   1.123   0.916  14.936 -0.3343 -1.0944 -1.2907
13550TIP3   OH262140   6.632   2.641  14.838 -0.2976 -0.0230 -0.1881
13550TIP3    H162141   6.611   2.568  14.779 -1.5118 -0.7897  1.1614
13550TIP3    H262142   6.725   2.631  14.856  0.4032  0.9780 -2.9730
13551TIP3   OH262143   0.792   4.087  13.095 -0.0859  0.1185 -0.3141
13551TIP3    H162144   0.869   4.140  13.075 -0.9643  1.3497 -0.5124
13551TIP3    H262145   0.719   4.149  13.095 -0.9948 -0.9211  0.5027
13552TIP3   OH262146   0.287   0.665   0.311 -0.4475  0.1477 -0.1040
13552TIP3    H162147   0.367   0.629   0.272  0.1753  0.9773  0.3861
13552TIP3    H262148   0.248   0.717   0.241 -0.2308  0.2470 -0.1522
13553TIP3   OH262149   0.208   5.946  15.272 -0.2820  0.0306  0.2367
13553TIP3    H162150   0.176   5.923  15.185 -0.8466 -0.0475  0.4638
13553TIP3    H262151   0.223   6.041  15.267  0.0656 -0.0394 -0.0672
13554TIP3   OH262152   4.450   5.134  11.884  0.1212 -0.1952 -0.7272
13554TIP3    H162153   4.544   5.152  11.872  0.1556 -0.5770 -1.0387
13554TIP3    H262154   4.416   5.128  11.795  0.0210 -1.2301 -0.6254
13555TIP3   OH262155   5.044   0.743   3.066  0.6301 -0.0526 -0.1761
13555TIP3    H162156   5.036   0.814   3.129 -1.6078 -0.7517  0.3611
13555TIP3    H262157   5.061   0.665   3.120  1.7966 -0.1534 -0.6705
13556TIP3   OH262158   5.175   0.096  13.766 -0.0556 -0.2726 -0.0621
13556TIP3    H162159   5.234   0.131  13.832  1.8998 -2.0218 -0.7893
13556TIP3    H262160   5.174   0.002  13.783 -2.5506 -0.2996 -0.1803
13557TIP3   OH262161   0.262   5.781  16.001  0.0603  0.4405  0.5771
13557TIP3    H162162   0.355   5.803  16.011  0.9777 -2.7651 -0.4258
13557TIP3    H262163   0.248   5.779  15.907 -0.5593 -0.8992  0.6875
13558TIP3   OH262164   3.772   2.384  10.444 -0.0603  0.1155 -0.4799
13558TIP3    H162165   3.863   2.367  10.419  0.6671  3.1518 -0.0885
13558TIP3    H262166   3.750   2.466  10.401 -2.1595  0.1777  0.6334
13559TIP3   OH262167   2.898   2.010   5.216 -0.4342  0.1342  0.2650
13559TIP3    H162168   2.895   2.053   5.302  2.6599 -0.2018  0.5835
13559TIP3    H262169   2.922   1.919   5.235 -1.0645 -0.2830 -0.8762
13560TIP3   OH262170   0.531   3.904   5.450 -0.9772 -0.2822 -0.1301
13560TIP3    H162171   0.475   3.937   5.380 -2.2558 -1.6123  0.2312
13560TIP3    H262172   0.569   3.823   5.415 -0.8806 -0.4542  0.3543
13561TIP3   OH262173   5.300   1.858  11.900 -0.0957  0.3600  0.4707
13561TIP3    H162174   5.357   1.834  11.974  2.1291 -1.5884 -1.7907
13561TIP3    H262175   5.305   1.953  11.895  2.4599  0.2747  0.7455
13562TIP3   OH262176   5.007   2.876   3.697  0.9289 -0.4850 -0.2060
13562TIP3    H162177   5.062   2.900   3.771  1.0516 -0.3446 -0.3417
13562TIP3    H262178   5.017   2.781   3.689  2.7963 -0.2019 -1.5255
13563TIP3   OH262179   4.876   5.439  11.530 -0.4487  0.1385  0.0206
13563TIP3    H162180   4.931   5.399  11.463 -1.0910  0.9339 -0.9933
13563TIP3    H262181   4.937   5.485  11.588  0.3808 -2.8966  1.6572
13564TIP3   OH262182   1.697   5.952   1.263 -0.0301 -0.1297 -0.1771
13564TIP3    H162183   1.727   5.998   1.184 -1.8897  0.1401 -0.7359
13564TIP3    H262184   1.649   6.018   1.313 -0.9254 -0.9303  0.0277
13565TIP3   OH262185   1.631   2.575   1.925 -0.1291 -0.8140 -0.2137
13565TIP3    H162186   1.691   2.517   1.972 -1.2037 -0.9074  1.0674
13565TIP3    H262187   1.560   2.517   1.897 -0.1110 -0.5228 -0.8816
13566TIP3   OH262188   6.195   6.045   1.080  0.8153  0.4297  0.0874
13566TIP3    H162189   6.218   6.046   1.173  0.8083 -0.6438  0.0994
13566TIP3    H262190   6.198   5.953   1.055 -2.9537  0.2656 -0.0262
13567TIP3   OH262191   4.078   0.760   0.885 -0.3807  0.4015  0.0612
13567TIP3    H162192   4.049   0.812   0.960 -0.5989  0.1915  0.1227
13567TIP3    H262193   3.997   0.737   0.840 -0.1482  2.0281 -1.2259
13568TIP3   OH262194   2.802   1.142  14.546 -0.0358 -0.1122 -0.9192
13568TIP3    H162195   2.862   1.174  14.479  0.6644 -1.6793 -1.0504
13568TIP3    H262196   2.717   1.179  14.520  0.4541  0.3137 -1.9725
13569TIP3   OH262197   5.227   6.149  16.587 -0.0832  0.0874  0.2257
13569TIP3    H162198   5.175   6.088  16.638 -0.2937  1.2144  1.3917
13569TIP3    H262199   5.318   6.129  16.611 -0.0004 -1.2488 -1.1000
13570TIP3   OH262200   1.529   2.272   2.441  0.2015 -0.3721  0.8428
13570TIP3    H162201   1.505   2.183   2.466  1.8007 -0.9077  0.5509
13570TIP3    H262202   1.456   2.303   2.387 -0.0989 -1.7097  0.4827
13571TIP3   OH262203   2.765   1.096   1.516 -0.8557  0.3019 -0.5266
13571TIP3    H162204   2.817   1.157   1.463  0.5220 -0.1739  0.2342
13571TIP3    H262205   2.769   1.132   1.604  1.2952 -1.6714  0.2488
13572TIP3   OH262206   2.872   1.892  14.310  0.5022 -0.4918  0.2639
13572TIP3    H162207   2.904   1.814  14.264  0.3529 -0.3671 -0.0600
13572TIP3    H262208   2.788   1.864  14.348  0.4289 -0.4793  0.1139
13573TIP3   OH262209   2.422   0.800  12.407 -0.5729 -0.2675  0.1064
13573TIP3    H162210   2.434   0.889  12.439 -1.0117  0.0204 -0.5217
13573TIP3    H262211   2.473   0.745  12.467  2.3090  0.7279 -1.3148
13574TIP3   OH262212   1.318   2.997   5.058  0.6204 -0.3281  0.2261
13574TIP3    H162213   1.242   2.990   5.115  0.9291 -2.0700  0.4495
13574TIP3    H262214   1.387   3.032   5.115  0.3167  0.1137  0.3270
13575TIP3   OH262215   0.361   0.082  10.413 -0.4270 -0.3451 -0.0239
13575TIP3    H162216   0.429   0.099  10.348  0.4198 -0.3213  0.8626
13575TIP3    H262217   0.408   0.071  10.495 -1.6146  1.4637  0.9314
13576TIP3   OH262218   3.800   2.606  14.564  0.0479  0.8507  0.6298
13576TIP3    H162219   3.731   2.593  14.499  0.9368  1.6070 -0.4735
13576TIP3    H262220   3.814   2.700  14.567  2.0772  0.5972 -0.2578
13577TIP3   OH262221   2.003   5.356  15.423  0.0885  0.1301  0.1170
13577TIP3    H162222   2.087   5.396  15.402  0.1637  0.2726  0.6604
13577TIP3    H262223   1.939   5.426  15.411 -0.1021 -0.2955 -1.4238
13578TIP3   OH262224   0.703   2.701   3.051  0.1994 -0.1138 -0.1980
13578TIP3    H162225   0.614   2.679   3.024  0.2093 -0.2225 -0.1397
13578TIP3    H262226   0.710   2.670   3.141  1.0969 -2.3160 -1.0013
13579TIP3   OH262227   2.765   0.421   0.034  0.0594  0.2534  0.3276
13579TIP3    H162228   2.836   0.447  -0.025 -1.1503  1.3924 -0.6420
13579TIP3    H262229   2.687   0.421  -0.021 -1.0068  0.8380  1.8073
13580TIP3   OH262230   3.347   1.667   0.556  0.1544 -0.2386  0.9397
13580TIP3    H162231   3.374   1.722   0.630  0.2323 -2.4375  2.5892
13580TIP3    H262232   3.273   1.617   0.589 -0.0438 -0.9855 -0.6033
13581TIP3   OH262233   0.398   6.539  12.993 -0.1204  0.4833  0.2297
13581TIP3    H162234   0.424   6.539  12.901 -1.3669  0.6172 -0.1250
13581TIP3    H262235   0.385   6.632  13.014  1.1818  0.5472  0.8487
13582TIP3   OH262236   5.058   1.852  10.422  0.2583 -0.1490  0.5469
13582TIP3    H162237   5.013   1.845  10.338 -1.4269  0.4577  1.3911
13582TIP3    H262238   5.125   1.783  10.418 -0.0024 -0.3422 -1.1558
13583TIP3   OH262239   4.340   1.190   3.915 -0.4291 -0.3787 -0.3625
13583TIP3    H162240   4.306   1.200   4.004 -1.0176  2.4251 -0.8690
13583TIP3    H262241   4.434   1.207   3.923 -0.2020 -1.6996 -0.0452
13584TIP3   OH262242   5.365   1.300  13.467 -0.0281  0.1652 -0.3039
13584TIP3    H162243   5.389   1.257  13.549 -0.0784  1.0642  0.1849
13584TIP3    H262244   5.418   1.380  13.465  0.8081 -0.4051 -1.6958
13585TIP3   OH262245   6.512   5.593  14.825  0.4796  0.3390 -0.6325
13585TIP3    H162246   6.452   5.656  14.785 -0.2472  0.5648  0.8050
13585TIP3    H262247   6.473   5.508  14.807 -2.0764  0.5986  3.0742
13586TIP3   OH262248   4.030   1.057   4.107  0.0695  0.6488  0.8589
13586TIP3    H162249   4.041   0.995   4.180  1.2960 -2.6047 -1.9372
13586TIP3    H262250   3.971   1.012   4.047  0.4986  2.4885 -0.9759
13587TIP3   OH262251   6.483   6.527  12.678 -0.4049  0.0948  0.0927
13587TIP3    H162252   6.524   6.441  12.685 -1.0664 -0.2797 -0.5044
13587TIP3    H262253   6.540   6.576  12.619  0.8431  0.6037  1.6996
13588TIP3   OH262254   1.138   3.752   3.121  0.7566  0.0295 -0.3167
13588TIP3    H162255   1.128   3.841   3.154  0.9317 -0.3379  0.7651
13588TIP3    H262256   1.232   3.734   3.127  0.8426  0.0814 -1.3803
13589TIP3   OH262257   0.226   6.479  14.465  0.4282  0.1081 -0.2814
13589TIP3    H162258   0.247   6.438  14.549 -1.5124  0.0880  0.2120
13589TIP3    H262259   0.266   6.422  14.400  1.2566 -0.3193  0.5892
13590TIP3   OH262260   0.252   6.187  12.005 -0.7412  0.1740 -0.9416
13590TIP3    H162261   0.261   6.216  12.096 -0.5255  1.7382 -1.4491
13590TIP3    H262262   0.335   6.210  11.963 -0.6776 -0.9245 -1.4360
13591TIP3   OH262263   5.006   0.166  14.518 -0.2262 -0.0336 -0.5526
13591TIP3    H162264   4.981   0.166  14.426 -0.6008  1.6414 -0.4651
13591TIP3    H262265   5.053   0.248  14.530 -0.9529  0.1801  0.9482
13592TIP3   OH262266   1.941   2.919   1.768 -0.3126  0.0334 -0.0796
13592TIP3    H162267   1.917   2.950   1.680  0.9116 -0.0731 -0.4552
13592TIP3    H262268   1.857   2.902   1.810 -0.9352  0.9639 -0.9115
13593TIP3   OH262269   5.263   6.188   2.137  0.8185  0.9880 -0.1953
13593TIP3    H162270   5.243   6.250   2.208  2.3348  1.2666 -0.0040
13593TIP3    H262271   5.178   6.170   2.098 -0.0357  0.9234  1.6167
13594TIP3   OH262272   2.238   3.059  12.141  0.2446  0.2565 -0.1631
13594TIP3    H162273   2.326   3.090  12.119  0.2742 -1.0125 -1.9218
13594TIP3    H262274   2.182   3.101  12.076 -0.0752 -1.1305 -0.7963
13595TIP3   OH262275   5.869   6.418  12.591 -0.4424  0.3165 -0.1059
13595TIP3    H162276   5.912   6.337  12.563 -1.1833 -0.0414 -0.2124
13595TIP3    H262277   5.923   6.488  12.554  1.8318 -0.0745  2.3465
13596TIP3   OH262278   0.495   6.505  12.710 -0.4941  0.2024 -0.2436
13596TIP3    H162279   0.558   6.484  12.780  0.3956  3.1666 -0.0912
13596TIP3    H262280   0.538   6.475  12.630  0.2240  0.3820  0.0702
13597TIP3   OH262281   2.554   4.553   2.286  0.0563 -0.0913 -0.1094
13597TIP3    H162282   2.476   4.500   2.267 -1.4194  1.3877  1.5640
13597TIP3    H262283   2.548   4.627   2.225  0.7518 -0.5191 -0.7094
13598TIP3   OH262284   0.772   5.532  12.218 -0.2957 -0.0714 -0.3690
13598TIP3    H162285   0.733   5.548  12.303 -0.8776  0.9471 -0.8195
13598TIP3    H262286   0.828   5.455  12.231  2.5118  2.2394  1.8477
13599TIP3   OH262287   5.568   1.387   6.221  0.3395  0.2027  0.1544
13599TIP3    H162288   5.507   1.460   6.213  0.3732 -0.1975 -5.9136
13599TIP3    H262289   5.512   1.311   6.236 -0.2764  0.5637 -0.2645
13600TIP3   OH262290   0.317   5.316  13.987 -0.0708  0.2769 -0.1032
13600TIP3    H162291   0.399   5.365  13.988  0.9624 -1.4420  1.9813
13600TIP3    H262292   0.257   5.369  14.039 -0.0665  1.1093 -0.9224
13601TIP3   OH262293   1.709   5.569   4.026 -0.0064  0.7886  0.7915
13601TIP3    H162294   1.753   5.654   4.032  0.8550  0.5317 -1.3913
13601TIP3    H262295   1.720   5.543   3.935  1.6003 -2.6350  1.8690
13602TIP3   OH262296   0.618   6.463   5.038 -0.0294 -0.0117  0.3381
13602TIP3    H162297   0.535   6.442   4.996  0.1302  0.0993 -0.0381
13602TIP3    H262298   0.682   6.458   4.967  0.3196 -0.3388  0.6779
13603TIP3   OH262299   5.058   3.851   3.184  0.0567  0.7282  0.3409
13603TIP3    H162300   5.042   3.814   3.270  0.7047 -2.7546 -0.9556
13603TIP3    H262301   5.153   3.861   3.179  0.2841 -1.6183 -0.8846
13604TIP3   OH262302   5.531   2.741   2.774 -0.5437  0.3230 -0.0242
13604TIP3    H162303   5.454   2.789   2.802 -1.4483  0.1125 -2.1056
13604TIP3    H262304   5.505   2.649   2.777  0.3777  0.0947  1.4980
13605TIP3   OH262305   4.515   5.382   5.257  0.3217  0.1360  0.0945
13605TIP3    H162306   4.466   5.406   5.336 -0.6867 -0.4886 -0.3367
13605TIP3    H262307   4.512   5.461   5.203  1.1926  0.6372  0.7570
13606TIP3   OH262308   2.582   3.549   6.365  0.4083 -0.2630  0.7238
13606TIP3    H162309   2.673   3.576   6.355 -0.0634  1.4375  0.8785
13606TIP3    H262310   2.560   3.573   6.455  0.0162 -1.3227  0.9159
13607TIP3   OH262311   1.429   3.031  10.527 -0.1049 -0.0422  0.1004
13607TIP3    H162312   1.514   2.989  10.539  0.7545  1.8840  0.9965
13607TIP3    H262313   1.426   3.053  10.434  0.5049  0.1164  0.1147
13608TIP3   OH262314   2.801   5.015  12.653 -0.6548  0.2243  0.1439
13608TIP3    H162315   2.721   5.020  12.706  0.8313  1.6824  2.3151
13608TIP3    H262316   2.872   5.019  12.716  1.1758  0.7190 -1.8829
13609TIP3   OH262317   0.979   1.382   3.520  0.0801  0.6955 -0.0565
13609TIP3    H162318   0.990   1.474   3.545  2.0173 -0.0475  2.0314
13609TIP3    H262319   0.968   1.336   3.604 -2.6878 -0.7771 -1.1720
13610TIP3   OH262320   2.108   4.962  13.138 -0.4782  0.3223 -0.0091
13610TIP3    H162321   2.026   4.988  13.181  0.5636  1.3578  1.4001
13610TIP3    H262322   2.128   5.034  13.078 -0.8875 -0.1874 -0.7580
13611TIP3   OH262323   5.580   5.674   3.927  0.7784  0.0907 -0.2052
13611TIP3    H162324   5.578   5.600   3.866  1.2832  0.5672 -0.7978
13611TIP3    H262325   5.574   5.751   3.872 -1.5313  0.4741  0.5216
13612TIP3   OH262326   0.391   6.012  14.998  0.5519 -0.3295  0.4822
13612TIP3    H162327   0.468   5.978  14.952  2.5835  1.1918  2.6681
13612TIP3    H262328   0.388   6.105  14.974 -0.8568 -0.4589  0.1166
13613TIP3   OH262329   0.517   1.874   6.037 -0.5086  0.2669 -0.0230
13613TIP3    H162330   0.475   1.807   6.091 -0.0469  2.3265  2.9927
13613TIP3    H262331   0.610   1.866   6.057 -0.2834  0.7810 -0.8286
13614TIP3   OH262332   1.068   4.162   5.868 -0.2656 -0.7355  0.1145
13614TIP3    H162333   0.974   4.173   5.854 -0.3809  0.0634  1.4244
13614TIP3    H262334   1.092   4.088   5.814 -1.6941 -1.0532 -0.0969
13615TIP3   OH262335   2.967   6.487   4.259  0.2901 -0.1935 -0.0511
13615TIP3    H162336   2.906   6.426   4.218 -1.3270  1.3827 -0.0718
13615TIP3    H262337   3.051   6.443   4.256 -1.0632 -3.0134  1.1598
13616TIP3   OH262338   4.417   1.947   0.695 -0.1978  0.0006 -0.2085
13616TIP3    H162339   4.450   1.997   0.621 -0.1084  0.0585 -0.1295
13616TIP3    H262340   4.330   1.917   0.667  0.2743 -0.8915 -0.7607
13617TIP3   OH262341   4.084   4.794  16.911  0.1273 -0.0348 -0.3018
13617TIP3    H162342   4.033   4.815  16.989 -1.7427 -3.3451 -0.5148
13617TIP3    H262343   4.091   4.877  16.863  1.2435  2.0414  3.2702
13618TIP3   OH262344   2.751   3.292   4.265  0.5787 -0.0301 -0.3711
13618TIP3    H162345   2.832   3.330   4.299 -1.2426  3.6281  0.1674
13618TIP3    H262346   2.746   3.324   4.175 -1.2192  1.4969  0.2381
13619TIP3   OH262347   2.608   1.921  12.536  0.0211 -0.6059  0.3451
13619TIP3    H162348   2.677   1.937  12.601 -2.5540  0.3763  2.9291
13619TIP3    H262349   2.604   2.002  12.485 -0.4956  0.0785  1.4511
13620TIP3   OH262350   2.829   2.558  12.542 -0.3224  0.4725  0.2194
13620TIP3    H162351   2.844   2.503  12.465  1.0950 -0.6424  1.2545
13620TIP3    H262352   2.748   2.525  12.579  0.5418 -0.9821  0.8588
13621TIP3   OH262353   1.358   3.554   3.721  0.0568 -0.9418  0.2288
13621TIP3    H162354   1.371   3.609   3.643  1.1163 -2.3916 -0.6462
13621TIP3    H262355   1.311   3.478   3.689 -1.1117 -0.7099  1.3779
13622TIP3   OH262356   3.565   3.312   4.639 -0.4506 -0.6045 -0.0340
13622TIP3    H162357   3.634   3.345   4.581 -0.1663 -2.0696 -0.5585
13622TIP3    H262358   3.610   3.256   4.701 -0.6756  1.4198  2.0277
13623TIP3   OH262359   4.571   4.366  10.290 -0.1184 -0.8247 -0.8736
13623TIP3    H162360   4.573   4.449  10.243  0.3924  0.0836  0.6905
13623TIP3    H262361   4.535   4.389  10.376  0.3523 -2.1680 -0.3068
13624TIP3   OH262362   4.549   3.652   3.692  0.1209  0.1260  0.0627
13624TIP3    H162363   4.611   3.675   3.623 -0.0067 -0.3116 -0.2045
13624TIP3    H262364   4.464   3.652   3.649 -0.1479  1.3578  0.5794
13625TIP3   OH262365   5.609   1.886   0.715 -0.1214  0.0698  0.0365
13625TIP3    H162366   5.585   1.926   0.799 -2.0793  2.2429 -1.4796
13625TIP3    H262367   5.646   1.801   0.739 -1.5020  0.2334  3.0433
13626TIP3   OH262368   2.966   2.741   2.297  0.4046 -0.5591  0.5109
13626TIP3    H162369   3.049   2.730   2.342  0.2805  0.5978  1.0305
13626TIP3    H262370   2.899   2.730   2.365  0.1669 -0.3338  0.3182
13627TIP3   OH262371   5.482   0.198   1.620  0.5617  0.2472  0.2512
13627TIP3    H162372   5.522   0.269   1.670 -0.6417  0.2909  1.1726
13627TIP3    H262373   5.522   0.119   1.656  0.0068  0.3058  1.0139
13628TIP3   OH262374   4.282   1.025   0.637  0.4040  0.0557 -0.2979
13628TIP3    H162375   4.370   1.055   0.660  0.4577 -0.0619 -0.3518
13628TIP3    H262376   4.230   1.040   0.716  0.6836 -0.7370  0.0414
13629TIP3   OH262377   4.250   5.846   3.317  0.2826 -0.5353 -0.5026
13629TIP3    H162378   4.188   5.918   3.331 -0.7587 -1.6728  0.8016
13629TIP3    H262379   4.203   5.785   3.261  0.8546 -0.6108 -0.9023
13630TIP3   OH262380   2.783   5.280   2.864 -0.0489  0.1477  0.0417
13630TIP3    H162381   2.766   5.366   2.826 -0.2846 -0.1188 -0.4574
13630TIP3    H262382   2.766   5.291   2.958  2.4843  1.3390  0.4017
13631TIP3   OH262383   0.115   0.260   1.247 -0.0778  0.6295 -0.7995
13631TIP3    H162384   0.132   0.222   1.333 -3.8222 -2.8201 -1.3982
13631TIP3    H262385   0.172   0.211   1.188  1.5617  2.1122 -0.4547
13632TIP3   OH262386   6.804   5.012   5.719  0.1849  0.2471  0.0646
13632TIP3    H162387   6.751   5.054   5.651  1.9792  2.5099 -0.0205
13632TIP3    H262388   6.743   4.997   5.791 -0.7912  2.0267 -0.3456
13633TIP3   OH262389   5.217   5.157  13.032 -0.0507 -0.6065  0.1279
13633TIP3    H162390   5.181   5.219  13.096  0.0776 -1.2538  0.8378
13633TIP3    H262391   5.175   5.074  13.053 -0.0110 -0.8252 -0.6466
13634TIP3   OH262392   5.424   1.321   1.596 -0.0979 -0.1268 -0.4653
13634TIP3    H162393   5.436   1.227   1.587  0.4108 -0.0789 -0.2794
13634TIP3    H262394   5.498   1.350   1.649 -1.1898  0.1122  0.9832
13635TIP3   OH262395   3.640   0.175  12.532 -0.4477  0.5273  0.1218
13635TIP3    H162396   3.583   0.115  12.581  2.0688  0.6320  3.3623
13635TIP3    H262397   3.726   0.132  12.534  0.6019  2.5524 -0.6874
13636TIP3   OH262398   0.801   0.715  13.991  0.3396 -0.1973 -0.1031
13636TIP3    H162399   0.763   0.719  13.904  0.9411  1.1311 -0.3199
13636TIP3    H262400   0.846   0.630  13.995 -1.0392 -0.9564 -0.4997
13637TIP3   OH262401   0.578   3.697  15.507 -0.1709 -0.3736  0.3850
13637TIP3    H162402   0.600   3.775  15.557 -2.0690  1.8863 -2.1703
13637TIP3    H262403   0.483   3.689  15.514 -0.3099 -0.8704 -1.5907
13638TIP3   OH262404   0.694   1.279   0.468 -0.4214 -0.0529  0.0486
13638TIP3    H162405   0.603   1.289   0.443 -0.3851  1.1483  0.3574
13638TIP3    H262406   0.698   1.312   0.558  0.0144 -1.5900  0.6170
13639TIP3   OH262407   4.686   5.594  14.828 -0.0489  0.4232 -0.8191
13639TIP3    H162408   4.748   5.621  14.760  0.0052  0.1787 -0.8651
13639TIP3    H262409   4.603   5.585  14.781  0.2461 -0.9466 -1.0893
13640TIP3   OH262410   0.135   2.836  12.311 -0.0374  0.0862  0.0828
13640TIP3    H162411   0.208   2.817  12.370  0.0138 -0.9844 -0.3174
13640TIP3    H262412   0.087   2.754  12.304 -2.7916  1.4054  2.3587
13641TIP3   OH262413   2.563   1.353  12.396  0.1294 -0.9519 -0.5870
13641TIP3    H162414   2.553   1.446  12.418 -2.0451 -1.1251 -0.7871
13641TIP3    H262415   2.657   1.336  12.406  0.5137  1.2123 -0.3458
13642TIP3   OH262416   5.358   0.610   3.913 -0.6400  0.2597  0.0761
13642TIP3    H162417   5.392   0.601   4.002 -0.6683 -1.8036 -0.1129
13642TIP3    H262418   5.263   0.614   3.923 -0.6384  0.1245  0.1344
13643TIP3   OH262419   4.609   4.692   5.930 -0.1254  0.5130 -0.0193
13643TIP3    H162420   4.517   4.666   5.933  0.4537 -1.6376 -0.4362
13643TIP3    H262421   4.650   4.631   5.869  1.9467  0.3091  1.5238
13644TIP3   OH262422   3.428   6.758  12.853  0.7225  0.1781 -0.1246
13644TIP3    H162423   3.428   6.828  12.787 -0.0986  1.7218  1.4693
13644TIP3    H262424   3.337   6.729  12.856  1.1765 -1.4102 -1.2163
13645TIP3   OH262425   1.846   5.474   0.966 -0.5411 -0.1298  0.1981
13645TIP3    H162426   1.786   5.399   0.961 -0.3675 -0.1728 -1.7740
13645TIP3    H262427   1.859   5.500   0.874  1.3751  0.7484  0.6935
13646TIP3   OH262428   1.982   2.410  16.875 -0.0928 -0.2115 -0.2229
13646TIP3    H162429   1.920   2.367  16.933  0.2941  0.2110  0.5135
13646TIP3    H262430   1.964   2.373  16.788 -1.1173 -0.3572  0.0469
13647TIP3   OH262431   6.029   1.725   4.719 -0.2774  0.2761 -0.3663
13647TIP3    H162432   6.125   1.714   4.721 -0.1372  1.4289 -0.5527
13647TIP3    H262433   5.996   1.635   4.716  0.8233 -0.1335 -0.9932
13648TIP3   OH262434   4.144   5.306   1.621 -0.2918  0.4314  0.1545
13648TIP3    H162435   4.192   5.318   1.702  0.7872 -4.0834  0.2850
13648TIP3    H262436   4.052   5.316   1.646  0.0130 -1.0998  2.0197
13649TIP3   OH262437   6.665   2.910  14.113 -0.7090  0.1356 -0.0865
13649TIP3    H162438   6.685   2.832  14.062 -0.5978 -1.1245  1.8278
13649TIP3    H262439   6.747   2.934  14.156 -0.9137  0.8824 -0.0894
13650TIP3   OH262440   6.632   2.135  12.194  0.1292  0.0705  0.1842
13650TIP3    H162441   6.656   2.214  12.243  1.1709 -0.4968  0.6094
13650TIP3    H262442   6.636   2.162  12.102  0.6099  0.4768  0.3240
13651TIP3   OH262443   2.797   0.142  15.228 -0.3374  0.0145 -0.0211
13651TIP3    H162444   2.872   0.161  15.283  0.2444 -0.1920 -0.7371
13651TIP3    H262445   2.740   0.088  15.283 -1.6050  3.0238  1.7553
13652TIP3   OH262446   5.207   6.316  14.118  0.0816 -0.3870 -0.1937
13652TIP3    H162447   5.224   6.347  14.207 -0.5019 -0.8518  0.0884
13652TIP3    H262448   5.115   6.289  14.120 -0.2079  0.5241 -1.2063
13653TIP3   OH262449   6.220   2.698  11.771 -0.2770  0.4223 -0.5244
13653TIP3    H162450   6.165   2.661  11.840  0.2051 -1.3412 -1.0543
13653TIP3    H262451   6.305   2.711  11.813  0.3510 -1.7475 -1.0544
13654TIP3   OH262452   1.169   2.483  11.108  0.0225 -0.0672  0.2658
13654TIP3    H162453   1.109   2.544  11.065 -2.4515 -0.6731  2.7056
13654TIP3    H262454   1.257   2.515  11.086 -1.1272  0.6027 -3.7394
13655TIP3   OH262455   1.726   4.973   6.367 -0.3833 -0.0186  0.7102
13655TIP3    H162456   1.647   5.024   6.386 -0.6378  0.0362 -0.4362
13655TIP3    H262457   1.785   4.993   6.439 -1.0776  0.6600  1.1049
13656TIP3   OH262458   0.121   0.731   0.764  0.0524 -0.2080  0.4038
13656TIP3    H162459   0.108   0.688   0.679  0.6744 -0.5634  0.4880
13656TIP3    H262460   0.056   0.690   0.821 -0.6663  0.3440 -0.0080
13657TIP3   OH262461   1.726   2.287  12.663 -0.0032  0.1561 -0.7713
13657TIP3    H162462   1.647   2.335  12.640 -0.8422 -0.7127  0.2832
13657TIP3    H262463   1.718   2.268  12.756  0.7735 -1.1775 -0.9538
13658TIP3   OH262464   0.061   6.651   1.732 -0.2179 -0.4035 -0.0096
13658TIP3    H162465   0.121   6.643   1.658 -1.4276 -0.7409 -0.9605
13658TIP3    H262466   0.060   6.564   1.771  2.1837  0.3314  1.8163
13659TIP3   OH262467   0.045   0.080  15.626 -0.2411  0.5242  0.0605
13659TIP3    H162468  -0.025   0.131  15.667 -1.0600  0.0400 -0.7305
13659TIP3    H262469   0.064   0.011  15.688  1.3333  2.1522  1.4499
13660TIP3   OH262470   5.265   4.823  12.550  0.0726  0.0671 -0.3395
13660TIP3    H162471   5.339   4.780  12.591  0.3759 -0.4121 -1.3768
13660TIP3    H262472   5.304   4.892  12.495 -0.3663  1.1894  0.7277
13661TIP3   OH262473   5.263   2.745   6.251  0.3951 -0.7295  0.0945
13661TIP3    H162474   5.240   2.663   6.295  0.9951 -0.7888  0.2886
13661TIP3    H262475   5.351   2.731   6.218  0.5591 -0.1008  0.2628
13662TIP3   OH262476   1.535   4.241  16.430 -0.8137  0.1932  0.3859
13662TIP3    H162477   1.533   4.295  16.351  0.2992 -0.2144  0.0587
13662TIP3    H262478   1.446   4.244  16.465 -1.8611 -1.3589 -2.0459
13663TIP3   OH262479   1.863   3.428  12.937 -0.0535 -0.4479  0.1743
13663TIP3    H162480   1.897   3.396  12.854  1.5583  2.0237 -0.1455
13663TIP3    H262481   1.921   3.388  13.003 -1.6868 -2.8775  0.2180
13664TIP3   OH262482   0.710   4.830   3.439  0.2303  0.2867 -0.2492
13664TIP3    H162483   0.740   4.819   3.529 -0.4766  2.1507  0.2333
13664TIP3    H262484   0.789   4.853   3.390  0.3542  0.8006  0.1882
13665TIP3   OH262485   1.699   1.397   1.945 -0.0481  0.1509  0.1040
13665TIP3    H162486   1.761   1.409   1.873 -0.4289 -0.8461 -0.3918
13665TIP3    H262487   1.656   1.314   1.926  0.4015 -0.4978  1.8889
13666TIP3   OH262488   1.085   5.887   2.246 -0.4811 -0.0712 -0.4752
13666TIP3    H162489   1.168   5.928   2.223 -0.0919 -0.6100 -0.0618
13666TIP3    H262490   1.079   5.810   2.188 -1.9054  1.3493 -2.2863
13667TIP3   OH262491   5.891   2.802  14.549 -0.1596  0.5043  0.2673
13667TIP3    H162492   5.860   2.878  14.499 -0.1937 -0.2060 -0.7962
13667TIP3    H262493   5.827   2.733  14.530 -0.9988  0.6346  2.4522
13668TIP3   OH262494   4.321   4.047  15.689 -0.2561  0.5008  0.6151
13668TIP3    H162495   4.340   4.072  15.779  0.2474  2.4110 -0.0037
13668TIP3    H262496   4.253   4.108  15.661 -2.2805 -1.7447  0.5204
13669TIP3   OH262497   5.484   2.959   3.861 -0.8339  0.3549  0.1909
13669TIP3    H162498   5.539   2.935   3.787 -1.6154 -0.5629 -0.0988
13669TIP3    H262499   5.526   3.037   3.898  1.7647 -1.4427  1.1716
13670TIP3   OH262500   4.768   6.787  16.616  0.1347 -0.4115  0.3505
13670TIP3    H162501   4.798   6.871  16.652 -0.8748 -0.3255  1.0201
13670TIP3    H262502   4.788   6.723  16.685  1.0459 -0.7539 -0.2222
13671TIP3   OH262503   0.501   4.018  14.024 -0.6959  0.0849  0.0794
13671TIP3    H162504   0.501   3.923  14.011  1.0498  0.1751 -0.7810
13671TIP3    H262505   0.418   4.036  14.068 -0.1871 -2.0874  2.1027
13672TIP3   OH262506   5.026   5.028  15.535  0.4194  0.1030 -0.1330
13672TIP3    H162507   4.958   5.041  15.469  0.2592 -0.0151  0.0105
13672TIP3    H262508   4.997   4.952  15.586  1.1886 -0.6248 -0.7557
13673TIP3   OH262509   4.552   5.548   1.583  0.5274  0.1876  0.1980
13673TIP3    H162510   4.555   5.452   1.576  1.5262  0.0039  2.8032
13673TIP3    H262511   4.525   5.577   1.496  1.4086 -2.4032 -0.9896
13674TIP3   OH262512   1.082   4.015   0.980  0.2039  0.1093 -0.5810
13674TIP3    H162513   1.131   4.003   0.899  1.8944 -1.2206  0.5909
13674TIP3    H262514   1.108   4.102   1.011  0.7688 -0.0308 -0.6576
13675TIP3   OH262515   0.451   0.637   3.309  0.6656  0.3802 -0.4208
13675TIP3    H162516   0.378   0.655   3.250  0.8122  1.1542 -0.3679
13675TIP3    H262517   0.414   0.578   3.375  0.1856  0.4813 -0.5962
13676TIP3   OH262518   6.491   1.635   4.334  0.2879 -0.8445  0.0440
13676TIP3    H162519   6.570   1.663   4.286 -0.0310  2.2083  1.1697
13676TIP3    H262520   6.437   1.714   4.338 -2.6372 -2.7911 -0.2950
13677TIP3   OH262521   4.288   2.876   5.659 -0.2629 -0.2160 -0.0973
13677TIP3    H162522   4.332   2.801   5.699 -0.7064 -0.0779  0.6713
13677TIP3    H262523   4.220   2.900   5.722 -0.4562  0.5118 -0.5723
13678TIP3   OH262524   4.827   4.800   0.808  0.2531 -0.0519  0.1019
13678TIP3    H162525   4.817   4.824   0.900 -1.5512  0.1264 -0.1355
13678TIP3    H262526   4.738   4.787   0.776  0.8539  0.0808 -1.6787
13679TIP3   OH262527   1.259   5.422  14.486  0.1841  0.0127 -0.7829
13679TIP3    H162528   1.186   5.416  14.547  2.2727  0.9279  1.9263
13679TIP3    H262529   1.282   5.515  14.486  1.8504 -0.3771 -0.9408
13680TIP3   OH262530   0.603   0.051   4.505  0.4556  0.1503  0.2209
13680TIP3    H162531   0.604   0.121   4.440  1.7268 -0.3872 -0.3524
13680TIP3    H262532   0.550  -0.018   4.465  1.2204 -0.1725 -0.2462
13681TIP3   OH262533   1.326   1.879  17.137  0.2210  0.2683 -0.3271
13681TIP3    H162534   1.314   1.908  17.047 -0.4762  0.1515 -0.2756
13681TIP3    H262535   1.282   1.945  17.190 -0.1306 -0.1206 -0.1269
13682TIP3   OH262536   0.869   4.789   3.673 -0.4604 -0.4402 -0.2065
13682TIP3    H162537   0.939   4.788   3.608  1.7388  0.0920  2.0761
13682TIP3    H262538   0.900   4.731   3.742 -1.8245  0.5750  1.2744
13683TIP3   OH262539   5.882   1.011   3.756  0.0128 -0.5297 -0.5119
13683TIP3    H162540   5.937   1.089   3.766  1.6886 -1.7820  0.4051
13683TIP3    H262541   5.908   0.973   3.672 -0.8497 -0.0709 -0.9909
13684TIP3   OH262542   4.665   5.435   0.956  0.1862 -0.0915  0.8792
13684TIP3    H162543   4.570   5.450   0.962 -0.2894 -1.5632 -1.9880
13684TIP3    H262544   4.675   5.341   0.970  1.0381 -0.1900 -0.3447
13685TIP3   OH262545   1.542   0.103  16.428  0.4004  0.2139  0.2064
13685TIP3    H162546   1.515   0.027  16.480  1.0069  1.0787  1.8019
13685TIP3    H262547   1.605   0.068  16.366 -2.3458 -1.3525 -1.8438
13686TIP3   OH262548   2.384   3.188  14.969 -0.2820  0.2779 -0.0964
13686TIP3    H162549   2.364   3.121  15.034 -1.2718  0.9244  0.2896
13686TIP3    H262550   2.450   3.149  14.913  1.5874  0.1787  2.1099
13687TIP3   OH262551   1.999   4.171  11.399  0.3147 -0.2101  0.1978
13687TIP3    H162552   1.904   4.162  11.407  0.2988 -0.8104 -0.5440
13687TIP3    H262553   2.035   4.111  11.465  0.1782 -1.6353 -0.9943
13688TIP3   OH262554   2.674   0.136  14.294 -0.1840  0.1713 -0.2871
13688TIP3    H162555   2.687   0.104  14.205  1.2650  0.8420 -0.3434
13688TIP3    H262556   2.586   0.173  14.295 -0.3480 -0.1870 -1.3386
13689TIP3   OH262557   2.781   0.731  16.729  0.5414  0.3824 -0.3157
13689TIP3    H162558   2.775   0.750  16.635 -1.7847  1.9637  0.0952
13689TIP3    H262559   2.857   0.779  16.759 -0.3823  2.2542 -0.8970
13690TIP3   OH262560   6.637   2.218  14.319 -0.1222  0.0129  0.0070
13690TIP3    H162561   6.556   2.229  14.270 -0.9364 -0.6027  1.1918
13690TIP3    H262562   6.622   2.263  14.401  0.6237 -0.3701  0.3620
13691TIP3   OH262563   2.768   5.909  17.011  0.0362 -0.0795 -0.2651
13691TIP3    H162564   2.746   5.818  16.995  0.6903 -0.2088 -0.4338
13691TIP3    H262565   2.790   5.913  17.104  3.1815 -0.7606 -0.9247
13692TIP3   OH262566   1.711   3.874   3.109  0.1555 -0.0581  0.3048
13692TIP3    H162567   1.625   3.838   3.131 -0.2615  0.9306  0.3261
13692TIP3    H262568   1.727   3.846   3.019 -1.8170  2.7195 -1.0005
13693TIP3   OH262569   4.560   0.307  16.609 -0.1657  0.4461 -0.3814
13693TIP3    H162570   4.631   0.269  16.556  0.3400  0.3642  0.3536
13693TIP3    H262571   4.482   0.296  16.554  0.0321 -1.3097 -0.3570
13694TIP3   OH262572   6.655   6.387  15.130  0.3040  0.3890 -0.1442
13694TIP3    H162573   6.604   6.348  15.201 -1.4132  1.3825 -0.7956
13694TIP3    H262574   6.690   6.468  15.168  0.6741  0.1486  0.0334
13695TIP3   OH262575   6.188   5.439   2.883  0.0269 -0.1619  0.1706
13695TIP3    H162576   6.111   5.388   2.907  0.2353 -0.4803  0.1599
13695TIP3    H262577   6.261   5.396   2.929  0.1575  0.3081  0.4110
13696TIP3   OH262578   2.007   2.462   5.588  0.3162 -0.6314  0.0939
13696TIP3    H162579   2.056   2.466   5.669  1.8281 -0.9739 -0.7879
13696TIP3    H262580   1.938   2.398   5.605 -0.0112  0.0561  1.4269
13697TIP3   OH262581   6.151   5.618  15.701  0.3338 -0.7459 -0.0462
13697TIP3    H162582   6.197   5.681  15.757  0.6687 -0.5058 -0.5913
13697TIP3    H262583   6.129   5.668  15.622 -0.6897 -0.9087  0.1291
13698TIP3   OH262584   3.432   6.357  15.245 -0.2196  0.6526  0.0849
13698TIP3    H162585   3.503   6.347  15.309 -1.6271  0.5076  1.6746
13698TIP3    H262586   3.457   6.300  15.172  0.5587 -0.5848  1.2878
13699TIP3   OH262587   3.951   1.745  11.668  0.5774  0.1920 -0.0145
13699TIP3    H162588   3.864   1.772  11.695  0.4481  2.0734 -2.1634
13699TIP3    H262589   4.010   1.809  11.708  0.8612 -0.3028  0.3644
13700TIP3   OH262590   1.617   0.041  13.012  0.3142  0.1281 -0.5031
13700TIP3    H162591   1.588   0.085  13.092 -0.3592  0.6987 -1.0481
13700TIP3    H262592   1.681   0.101  12.974  1.6160 -0.7393  0.2605
13701TIP3   OH262593   1.412   5.193   0.541 -0.4091 -0.1997  0.0469
13701TIP3    H162594   1.470   5.149   0.603  0.4327 -0.1713 -0.7067
13701TIP3    H262595   1.342   5.229   0.595  0.7777  0.6089  1.0971
13702TIP3   OH262596   1.677   6.283   4.385  0.1997 -0.1576 -0.3691
13702TIP3    H162597   1.656   6.299   4.293  0.7971 -1.8675 -0.8211
13702TIP3    H262598   1.691   6.370   4.422 -0.7809  0.5857 -1.7173
13703TIP3   OH262599   6.636   5.338  15.766 -0.3193 -0.5526  0.2614
13703TIP3    H162600   6.664   5.326  15.675 -1.0215 -0.9409  0.0958
13703TIP3    H262601   6.636   5.433  15.777  0.9030 -0.5283  0.2229
13704TIP3   OH262602   3.234   6.564   1.062 -0.3682  0.8201  0.2483
13704TIP3    H162603   3.174   6.591   1.132  1.1447  0.5225  1.7196
13704TIP3    H262604   3.266   6.478   1.090 -1.4589 -0.3315 -1.9698
13705TIP3   OH262605   5.014   1.512   4.614 -0.3726 -0.6584 -0.2331
13705TIP3    H162606   4.933   1.522   4.663  0.1447 -1.0691  0.7194
13705TIP3    H262607   5.065   1.591   4.634  0.0170 -1.0246  0.2488
13706TIP3   OH262608   3.504   4.825  17.285  0.6223  0.0482 -0.1308
13706TIP3    H162609   3.581   4.792  17.237  1.2734  0.7084  0.4428
13706TIP3    H262610   3.537   4.901  17.333 -0.1230 -0.3730  1.0616
13707TIP3   OH262611   3.935   3.297  12.525  0.2235  0.1721  0.1250
13707TIP3    H162612   3.870   3.227  12.522 -0.6023  0.9776 -1.0278
13707TIP3    H262613   4.012   3.260  12.480  0.1706 -0.3782  0.4848
13708TIP3   OH262614   5.475   0.985  10.646 -0.3830 -0.5212  0.4075
13708TIP3    H162615   5.455   0.996  10.553 -1.0563 -2.5208  0.2753
13708TIP3    H262616   5.571   0.987  10.650 -0.2794 -2.0421 -0.5869
13709TIP3   OH262617   4.420   6.005   5.597  0.0606  0.4711  0.1209
13709TIP3    H162618   4.357   5.934   5.583  1.4074 -0.6898 -0.2267
13709TIP3    H262619   4.386   6.053   5.673 -0.2808 -1.2306  1.0800
13710TIP3   OH262620   6.613   4.592  14.644  0.0779 -0.9263 -0.4933
13710TIP3    H162621   6.616   4.572  14.550 -1.4835  0.1206 -0.7752
13710TIP3    H262622   6.554   4.667  14.651 -0.2606 -1.3503  1.3954
13711TIP3   OH262623   2.175   1.692   5.841  0.4498 -0.2658 -0.0807
13711TIP3    H162624   2.245   1.627   5.827 -0.4202 -1.5610  1.4229
13711TIP3    H262625   2.122   1.656   5.912 -1.7906  0.6630 -1.2035
13712TIP3   OH262626   5.516   0.748   0.794  0.3233  0.6911  0.1303
13712TIP3    H162627   5.569   0.742   0.714 -2.0722 -2.2730 -1.3608
13712TIP3    H262628   5.562   0.694   0.858  0.3111 -0.0011 -0.4389
13713TIP3   OH262629   6.604   3.428   3.113  0.0388 -0.2689 -0.0142
13713TIP3    H162630   6.578   3.337   3.097 -0.6364  0.0463 -0.7705
13713TIP3    H262631   6.696   3.431   3.088 -0.6010 -0.1519 -2.5228
13714TIP3   OH262632   2.875   6.021   5.549 -0.0082  0.2184 -0.0556
13714TIP3    H162633   2.791   6.065   5.566  0.8064  2.2618 -1.2460
13714TIP3    H262634   2.925   6.033   5.629 -0.0242  0.9092 -0.1505
13715TIP3   OH262635   1.814   2.842  16.448 -0.4668 -0.3120 -0.3830
13715TIP3    H162636   1.901   2.804  16.439 -0.2932  0.0474 -0.2136
13715TIP3    H262637   1.773   2.794  16.520  0.3882  1.0178  1.0015
13716TIP3   OH262638   5.546   3.984   6.537 -0.9410 -0.4169 -0.4453
13716TIP3    H162639   5.513   3.895   6.526  0.6125 -1.7678  4.4931
13716TIP3    H262640   5.641   3.974   6.545 -0.9340  1.3568  2.2822
13717TIP3   OH262641   2.797   0.976  16.018  0.0185  0.6507 -0.2176
13717TIP3    H162642   2.818   0.891  15.979  0.8272  1.5163 -1.7242
13717TIP3    H262643   2.866   0.990  16.083  0.1247  0.3505 -0.2629
13718TIP3   OH262644   2.964   6.055   2.313  0.6515  0.0790  0.3598
13718TIP3    H162645   3.025   6.061   2.386  1.3567  1.8708 -0.3479
13718TIP3    H262646   2.951   6.146   2.285 -2.2163 -0.2781  0.3833
13719TIP3   OH262647   4.213   2.925   5.117 -0.0076  0.6078  0.0540
13719TIP3    H162648   4.226   2.855   5.180  1.2958 -0.3046 -1.2055
13719TIP3    H262649   4.297   2.971   5.114 -0.3592  1.2435 -0.3144
13720TIP3   OH262650   0.926   5.843  13.202 -0.3870  0.3550  0.1774
13720TIP3    H162651   0.960   5.866  13.288  0.0835 -0.7915  0.3114
13720TIP3    H262652   0.831   5.850  13.211 -0.3427  0.1680  0.8089
13721TIP3   OH262653   5.201   3.156  17.159  0.3203 -0.2442  0.2193
13721TIP3    H162654   5.122   3.102  17.160 -0.3610  0.7468  0.6753
13721TIP3    H262655   5.251   3.128  17.235 -0.3217  0.1883  0.8015
13722TIP3   OH262656   4.070   0.733   2.949  0.0627  0.4117  0.6710
13722TIP3    H162657   4.064   0.646   2.988  0.7438  0.7987  1.6626
13722TIP3    H262658   4.073   0.717   2.855 -2.2206 -0.5217  0.7160
13723TIP3   OH262659   1.767   0.115   5.686 -0.5405 -0.2654  0.2264
13723TIP3    H162660   1.823   0.129   5.609 -0.4862 -0.2140  0.2751
13723TIP3    H262661   1.750   0.202   5.720  0.2655 -0.3504  0.8603
13724TIP3   OH262662   5.268   1.480   1.923  0.2013 -0.2966  0.0928
13724TIP3    H162663   5.191   1.435   1.958  0.4321 -0.1335  0.8036
13724TIP3    H262664   5.280   1.556   1.980  1.8126 -1.1618  0.9391
13725TIP3   OH262665   1.484   3.989   5.685  0.0872  0.0452 -0.4918
13725TIP3    H162666   1.534   3.948   5.615  1.2941 -0.6002  0.7243
13725TIP3    H262667   1.517   3.948   5.765 -0.8270  1.2129  0.4975
13726TIP3   OH262668   4.992   3.411  13.440 -0.4870  0.4641  0.5809
13726TIP3    H162669   4.977   3.349  13.512 -2.0485  0.7535  0.5245
13726TIP3    H262670   4.959   3.366  13.362  0.4279  0.4885  0.1734
13727TIP3   OH262671   6.637   1.555  16.904 -0.3013  0.1266 -0.2760
13727TIP3    H162672   6.728   1.550  16.873 -0.1163  0.3693  0.2268
13727TIP3    H262673   6.613   1.647  16.894 -0.3579  0.1394 -0.0295
13728TIP3   OH262674   0.887   0.372  12.434 -0.2196  0.2996  0.0257
13728TIP3    H162675   0.824   0.347  12.501  0.2026  1.3248  0.8192
13728TIP3    H262676   0.839   0.435  12.379  0.2913  1.5610  1.0009
13729TIP3   OH262677   1.972   4.640   0.788 -0.0118  0.4284 -0.1539
13729TIP3    H162678   1.935   4.578   0.725 -1.6133  1.5911 -0.4160
13729TIP3    H262679   1.979   4.722   0.739 -0.6093  1.1650  0.9554
13730TIP3   OH262680   2.912   1.545   5.506 -0.3897  0.4563  0.3474
13730TIP3    H162681   2.852   1.480   5.543  0.3438  0.8551  2.3059
13730TIP3    H262682   2.977   1.560   5.575 -0.3561  3.0334 -0.2012
13731TIP3   OH262683   3.802   3.237   0.800  0.1712 -0.5064  0.3940
13731TIP3    H162684   3.835   3.192   0.722 -1.6720 -1.0703 -0.0987
13731TIP3    H262685   3.709   3.250   0.782  0.2577  1.7545  1.3780
13732TIP3   OH262686   0.069   5.298   5.051  0.1453  0.0911  0.2293
13732TIP3    H162687   0.125   5.321   5.126  0.2897  1.8266 -0.3911
13732TIP3    H262688   0.044   5.382   5.013 -2.2871 -0.6796  0.0298
13733TIP3   OH262689   4.928   6.260   4.645  0.2708  0.4089  0.0102
13733TIP3    H162690   4.913   6.278   4.738 -0.0233  0.1067  0.0214
13733TIP3    H262691   5.020   6.282   4.632 -0.6890  4.3765 -0.5769
13734TIP3   OH262692   0.283   3.731   1.993 -0.2434 -0.1272 -0.0415
13734TIP3    H162693   0.280   3.642   2.026 -0.6598  0.7138  2.2591
13734TIP3    H262694   0.215   3.733   1.925 -0.1276 -1.5877 -0.2185
13735TIP3   OH262695   2.251   5.348   0.799 -0.3065 -0.1184  0.4953
13735TIP3    H162696   2.333   5.379   0.837 -0.3274 -1.2292  1.4740
13735TIP3    H262697   2.183   5.391   0.850 -0.3518  0.6147 -0.1620
13736TIP3   OH262698   4.805   5.628   0.624  0.1103 -0.2270  0.3934
13736TIP3    H162699   4.730   5.568   0.617  0.5110 -0.5931 -0.7852
13736TIP3    H262700   4.836   5.616   0.714  0.6033 -2.2964 -0.0183
13737TIP3   OH262701   5.817   4.813  13.901  0.0762  0.1992  0.1129
13737TIP3    H162702   5.860   4.799  13.817  0.5280  1.2954  0.1456
13737TIP3    H262703   5.845   4.901  13.927 -0.1837 -0.0704  1.3299
13738TIP3   OH262704   2.279   5.160   1.019  0.5051  0.2718 -0.3063
13738TIP3    H162705   2.210   5.226   1.007  0.7186  0.4871 -0.3630
13738TIP3    H262706   2.235   5.087   1.061  0.5005  0.9112  0.8222
13739TIP3   OH262707   5.963   4.011   4.844  0.0988  0.3258 -0.1050
13739TIP3    H162708   5.949   3.935   4.787  1.0630  0.3287 -0.3461
13739TIP3    H262709   5.929   4.085   4.794 -0.7508  0.0766  0.0894
13740TIP3   OH262710   0.597   0.217   6.100 -0.1677  0.0036 -0.0138
13740TIP3    H162711   0.678   0.166   6.107  0.5250  1.2883  1.7539
13740TIP3    H262712   0.550   0.199   6.182 -0.1983  1.6982  0.3639
13741TIP3   OH262713   1.571   1.819  13.338 -0.6832 -0.3434 -0.3734
13741TIP3    H162714   1.533   1.852  13.257 -1.4530  0.7055  0.3969
13741TIP3    H262715   1.541   1.880  13.405  0.9332 -0.5019  0.5274
13742TIP3   OH262716   5.049   0.350  13.075 -0.4601 -0.2198  0.2092
13742TIP3    H162717   5.048   0.446  13.072  1.8806 -0.1580  0.3363
13742TIP3    H262718   5.082   0.329  13.163 -0.4161 -1.1343 -0.0167
13743TIP3   OH262719   1.482   1.796  14.927  0.5220 -0.0935  0.0002
13743TIP3    H162720   1.500   1.702  14.936  0.9843  0.1083  1.2532
13743TIP3    H262721   1.555   1.829  14.875  1.1506 -0.1740  0.8120
13744TIP3   OH262722   0.128   2.409   1.248  0.3734 -0.0518  0.0827
13744TIP3    H162723   0.151   2.318   1.230 -0.4957 -0.2200 -0.1899
13744TIP3    H262724   0.122   2.450   1.162  1.3378  0.4138  0.2277
13745TIP3   OH262725   1.330   0.223  11.751 -0.0945 -0.5400 -0.0358
13745TIP3    H162726   1.305   0.151  11.810 -0.6046 -1.1961 -1.0368
13745TIP3    H262727   1.314   0.189  11.663  0.4884  0.4971 -0.5598
13746TIP3   OH262728   1.321   1.497   1.845 -0.2185 -0.0198 -0.2557
13746TIP3    H162729   1.384   1.569   1.844 -1.3865  1.0234 -0.3938
13746TIP3    H262730   1.235   1.541   1.847 -0.9243 -1.4116  0.2187
13747TIP3   OH262731   2.589   5.034   1.204 -0.3362 -0.4363  0.3490
13747TIP3    H162732   2.526   4.976   1.160 -1.0596  0.6946 -0.1518
13747TIP3    H262733   2.643   5.068   1.133  2.1163 -2.8602  0.9835
13748TIP3   OH262734   3.800   6.265  13.123 -0.9064  0.4933 -0.3435
13748TIP3    H162735   3.842   6.181  13.105 -0.5354  0.5700  0.1334
13748TIP3    H262736   3.712   6.256  13.088 -1.0718 -0.3286  0.2593
13749TIP3   OH262737   1.788   2.738   2.348  0.5211  0.2540  0.4704
13749TIP3    H162738   1.717   2.763   2.289 -0.1580 -0.7899  0.8289
13749TIP3    H262739   1.868   2.756   2.299 -0.0108  0.6414 -0.2622
13750TIP3   OH262740   2.656   0.001  11.975  0.0803 -0.4773 -1.0755
13750TIP3    H162741   2.738  -0.043  11.998  0.6584  0.4711 -1.3016
13750TIP3    H262742   2.589  -0.067  11.984  0.8739 -1.2301 -0.7846
13751TIP3   OH262743   1.373   2.073  14.597  0.7569 -0.1367  0.2515
13751TIP3    H162744   1.365   2.160  14.557  0.5749  0.3105  1.2431
13751TIP3    H262745   1.404   2.017  14.526  0.4739  0.6514 -0.5050
13752TIP3   OH262746   3.945   4.555   2.484 -0.3458 -0.4096 -0.6728
13752TIP3    H162747   3.961   4.493   2.413  0.6505 -0.8191 -0.0995
13752TIP3    H262748   3.924   4.500   2.560  1.4430 -0.0930  0.0691
13753TIP3   OH262749   3.663   4.561   1.678 -0.1497  0.5690 -0.6822
13753TIP3    H162750   3.585   4.616   1.675 -1.7933 -1.6942 -0.5232
13753TIP3    H262751   3.698   4.565   1.589 -1.2424  0.4963 -1.1257
13754TIP3   OH262752   4.856   6.305  11.560  0.2262 -0.3099  0.2707
13754TIP3    H162753   4.906   6.376  11.518  0.5333 -1.4054 -1.2845
13754TIP3    H262754   4.845   6.334  11.650  2.4476  0.6216  0.2953
13755TIP3   OH262755   2.464   4.520   4.285  0.3460 -0.4253 -0.5942
13755TIP3    H162756   2.397   4.458   4.254  1.8773 -2.2395 -0.4155
13755TIP3    H262757   2.446   4.530   4.378 -0.0376 -0.4369 -0.6658
13756TIP3   OH262758   6.398   5.269   0.981 -0.6848  0.0223 -0.0839
13756TIP3    H162759   6.314   5.300   0.946 -0.5492  3.9170  2.7423
13756TIP3    H262760   6.437   5.346   1.023  2.2342 -2.7617  2.6130
13757TIP3   OH262761   6.024   4.408  14.460  0.3607 -1.1762  0.3470
13757TIP3    H162762   6.040   4.334  14.519 -0.4350 -0.8842  0.9285
13757TIP3    H262763   5.987   4.367  14.381 -0.1326 -1.4024  0.6909
13758TIP3   OH262764   5.426   1.585  12.038 -0.1966  0.0684 -0.2319
13758TIP3    H162765   5.342   1.560  12.077  0.1291 -1.4223 -0.4436
13758TIP3    H262766   5.444   1.672  12.073  0.1097 -1.2146  2.9724
13759TIP3   OH262767   4.733   0.640   0.710 -0.1969 -0.6750 -0.0829
13759TIP3    H162768   4.803   0.689   0.667 -1.3699 -1.0841 -2.5639
13759TIP3    H262769   4.752   0.549   0.691 -1.1289 -0.8155 -0.3509
13760TIP3   OH262770   4.469   0.814   3.483  0.1779 -0.5371 -0.1648
13760TIP3    H162771   4.477   0.754   3.409 -0.2081  1.2373 -1.6652
13760TIP3    H262772   4.377   0.840   3.484 -0.1359 -1.5649  1.7911
13761TIP3   OH262773   5.505   0.892   5.339  0.3356  0.2306 -0.2177
13761TIP3    H162774   5.594   0.926   5.350  0.0229  1.3096 -1.0292
13761TIP3    H262775   5.457   0.962   5.295 -0.6369 -0.7753 -0.7855
13762TIP3   OH262776   4.085   3.507   4.159 -0.6564  0.3280  0.4570
13762TIP3    H162777   4.139   3.567   4.209  0.5992 -0.4887  0.1146
13762TIP3    H262778   4.121   3.420   4.179  0.5108  0.0516 -2.5665
13763TIP3   OH262779   1.706   0.986  14.672  1.1155  0.2261 -0.1558
13763TIP3    H162780   1.759   0.932  14.614 -0.7734  0.5667 -2.2545
13763TIP3    H262781   1.637   0.928  14.704  1.2545  0.4385  0.5494
13764TIP3   OH262782   0.456   0.509  15.554 -0.3377 -0.2516  0.3126
13764TIP3    H162783   0.494   0.481  15.637 -0.5483 -1.0703  0.1348
13764TIP3    H262784   0.509   0.465  15.487  0.5078  1.2404 -0.0234
13765TIP3   OH262785   6.780   2.619   1.890  0.8330  0.5453 -0.3747
13765TIP3    H162786   6.818   2.701   1.919 -0.6804  0.6005  1.5531
13765TIP3    H262787   6.712   2.599   1.955  0.3778 -1.6191 -1.4503
13766TIP3   OH262788   6.787   2.386  13.503 -0.3724 -0.4637  0.4217
13766TIP3    H162789   6.853   2.335  13.456  0.6102  1.4008 -0.2521
13766TIP3    H262790   6.704   2.347  13.477  0.1136  0.7605 -3.2449
13767TIP3   OH262791   1.340   6.647  12.289 -0.5765  0.2977  0.6845
13767TIP3    H162792   1.247   6.631  12.273 -0.1648 -1.0088 -0.6440
13767TIP3    H262793   1.370   6.568  12.335  0.0841  0.2230  0.1404
13768TIP3   OH262794   2.291   3.412   4.941  0.0564 -0.7711 -0.1242
13768TIP3    H162795   2.361   3.465   4.902  0.3422 -0.7237  0.4527
13768TIP3    H262796   2.246   3.472   5.000 -0.4370 -0.8210 -0.4446
13769TIP3   OH262797   1.565   4.347   1.529 -0.4574 -0.5637  0.2303
13769TIP3    H162798   1.641   4.381   1.577 -1.7132  0.7092  1.3527
13769TIP3    H262799   1.568   4.393   1.445 -1.3517  1.3188  1.2039
13770TIP3   OH262800   1.300   3.451  14.709  0.7396 -0.2675  0.5248
13770TIP3    H162801   1.315   3.405  14.627 -0.1401  2.3075 -1.1271
13770TIP3    H262802   1.314   3.385  14.776  0.5926 -2.6494 -1.7233
13771TIP3   OH262803   3.889   0.918  16.314 -0.1678  0.5699 -0.2982
13771TIP3    H162804   3.949   0.968  16.369 -0.3740  2.8590 -2.0836
13771TIP3    H262805   3.810   0.972  16.308 -0.5493 -0.1243 -1.9139
13772TIP3   OH262806   4.653   0.205   1.740 -0.3166  0.3455  0.1292
13772TIP3    H162807   4.567   0.166   1.722 -1.3797  2.0485  1.3401
13772TIP3    H262808   4.652   0.289   1.694  0.1128  1.0349  1.3543
13773TIP3   OH262809   5.126   4.574  16.596  0.0570  0.5829 -0.3417
13773TIP3    H162810   5.154   4.506  16.657  0.2525  1.0596  0.1012
13773TIP3    H262811   5.154   4.542  16.510  0.8106  0.4576 -0.0517
13774TIP3   OH262812   2.898   1.107   0.394  0.4711 -0.1253 -0.4435
13774TIP3    H162813   2.847   1.096   0.474  0.2334  0.8428 -0.4535
13774TIP3    H262814   2.847   1.061   0.327 -0.3456  0.7496 -0.4339
13775TIP3   OH262815   4.037   1.058   6.114 -0.1796 -0.5937 -0.3693
13775TIP3    H162816   3.973   1.060   6.186 -0.4111  1.1061 -0.5899
13775TIP3    H262817   4.122   1.062   6.157 -0.1935 -2.7306 -0.0782
13776TIP3   OH262818   0.708   3.360  15.153  0.4542  0.1590 -0.0687
13776TIP3    H162819   0.751   3.364  15.238  0.5365  0.3110 -0.1169
13776TIP3    H262820   0.733   3.442  15.110  2.3216 -0.9465 -1.1574
13777TIP3   OH262821   2.273   3.962   5.056 -0.6598  0.2761  0.4165
13777TIP3    H162822   2.361   3.997   5.070 -1.3248  1.5686  1.4895
13777TIP3    H262823   2.259   3.967   4.962 -0.0467  1.1991  0.3719
13778TIP3   OH262824   2.450   4.805   4.226 -0.1563  0.5277  0.9030
13778TIP3    H162825   2.464   4.711   4.238  1.6706  0.7526  0.6055
13778TIP3    H262826   2.452   4.818   4.131 -0.0871  0.9106  0.9551
13779TIP3   OH262827   4.280   3.117  10.834  0.0213  0.5410 -0.3378
13779TIP3    H162828   4.273   3.212  10.831  0.9043  0.6480  0.8771
13779TIP3    H262829   4.368   3.099  10.801  0.5865  0.2606  1.3139
13780TIP3   OH262830   3.643   4.129   2.396  0.1270  0.4855 -0.6339
13780TIP3    H162831   3.590   4.072   2.340  1.6507  0.4884 -2.1146
13780TIP3    H262832   3.627   4.217   2.362  2.3136  0.3344 -2.1947
13781TIP3   OH262833   6.810   2.949  11.613  0.4580 -0.1738  0.3473
13781TIP3    H162834   6.886   2.980  11.661 -0.3184 -0.1178  1.5476
13781TIP3    H262835   6.761   2.896  11.676 -0.7657  0.2219 -0.2493
13782TIP3   OH262836   0.131   1.194  16.231  0.2406  0.5115 -0.0707
13782TIP3    H162837   0.142   1.202  16.136  1.4114  0.6345  0.0664
13782TIP3    H262838   0.097   1.279  16.258  0.0301  0.5217 -0.3600
13783TIP3   OH262839   1.277   2.848  14.315  0.0983 -0.0675 -0.0750
13783TIP3    H162840   1.317   2.872  14.231 -0.1047  0.3193 -0.0622
13783TIP3    H262841   1.293   2.754  14.323 -1.5295 -0.4816 -1.4553
13784TIP3   OH262842   6.439   5.690   2.255 -0.2677 -0.0065  0.0088
13784TIP3    H162843   6.517   5.738   2.284 -0.2598  0.0657 -0.1341
13784TIP3    H262844   6.391   5.672   2.336  0.4338 -1.0004  0.2197
13785TIP3   OH262845   4.821   5.897  15.796  0.2404 -0.1923 -0.2030
13785TIP3    H162846   4.884   5.844  15.747  2.4666  2.9409 -0.8654
13785TIP3    H262847   4.791   5.963  15.733 -0.5425  0.9086  1.2914
13786TIP3   OH262848   0.979   3.968  16.466  0.3503  0.1156  0.4468
13786TIP3    H162849   0.972   4.051  16.419 -0.9233 -0.6148 -0.6973
13786TIP3    H262850   0.905   3.968  16.526  1.6363  0.7829  2.0757
13787TIP3   OH262851   4.324   0.209   3.856 -0.0159  0.6540 -0.0660
13787TIP3    H162852   4.344   0.140   3.794 -0.5484  0.2449  0.2187
13787TIP3    H262853   4.241   0.184   3.895  0.6206  0.5647  1.2891
13788TIP3   OH262854   5.472   1.974   0.508  0.5028 -0.1009 -0.5615
13788TIP3    H162855   5.517   1.946   0.588 -0.1984  0.9067  0.2007
13788TIP3    H262856   5.407   1.905   0.493  1.1602 -0.6945 -0.7174
13789TIP3   OH262857   5.192   1.952  15.358  0.1082 -0.3405  0.1614
13789TIP3    H162858   5.273   1.984  15.317  1.0445  0.5469  2.5993
13789TIP3    H262859   5.185   2.002  15.439 -2.8012 -0.5650  0.1038
13790TIP3   OH262860   0.222   3.029  11.189 -0.0210 -0.1796 -0.7153
13790TIP3    H162861   0.298   3.025  11.132  0.7050 -2.3125  0.3257
13790TIP3    H262862   0.258   3.045  11.276 -0.6762 -1.7119 -0.1388
13791TIP3   OH262863   0.039   1.731   4.422  0.4521  0.0508  0.3034
13791TIP3    H162864   0.015   1.773   4.504 -0.6295 -0.4828  0.2635
13791TIP3    H262865   0.010   1.641   4.431 -0.2209  0.1391 -0.9013
13792TIP3   OH262866   1.991   3.293  13.125  0.9954 -0.5796  0.4654
13792TIP3    H162867   2.038   3.278  13.207 -0.3832 -0.3740  1.3107
13792TIP3    H262868   1.961   3.207  13.098  1.3476 -0.6309  0.2281
13793TIP3   OH262869   2.192   4.258  11.643 -0.1222  0.1056  0.2695
13793TIP3    H162870   2.244   4.253  11.562  0.2993  1.5016  0.4370
13793TIP3    H262871   2.161   4.169  11.657  0.0871 -0.2241 -1.2525
13794TIP3   OH262872   0.669   5.674  15.416 -0.6821 -0.2497  0.8574
13794TIP3    H162873   0.627   5.645  15.335  0.0183 -1.2967  0.8601
13794TIP3    H262874   0.663   5.769  15.413 -1.5191 -0.3185  0.0354
13795TIP3   OH262875   5.938   2.801  16.497 -0.3997 -0.0418  0.6198
13795TIP3    H162876   6.015   2.849  16.467 -0.0210 -0.0756  1.5127
13795TIP3    H262877   5.867   2.864  16.491 -0.0073  0.4687  1.2789
13796TIP3   OH262878   5.632   3.963  15.349  0.1471 -0.1470  0.3485
13796TIP3    H162879   5.644   4.056  15.329  0.2686  0.0475  1.2719
13796TIP3    H262880   5.721   3.927  15.349  0.0599 -0.3683 -0.4789
13797TIP3   OH262881   3.473   5.061  16.529 -0.4763  0.2268  0.1844
13797TIP3    H162882   3.527   5.139  16.529  0.5617 -0.4681  1.0353
13797TIP3    H262883   3.410   5.074  16.458 -0.1879  1.7306  0.2008
13798TIP3   OH262884   5.844   4.300   0.939 -0.2418  0.5798 -0.3953
13798TIP3    H162885   5.886   4.371   0.988 -1.3877  1.0902 -0.1370
13798TIP3    H262886   5.862   4.320   0.847 -0.8005  1.3670 -0.3376
13799TIP3   OH262887   2.360   3.794   6.396  0.4699 -0.3335  0.1454
13799TIP3    H162888   2.356   3.877   6.442  2.1809  0.9554 -1.9372
13799TIP3    H262889   2.388   3.731   6.462 -0.1778  0.8394  1.5769
13800TIP3   OH262890   4.817   6.561   4.019 -0.2012  0.4777  0.2405
13800TIP3    H162891   4.866   6.567   4.101  0.3864  1.0016 -0.1436
13800TIP3    H262892   4.726   6.552   4.046  0.2506 -2.2053  0.9888
13801TIP3   OH262893   4.524   2.558  12.680 -0.1002  0.3127 -0.2262
13801TIP3    H162894   4.594   2.604  12.727  0.5562 -0.1357 -0.7543
13801TIP3    H262895   4.460   2.626  12.661  0.6957  0.9448 -0.6812
13802TIP3   OH262896   5.858   5.098  14.556 -0.4800 -0.0995  0.2828
13802TIP3    H162897   5.817   5.079  14.472 -0.2178  1.6686 -0.2701
13802TIP3    H262898   5.840   5.191  14.571 -1.0867 -0.5455  2.5026
13803TIP3   OH262899   1.751   2.308   5.612 -0.1034 -0.6873  0.2276
13803TIP3    H162900   1.742   2.218   5.643 -2.1883 -0.6855 -0.3001
13803TIP3    H262901   1.702   2.310   5.530 -1.4616  1.3241  1.0615
13804TIP3   OH262902   2.293   6.672   2.750  0.3401  0.4994  0.1310
13804TIP3    H162903   2.216   6.717   2.715  0.0573 -0.7106 -0.8561
13804TIP3    H262904   2.270   6.654   2.841 -0.1660  0.9864  0.1033
13805TIP3   OH262905   6.292   0.614  14.526  0.3136  0.4732  0.1416
13805TIP3    H162906   6.220   0.642  14.471  0.6486  0.9205 -0.0649
13805TIP3    H262907   6.359   0.681  14.515  0.8062 -0.0003  0.2454
13806TIP3   OH262908   5.028   5.723  16.525  0.3090 -0.0317  0.3406
13806TIP3    H162909   4.945   5.742  16.481 -0.1751 -0.2898  1.1341
13806TIP3    H262910   5.083   5.685  16.457 -0.5374 -0.7024  0.0188
13807TIP3   OH262911   6.589   5.585   0.787 -0.5854 -0.1040 -0.6042
13807TIP3    H162912   6.515   5.532   0.758 -0.4208 -1.1455  0.7974
13807TIP3    H262913   6.635   5.529   0.850 -0.0682  1.4912  0.4779
13808TIP3   OH262914   6.460   2.950  12.019 -0.2551  0.0595  0.0646
13808TIP3    H162915   6.555   2.939  12.030 -0.3080  0.0607  0.5442
13808TIP3    H262916   6.435   3.010  12.089 -0.6467 -0.1156  0.0741
13809TIP3   OH262917   3.415   0.681   4.568  0.1581 -0.0925 -0.0867
13809TIP3    H162918   3.414   0.756   4.509  0.9405 -1.3339 -1.7122
13809TIP3    H262919   3.323   0.663   4.588 -0.0354  1.1618  0.1564
13810TIP3   OH262920   2.633   0.704   3.618 -0.1604  0.0277  0.3142
13810TIP3    H162921   2.647   0.610   3.619  1.4075  0.2669  2.8605
13810TIP3    H262922   2.570   0.718   3.546  0.9449 -2.7225 -1.2592
13811TIP3   OH262923   1.507   5.744  13.669  1.0675  0.1207  0.6554
13811TIP3    H162924   1.496   5.819  13.727 -1.0086 -1.9063  3.0518
13811TIP3    H262925   1.419   5.707  13.661  1.5572 -0.5142 -2.6964
13812TIP3   OH262926   4.725   2.717  16.395  0.4489  0.3553 -0.2593
13812TIP3    H162927   4.734   2.803  16.436 -0.2859  0.2360  0.1734
13812TIP3    H262928   4.699   2.659  16.466 -2.0181  0.3785 -1.0741
13813TIP3   OH262929   5.906   6.585   1.650 -0.1654 -0.0185  0.4667
13813TIP3    H162930   5.845   6.602   1.578  0.9643 -1.5608 -0.8743
13813TIP3    H262931   5.851   6.583   1.728 -1.4681  1.1893 -0.3989
13814TIP3   OH262932   1.377   6.151  13.287  0.7807  0.1110  0.5629
13814TIP3    H162933   1.313   6.199  13.340  1.4657  0.5169  1.0159
13814TIP3    H262934   1.358   6.059  13.305  0.5213  0.2320  0.9281
13815TIP3   OH262935   5.284   3.696  14.701  0.2137 -0.0156 -1.0127
13815TIP3    H162936   5.375   3.672  14.718  0.3454 -0.6490 -2.5699
13815TIP3    H262937   5.283   3.792  14.711  0.3469 -0.2831  2.0821
13816TIP3   OH262938   5.914   1.569  10.988 -0.2573 -0.3068  0.5828
13816TIP3    H162939   5.893   1.576  11.081  1.0165  1.3508  0.7609
13816TIP3    H262940   5.960   1.650  10.967  0.8457 -1.3451 -1.1334
13817TIP3   OH262941   0.872   0.078   0.988  0.1687  0.2258 -0.3289
13817TIP3    H162942   0.876   0.111   0.898 -0.1528 -0.3526 -0.5534
13817TIP3    H262943   0.947   0.019   0.996 -0.5896 -0.7809 -0.6380
13818TIP3   OH262944   6.254   6.245   0.672 -0.1498 -0.3384 -0.5233
13818TIP3    H162945   6.286   6.293   0.595 -0.9460  1.2485  0.1219
13818TIP3    H262946   6.247   6.311   0.740 -0.5785 -1.5274  0.6013
13819TIP3   OH262947   4.788   5.595   5.309 -0.1638  0.0350 -0.4545
13819TIP3    H162948   4.741   5.650   5.246 -0.8921 -1.7045 -1.4531
13819TIP3    H262949   4.812   5.517   5.260  1.8115 -0.0941  0.6569
13820TIP3   OH262950   5.865   0.502   6.425  0.1934  0.1693 -0.4696
13820TIP3    H162951   5.801   0.554   6.377 -0.4791  0.2430  0.4951
13820TIP3    H262952   5.925   0.567   6.463  0.0987  0.1674 -0.3181
13821TIP3   OH262953   1.699   3.149  13.125  0.2307  0.2282  0.5273
13821TIP3    H162954   1.682   3.212  13.195  1.1190  1.0743  0.0038
13821TIP3    H262955   1.741   3.075  13.169  0.0307  0.4018  1.0141
13822TIP3   OH262956   1.278   1.856   1.692  0.4829 -0.0616 -0.1129
13822TIP3    H162957   1.256   1.866   1.784 -0.6264 -0.2050 -0.3600
13822TIP3    H262958   1.364   1.814   1.693  1.2264  1.4488  0.8584
13823TIP3   OH262959   0.721   5.650   1.410  0.0646 -0.4032  0.0835
13823TIP3    H162960   0.649   5.605   1.454 -0.3537  2.1076  2.0358
13823TIP3    H262961   0.781   5.580   1.385 -1.9300 -2.3074  0.4804
13824TIP3   OH262962   5.916   1.917  14.779 -0.2194 -0.2605  0.5331
13824TIP3    H162963   5.947   1.898  14.690  0.8432 -1.6148  1.1806
13824TIP3    H262964   5.821   1.900  14.775 -0.0208 -1.2847 -0.0846
13825TIP3   OH262965   2.720   5.917  13.142 -0.1090  0.0919 -0.2741
13825TIP3    H162966   2.716   5.940  13.049  0.6362 -0.8822 -0.5515
13825TIP3    H262967   2.678   5.831  13.147 -0.1015  0.1211  0.2851
13826TIP3   OH262968   5.698   1.732  12.993 -0.8423  0.3789  0.1356
13826TIP3    H162969   5.653   1.790  13.055 -1.3647 -0.6542  0.7372
13826TIP3    H262970   5.660   1.753  12.908  0.4247  2.3532  0.0277
13827TIP3   OH262971   1.840   5.888  11.239 -0.1343 -0.1686  0.2293
13827TIP3    H162972   1.807   5.915  11.153  0.4044  1.1844  0.4457
13827TIP3    H262973   1.778   5.925  11.301 -1.0657 -1.9550  0.3999
13828TIP3   OH262974   0.995   5.909  14.836 -0.1812  0.4562 -0.3379
13828TIP3    H162975   0.933   5.918  14.764 -1.1807  0.8944  0.5646
13828TIP3    H262976   1.075   5.951  14.804 -0.4518  0.2085 -1.3711
13829TIP3   OH262977   1.151   5.427  14.824 -0.0138  0.6328  0.2245
13829TIP3    H162978   1.094   5.496  14.856 -0.1507 -0.3753  2.1868
13829TIP3    H262979   1.239   5.452  14.853 -0.3297 -1.0216  2.7568
13830TIP3   OH262980   4.304   5.966  14.385  0.7395 -0.2831 -0.0901
13830TIP3    H162981   4.355   5.902  14.335  1.4925  0.4378 -0.2490
13830TIP3    H262982   4.274   5.917  14.462  1.7798 -0.6940  0.0690
13831TIP3   OH262983   4.689   0.668  14.367 -0.2654 -0.1064 -0.1341
13831TIP3    H162984   4.631   0.607  14.323 -1.1655  1.1139 -0.6710
13831TIP3    H262985   4.708   0.735  14.301  0.7830  0.1508  0.4121
13832TIP3   OH262986   2.591   3.938   3.315 -0.8541  0.4946 -0.4138
13832TIP3    H162987   2.625   3.925   3.404  1.0834  0.7995 -1.0891
13832TIP3    H262988   2.555   4.026   3.316  1.4716  1.4846 -0.6178
13833TIP3   OH262989   4.385   4.091  11.582 -0.4179 -0.3110 -0.5939
13833TIP3    H162990   4.413   4.000  11.578  0.7123  0.0584 -1.4594
13833TIP3    H262991   4.349   4.110  11.496 -3.3485 -0.7393  0.4606
13834TIP3   OH262992   1.406   4.301  13.912 -0.8259  0.5393 -0.2344
13834TIP3    H162993   1.430   4.274  13.823  1.7145  0.1751  0.5176
13834TIP3    H262994   1.351   4.378  13.900  0.9890  1.5954 -2.0933
13835TIP3   OH262995   5.661   6.488  15.173  0.3739 -0.1251  0.8091
13835TIP3    H162996   5.692   6.578  15.161  1.0472 -0.4836 -0.2204
13835TIP3    H262997   5.739   6.434  15.160  0.0857 -0.8356  1.9556
13836TIP3   OH262998   1.392   3.960  15.904  0.0492  0.5088 -0.3872
13836TIP3    H162999   1.410   3.991  15.814  0.6191 -0.9103 -0.7673
13836TIP3    H263000   1.297   3.965  15.912 -0.0216  0.4862 -1.1374
13837TIP3   OH263001   5.351   6.157   0.866 -0.5944  0.3801  0.1369
13837TIP3    H163002   5.422   6.198   0.917  0.3041  0.1331 -0.8993
13837TIP3    H263003   5.368   6.183   0.776 -0.3959 -1.7319 -0.4549
13838TIP3   OH263004   3.245   0.317  11.066 -0.2990  0.3304 -0.1448
13838TIP3    H163005   3.193   0.374  11.123 -0.9042  0.3987 -0.7471
13838TIP3    H263006   3.277   0.376  10.998  0.5156  0.2731  0.1915
13839TIP3   OH263007   3.852   6.156  15.950  0.4181 -0.4838 -0.1521
13839TIP3    H163008   3.841   6.199  15.865 -0.0342  0.3946  0.3507
13839TIP3    H263009   3.771   6.106  15.963 -0.2790  0.8061  0.5695
13840TIP3   OH263010   1.549   3.497   3.910 -0.5786 -0.4433 -0.0186
13840TIP3    H163011   1.481   3.534   3.853 -1.0291 -0.4201  0.5343
13840TIP3    H263012   1.552   3.556   3.985  0.0642 -0.4378 -0.0486
13841TIP3   OH263013   1.747   0.617  15.119  0.2910  0.3711  0.1336
13841TIP3    H163014   1.655   0.592  15.124  0.5426 -0.6659 -0.3231
13841TIP3    H263015   1.761   0.674  15.195 -0.6505  0.3056  0.3595
13842TIP3   OH263016   1.767   4.363  15.266 -0.1348  0.7474  0.3673
13842TIP3    H163017   1.818   4.285  15.287 -1.4039 -0.3117 -0.3937
13842TIP3    H263018   1.755   4.359  15.171 -1.1754  1.2581  0.4643
13843TIP3   OH263019   3.332   2.016  10.512  0.3391  0.0295  0.2157
13843TIP3    H163020   3.347   2.077  10.440 -0.7720  0.9187  0.7185
13843TIP3    H263021   3.322   1.931  10.469  0.5108  0.4182 -0.6105
13844TIP3   OH263022   0.488   5.492   1.463  0.3358  0.2217  0.2458
13844TIP3    H163023   0.446   5.460   1.543  0.3603  0.6648  0.4400
13844TIP3    H263024   0.483   5.419   1.402 -1.6062  0.5668 -0.0717
13845TIP3   OH263025   0.123   0.151   6.335 -0.6144 -0.3057  0.4259
13845TIP3    H163026   0.039   0.168   6.292 -0.7315  0.0154  0.7756
13845TIP3    H263027   0.137   0.228   6.391 -0.2114 -0.4760  0.5615
13846TIP3   OH263028   5.658   5.738  15.855  0.2715 -0.0439 -0.3036
13846TIP3    H163029   5.668   5.648  15.824  0.6792 -0.6669  1.6044
13846TIP3    H263030   5.563   5.754  15.850  0.4850  0.5588 -3.6849
13847TIP3   OH263031   5.898   5.929  16.291  0.3249 -0.3435  0.0394
13847TIP3    H163032   5.852   5.847  16.277 -0.1525 -0.4143  2.0100
13847TIP3    H263033   5.870   5.984  16.218 -1.0705 -1.1684 -0.0594
13848TIP3   OH263034   2.340   4.499  11.602  0.0011  0.1552  0.3737
13848TIP3    H163035   2.283   4.426  11.625  1.3169 -0.6076  1.2887
13848TIP3    H263036   2.429   4.462  11.604  0.4915  1.1178 -1.7851
13849TIP3   OH263037   5.579   6.741  12.901 -0.0895 -0.3775 -0.0764
13849TIP3    H163038   5.588   6.834  12.881  1.6999 -0.1958  1.4802
13849TIP3    H263039   5.599   6.696  12.819  2.2014  0.5127 -0.0363
13850TIP3   OH263040   1.329   5.035   3.724  0.3870  0.0853 -0.7809
13850TIP3    H163041   1.425   5.027   3.725  0.3196 -0.7550 -0.6307
13850TIP3    H263042   1.313   5.129   3.721  1.2190  0.2388 -0.5846
13851TIP3   OH263043   0.306   4.530   5.120 -0.5361  0.0748  0.4622
13851TIP3    H163044   0.305   4.613   5.072  0.5368 -0.6211 -0.7891
13851TIP3    H263045   0.382   4.484   5.086 -1.8473 -1.9743  0.2403
13852TIP3   OH263046   2.606   2.622  14.259 -0.3907 -0.7414  0.1334
13852TIP3    H163047   2.619   2.716  14.246 -0.7574 -0.6726  0.2544
13852TIP3    H263048   2.613   2.610  14.354 -2.5238 -0.5005  0.3271
13853TIP3   OH263049   0.492   0.676   6.836 -0.3649  0.3385 -0.4450
13853TIP3    H163050   0.539   0.616   6.777 -0.8603  0.9217 -1.4459
13853TIP3    H263051   0.441   0.732   6.777  0.1119  1.7623  0.4802
13854TIP3   OH263052   5.816   3.055  14.407 -0.2182  0.4499  0.2333
13854TIP3    H163053   5.749   3.044  14.340 -0.1097 -0.0291  0.2004
13854TIP3    H263054   5.778   3.116  14.470 -0.9157 -0.2479  0.5002
13855TIP3   OH263055   1.490   4.298   2.290  0.6108 -0.4445 -0.0304
13855TIP3    H163056   1.448   4.377   2.256  1.5861 -0.5258 -1.4522
13855TIP3    H263057   1.443   4.279   2.372  1.5614  2.6332  1.3000
13856TIP3   OH263058   2.034   0.387  14.514  0.0679  0.1797  0.1502
13856TIP3    H163059   2.080   0.455  14.564  1.5805 -1.5476  1.1592
13856TIP3    H263060   1.942   0.401  14.534  0.4099  1.5409  0.8509
13857TIP3   OH263061   3.129   3.347   5.843  0.0975  0.2265  0.1598
13857TIP3    H163062   3.162   3.384   5.925  0.1985  1.1202 -0.2775
13857TIP3    H263063   3.160   3.256   5.843  1.0980  0.5576  0.5644
13858TIP3   OH263064   1.320   5.837  11.377 -0.4905 -0.3372 -0.1587
13858TIP3    H163065   1.325   5.867  11.286 -0.0846  1.0096  0.2895
13858TIP3    H263066   1.276   5.909  11.423 -0.8648 -1.0960  0.6766
13859TIP3   OH263067   6.793   4.944  11.382  0.8765  0.3294  0.2301
13859TIP3    H163068   6.700   4.934  11.400  1.4356  0.9308  3.6982
13859TIP3    H263069   6.823   4.856  11.359 -0.2000 -0.1684  0.7302
13860TIP3   OH263070   1.020   0.337   3.030 -0.3259  0.0931 -0.6418
13860TIP3    H163071   1.063   0.363   3.111  1.7586  0.4336 -1.8341
13860TIP3    H263072   0.963   0.264   3.055  0.8129 -0.2440  0.9915
13861TIP3   OH263073   6.472   5.627   4.947 -0.4257  0.0070  0.1867
13861TIP3    H163074   6.513   5.712   4.961  2.0357 -1.0693 -0.2424
13861TIP3    H263075   6.473   5.585   5.033 -0.3685 -0.1200  0.1262
13862TIP3   OH263076   5.112   0.386  15.899 -0.5250  0.7336 -0.2999
13862TIP3    H163077   5.102   0.358  15.808 -1.7953 -1.3058  0.4309
13862TIP3    H263078   5.205   0.369  15.919 -0.7940 -1.1024 -0.5107
13863TIP3   OH263079   5.890   5.482  14.048 -1.0345 -0.0390 -0.1503
13863TIP3    H163080   5.970   5.432  14.062  0.3049  1.9228 -0.5062
13863TIP3    H263081   5.826   5.418  14.017 -0.4799 -2.1741  2.9538
13864TIP3   OH263082   0.373   2.389  17.075 -0.0701  0.3371  0.6227
13864TIP3    H163083   0.379   2.377  17.170  1.2336  1.5906  0.7157
13864TIP3    H263084   0.378   2.484  17.063  1.2220  0.1085 -0.7924
13865TIP3   OH263085   4.379   0.411   1.131  0.3298  0.4737  0.2997
13865TIP3    H163086   4.302   0.452   1.172 -0.3277  0.4529 -0.8969
13865TIP3    H263087   4.413   0.477   1.072  1.0291  0.3450  0.5576
13866TIP3   OH263088   2.114   3.958  16.748  0.5987  0.5895 -0.1924
13866TIP3    H163089   2.030   3.924  16.779  0.5611  0.1393 -0.7885
13866TIP3    H263090   2.123   3.925  16.659  2.3030 -1.0138  0.5241
13867TIP3   OH263091   3.542   2.806   4.860  0.0107  0.1393  0.3198
13867TIP3    H163092   3.526   2.867   4.931  1.0417 -1.7338  2.2428
13867TIP3    H263093   3.598   2.854   4.799 -2.8967  2.5913 -0.4938
13868TIP3   OH263094   6.018   0.773  14.995 -0.1667  0.0553 -0.1685
13868TIP3    H163095   6.042   0.865  15.007 -2.5766  1.1066 -2.9216
13868TIP3    H263096   6.048   0.730  15.075 -0.2892  3.4957  1.8163
13869TIP3   OH263097   5.008   2.108   4.469 -0.3847  0.0135 -0.3272
13869TIP3    H163098   5.094   2.122   4.429  0.0295 -0.6840  0.3135
13869TIP3    H263099   4.946   2.143   4.404  0.3721  0.4989 -0.8005
13870TIP3   OH263100   2.791   1.685   0.846 -0.1287 -0.5104 -0.0247
13870TIP3    H163101   2.815   1.777   0.855  0.1571 -0.5193 -0.6594
13870TIP3    H263102   2.739   1.666   0.924  1.7510 -0.4333  1.3066
13871TIP3   OH263103   3.003   1.130  16.551 -0.0813  0.2685  0.6027
13871TIP3    H163104   3.075   1.078  16.517  0.7146  1.4249  0.4681
13871TIP3    H263105   2.977   1.186  16.477  0.1154  1.1502  1.1939
13872TIP3   OH263106   1.950   2.578   1.680 -0.5715  0.4125  0.7839
13872TIP3    H163107   2.000   2.598   1.759  1.1386 -0.6396  0.0195
13872TIP3    H263108   1.929   2.663   1.642  0.1893  0.8919  1.4301
13873TIP3   OH263109   3.529   1.568   2.866 -0.4322 -0.0639  1.3117
13873TIP3    H163110   3.448   1.526   2.894 -1.2864  0.4502 -0.2936
13873TIP3    H263111   3.587   1.495   2.841  0.0255 -0.4816  3.4458
13874TIP3   OH263112   6.299   1.807   3.478  0.2193  0.4080 -0.3716
13874TIP3    H163113   6.337   1.795   3.392 -0.4732  1.9975 -0.9125
13874TIP3    H263114   6.205   1.794   3.465  0.3546 -1.6948  0.6044
13875TIP3   OH263115   1.693   5.256  16.262 -0.3632 -0.6428 -0.1307
13875TIP3    H163116   1.705   5.262  16.167  1.3796 -3.7221 -0.2135
13875TIP3    H263117   1.628   5.187  16.273 -1.0253  0.1544  0.8852
13876TIP3   OH263118   2.930   5.166  16.822  0.2085 -0.3591 -0.0628
13876TIP3    H163119   2.956   5.184  16.731  2.8067 -0.9108  0.5293
13876TIP3    H263120   2.963   5.078  16.839  0.6154  0.1241  1.7223
13877TIP3   OH263121   6.258   1.696  11.606 -0.0834 -0.3649  0.0789
13877TIP3    H163122   6.173   1.696  11.563  0.3352  0.4026 -0.7564
13877TIP3    H263123   6.246   1.750  11.684 -1.0256 -2.3240  1.3365
13878TIP3   OH263124   1.568   2.414  11.666  0.8804 -0.3353 -0.0857
13878TIP3    H163125   1.599   2.504  11.665  1.2089 -0.4512 -0.6454
13878TIP3    H263126   1.534   2.399  11.578 -0.8463 -0.1904  0.5295
13879TIP3   OH263127   0.918   1.285   2.149  0.1325  0.1563 -0.0144
13879TIP3    H163128   0.952   1.274   2.060 -0.7816  0.6317 -0.4228
13879TIP3    H263129   0.862   1.208   2.162 -1.0781  0.9428 -0.4795
13880TIP3   OH263130   3.841   2.568  12.370  0.4610  0.7018 -0.6251
13880TIP3    H163131   3.905   2.504  12.340  0.1429  0.7685 -1.4543
13880TIP3    H263132   3.881   2.653  12.352  1.7465  0.7788  2.2919
13881TIP3   OH263133   2.176   5.893   0.739 -0.2890  0.1517 -0.4779
13881TIP3    H163134   2.163   5.962   0.804 -0.0039 -1.2200  1.0832
13881TIP3    H263135   2.240   5.834   0.780 -1.6362 -1.8139 -1.1379
13882TIP3   OH263136   1.552   2.039  15.933 -0.3015  0.4986 -0.0653
13882TIP3    H163137   1.538   2.019  16.025 -0.8945  0.2451 -0.2085
13882TIP3    H263138   1.643   2.015  15.917 -0.3700 -0.0225  0.3080
13883TIP3   OH263139   5.876   5.657  12.373 -0.2617  0.8227 -0.0513
13883TIP3    H163140   5.921   5.685  12.452 -0.2131  1.2130 -0.2174
13883TIP3    H263141   5.921   5.702  12.302 -0.5536  0.7810 -0.2660
13884TIP3   OH263142   6.064   0.903  13.935 -0.3191  0.8781  0.1507
13884TIP3    H163143   6.142   0.956  13.956 -0.3121  0.1080  2.1211
13884TIP3    H263144   6.039   0.933  13.847  1.6798  1.7633 -0.1638
13885TIP3   OH263145   3.901   4.859   5.492 -0.2316 -0.6647  0.6791
13885TIP3    H163146   3.844   4.873   5.568 -0.2071 -1.5053  0.8563
13885TIP3    H263147   3.930   4.947   5.468 -1.8322 -0.1943  0.3946
13886TIP3   OH263148   2.509   4.612   4.577  0.6158 -0.0034 -0.1059
13886TIP3    H163149   2.473   4.671   4.644 -0.0546 -0.4288 -0.0850
13886TIP3    H263150   2.595   4.648   4.557  0.1662  1.0430 -0.1708
13887TIP3   OH263151   1.597   3.173  11.118 -0.1922 -0.3306 -0.3182
13887TIP3    H163152   1.566   3.085  11.138 -0.8201  0.0200  0.3037
13887TIP3    H263153   1.683   3.178  11.159 -1.5072  0.4072  2.4796
13888TIP3   OH263154   0.721   4.128  16.476  0.7664  0.2758  0.0284
13888TIP3    H163155   0.651   4.188  16.452  0.3681 -0.6514 -1.1706
13888TIP3    H263156   0.682   4.071  16.543 -0.3063 -1.5711 -2.1127
13889TIP3   OH263157   4.932   0.518  14.643  0.5750  0.8162 -0.0820
13889TIP3    H163158   4.904   0.610  14.643 -0.6037  0.4695 -1.4017
13889TIP3    H263159   4.892   0.481  14.565 -0.4287 -1.2751  1.3791
13890TIP3   OH263160   3.816   0.132   1.875 -0.3289 -0.8030 -0.1687
13890TIP3    H163161   3.849   0.149   1.786  0.3703  1.1214  0.4309
13890TIP3    H263162   3.895   0.127   1.928 -0.8035 -0.7160  0.5431
13891TIP3   OH263163   3.179   1.816  15.677 -0.2741  0.4177 -0.1533
13891TIP3    H163164   3.218   1.760  15.610 -0.1081  0.4952 -0.1230
13891TIP3    H263165   3.085   1.811  15.662 -0.2290  0.5419 -0.4772
13892TIP3   OH263166   5.138   3.559   6.166  0.0285  0.3184  0.0149
13892TIP3    H163167   5.125   3.654   6.170 -0.5130  0.3948 -2.3758
13892TIP3    H263168   5.058   3.522   6.204 -0.0157  0.8297  0.4212
13893TIP3   OH263169   0.898   4.920  16.416  0.3121  0.1642 -0.1100
13893TIP3    H163170   0.805   4.900  16.403  0.6070 -0.8363 -0.6980
13893TIP3    H263171   0.943   4.873  16.346  1.4805 -1.3552  1.5896
13894TIP3   OH263172   5.413   3.197   1.874 -0.3155 -0.1163  0.0008
13894TIP3    H163173   5.368   3.127   1.826 -0.3513  0.4699 -0.8237
13894TIP3    H263174   5.406   3.171   1.966 -3.7423  0.7493  0.0400
13895TIP3   OH263175   5.964   4.228   1.245 -0.1447 -0.0404 -0.2338
13895TIP3    H163176   6.042   4.271   1.210  0.8082 -2.1239 -0.7508
13895TIP3    H263177   5.998   4.154   1.295 -1.6723  0.7404  2.0154
13896TIP3   OH263178   0.968   2.392   3.109  0.4075 -0.2441  0.7054
13896TIP3    H163179   0.991   2.300   3.117  0.1870 -0.4378 -0.7013
13896TIP3    H263180   1.031   2.427   3.046 -0.3147  0.2613  0.2549
13897TIP3   OH263181   5.086   3.082   2.822 -0.0491 -0.0758 -0.6408
13897TIP3    H163182   5.023   3.117   2.759 -0.0192  0.1168 -0.5631
13897TIP3    H263183   5.055   3.112   2.907  0.4689  0.5211 -0.6502
13898TIP3   OH263184   5.534   4.833   3.948  0.4524 -0.5446 -0.0337
13898TIP3    H163185   5.602   4.886   3.990  0.2113 -0.3640  0.1340
13898TIP3    H263186   5.571   4.808   3.864 -0.2491  1.6702 -1.0261
13899TIP3   OH263187   0.564   2.413   1.745 -0.0019  0.0486 -0.4317
13899TIP3    H163188   0.610   2.479   1.798 -1.3320  0.2648  0.4626
13899TIP3    H263189   0.579   2.331   1.791  1.0346 -0.1796 -1.1502
13900TIP3   OH263190   5.915   0.832   1.374  0.3845  0.1003 -0.0991
13900TIP3    H163191   5.890   0.922   1.351  1.1747  0.2728 -0.2796
13900TIP3    H263192   5.962   0.800   1.297  1.3366  0.0172  0.5130
13901TIP3   OH263193   3.763   4.032  10.591  0.7177  0.1246  0.2519
13901TIP3    H163194   3.792   4.021  10.501 -0.6000  0.3861 -0.2152
13901TIP3    H263195   3.667   4.035  10.586  0.6011 -0.3371  1.7072
13902TIP3   OH263196   3.219   4.055  11.944  0.2452  0.3460 -0.2805
13902TIP3    H163197   3.264   4.109  11.879 -0.2326  0.1572 -0.7640
13902TIP3    H263198   3.263   3.970  11.939  0.6329  0.5185  0.0986
13903TIP3   OH263199   6.413   4.466   0.004 -0.3148  0.2250 -0.0382
13903TIP3    H163200   6.471   4.405   0.050 -0.0399  0.2653 -0.3270
13903TIP3    H263201   6.350   4.495   0.070 -0.2564 -0.1375  0.1733
13904TIP3   OH263202   5.993   0.142  10.728 -0.7301 -0.3831 -0.0363
13904TIP3    H163203   5.995   0.212  10.794 -1.0441 -1.2498  0.9118
13904TIP3    H263204   6.072   0.155  10.676 -0.7595  0.6402  0.1752
13905TIP3   OH263205   4.645   0.918  13.881 -0.0408 -0.2258  0.4046
13905TIP3    H163206   4.702   0.876  13.945  0.7148  3.0700  1.9681
13905TIP3    H263207   4.704   0.970  13.826 -1.1132  0.0966 -0.4585
13906TIP3   OH263208   2.716   0.074   4.464  0.2405  0.1906  0.5389
13906TIP3    H163209   2.682   0.095   4.551  2.2426  2.7779  0.7558
13906TIP3    H263210   2.809   0.095   4.468  0.5487 -0.4271 -2.0033
13907TIP3   OH263211   4.627   0.739  16.356  0.3637  0.7393  0.1113
13907TIP3    H163212   4.679   0.762  16.279  0.6218 -1.5729 -0.4580
13907TIP3    H263213   4.557   0.683  16.321  0.0020  0.3482  1.4308
13908TIP3   OH263214   4.209   4.251  12.102  0.2657  0.3292  0.0400
13908TIP3    H163215   4.276   4.214  12.044  0.1024  2.2321 -1.4314
13908TIP3    H263216   4.142   4.182  12.109  0.2430  0.0947 -2.1362
13909TIP3   OH263217   2.085   0.623   0.369  0.3039 -0.0512  0.3885
13909TIP3    H163218   2.098   0.718   0.375  0.3047 -0.0062 -0.2978
13909TIP3    H263219   2.000   0.608   0.411 -1.1538  0.6401 -2.1989
13910TIP3   OH263220   0.727   0.475  15.299  0.1686  0.3542 -0.3477
13910TIP3    H163221   0.651   0.433  15.260  0.3348  1.8651 -2.4118
13910TIP3    H263222   0.693   0.553  15.343  0.3802  0.4391 -0.3290
13911TIP3   OH263223   2.700   1.022   1.779  0.2639  0.2063  0.1154
13911TIP3    H163224   2.620   1.062   1.744 -0.9905 -1.6428  0.8149
13911TIP3    H263225   2.761   1.096   1.788 -1.4144  1.6782 -0.2517
13912TIP3   OH263226   1.720   4.371  13.198 -0.3030  0.1706  0.0522
13912TIP3    H163227   1.750   4.282  13.215  1.9657  0.9361  0.2621
13912TIP3    H263228   1.626   4.363  13.187 -0.1270 -2.2589  0.0378
13913TIP3   OH263229   5.509   2.516  14.610 -0.8345 -0.3518 -0.3097
13913TIP3    H163230   5.542   2.559  14.689 -1.0919 -0.1088 -0.3345
13913TIP3    H263231   5.414   2.513  14.622 -0.7573 -1.5559  0.0155
13914TIP3   OH263232   0.755   1.029   0.288 -0.0137  0.2706  0.4241
13914TIP3    H163233   0.744   1.003   0.197  0.7699 -2.2347  0.9812
13914TIP3    H263234   0.666   1.041   0.321 -0.5084 -2.6880  0.3281
13915TIP3   OH263235   2.408   5.755  14.269  0.0599 -0.3398  0.1921
13915TIP3    H163236   2.347   5.682  14.254  0.0719 -0.3912  0.3843
13915TIP3    H263237   2.494   5.713  14.273  0.0015 -0.3911  0.9141
13916TIP3   OH263238   0.288   5.297   3.027 -0.0409  0.1320  0.4742
13916TIP3    H163239   0.234   5.228   3.065  0.0492  0.1148  0.5721
13916TIP3    H263240   0.227   5.366   3.004 -0.2638 -0.3836 -0.5321
13917TIP3   OH263241   3.281   0.270  14.810 -0.4181 -0.5388 -0.1165
13917TIP3    H163242   3.360   0.287  14.759 -0.5875 -1.7006 -0.7747
13917TIP3    H263243   3.308   0.285  14.901  0.5251 -0.7978 -0.3460
13918TIP3   OH263244   2.525   1.687  12.158 -0.2069 -0.3207  0.0314
13918TIP3    H163245   2.466   1.701  12.232  0.4659  2.9464  0.0586
13918TIP3    H263246   2.609   1.722  12.189  0.1073  0.9730 -2.2060
13919TIP3   OH263247   6.633   2.172   3.584  0.6603  0.4179  0.1429
13919TIP3    H163248   6.579   2.093   3.595  1.8775 -0.3334  0.7962
13919TIP3    H263249   6.679   2.181   3.667  0.1905  2.0907  0.2375
13920TIP3   OH263250   4.669   4.488  15.531 -0.6121  0.0788  0.4774
13920TIP3    H163251   4.735   4.419  15.520 -0.8710 -0.1099  0.1231
13920TIP3    H263252   4.693   4.554  15.466 -0.7975 -0.0096  0.3186
13921TIP3   OH263253   3.954   3.592  17.124  0.0248 -0.5930  0.2053
13921TIP3    H163254   3.901   3.605  17.046 -0.3653  2.5427  0.9098
13921TIP3    H263255   4.032   3.546  17.093 -1.1163 -1.3720 -1.6073
13922TIP3   OH263256   4.996   3.816  14.674 -0.5778 -0.7889 -0.4060
13922TIP3    H163257   4.902   3.835  14.671 -0.2773  0.9129  0.4484
13922TIP3    H263258   5.003   3.745  14.738 -1.4070 -1.8285 -1.4433
13923TIP3   OH263259   0.219   2.374  12.336 -0.7622 -0.2749  0.4032
13923TIP3    H163260   0.296   2.410  12.292 -2.0993 -1.2749 -2.8402
13923TIP3    H263261   0.246   2.287  12.365 -0.1524  0.0517  0.8416
13924TIP3   OH263262   5.365   5.614   0.632  0.2082 -0.3524 -0.5260
13924TIP3    H163263   5.381   5.708   0.625 -0.7385 -0.2231 -1.0080
13924TIP3    H263264   5.452   5.574   0.618  1.2251  0.5340  2.8595
13925TIP3   OH263265   6.461   0.941  12.977  0.5327 -0.0321 -0.1618
13925TIP3    H163266   6.555   0.926  12.968  0.7453 -0.2344  2.0766
13925TIP3    H263267   6.437   0.894  13.057 -1.5253 -0.2105 -0.8607
13926TIP3   OH263268   0.227   1.994   2.106  0.1827 -0.2020  0.1332
13926TIP3    H163269   0.309   1.980   2.153  0.6302 -0.3470 -0.6717
13926TIP3    H263270   0.245   2.069   2.050  1.6786 -3.5683 -4.2227
13927TIP3   OH263271   4.325   6.196   0.592  0.8115  0.8696 -0.1677
13927TIP3    H163272   4.394   6.140   0.626 -0.9866 -0.6385  1.0446
13927TIP3    H263273   4.298   6.154   0.510 -0.8092 -0.2623  0.9424
13928TIP3   OH263274   2.603   5.779   1.152  0.1780 -0.0771 -0.4677
13928TIP3    H163275   2.639   5.806   1.237 -0.6159  0.3453 -0.2617
13928TIP3    H263276   2.678   5.781   1.092  1.4703 -3.4611  0.8770
13929TIP3   OH263277   2.024   6.812  13.521 -0.1423 -0.9746  0.6880
13929TIP3    H163278   2.012   6.896  13.566  2.9085  0.6128 -1.3368
13929TIP3    H263279   2.047   6.751  13.591 -0.1982  0.3756  1.9133
13930TIP3   OH263280   6.785   6.298  13.611  0.7665  0.4114  0.3299
13930TIP3    H163281   6.862   6.330  13.566  0.3389  0.9858  0.0074
13930TIP3    H263282   6.800   6.319  13.703  0.7929  0.9123  0.2090
13931TIP3   OH263283   3.507   4.693  10.693 -0.1959  0.3585 -0.1489
13931TIP3    H163284   3.575   4.754  10.663 -0.5073  0.3175 -0.9480
13931TIP3    H263285   3.506   4.703  10.788  0.3806  0.9410 -0.2020
13932TIP3   OH263286   0.096   4.278   3.091  0.3967 -0.3513 -0.3053
13932TIP3    H163287   0.020   4.288   3.148 -0.4896 -0.1111 -1.5075
13932TIP3    H263288   0.064   4.224   3.018  1.4838 -0.5735 -0.6209
13933TIP3   OH263289   6.342   5.085   1.483  0.3734  0.0064  0.4176
13933TIP3    H163290   6.354   5.179   1.494 -1.1486  0.3666 -0.6949
13933TIP3    H263291   6.253   5.069   1.514 -0.5200 -0.5045 -2.2399
13934TIP3   OH263292   5.142   4.812  16.817 -0.2401  0.1605  0.5009
13934TIP3    H163293   5.151   4.742  16.753  0.9460  0.4628  0.3234
13934TIP3    H263294   5.228   4.817  16.860 -0.5431  0.9934  1.0362
13935TIP3   OH263295   2.587   5.503   2.397 -0.0045 -0.5718  0.6383
13935TIP3    H163296   2.515   5.566   2.392  1.1254  0.7545  0.7115
13935TIP3    H263297   2.629   5.522   2.481  1.2292 -0.4309  0.0024
13936TIP3   OH263298   2.955   0.464   0.425 -0.0195  0.8862 -0.8100
13936TIP3    H163299   2.869   0.496   0.401  1.3193  3.0460 -2.8628
13936TIP3    H263300   2.982   0.521   0.497  0.0888  0.7838 -0.7692
13937TIP3   OH263301   1.418   5.089  11.462 -0.0095  0.4209  0.6295
13937TIP3    H163302   1.334   5.117  11.426  0.0615  0.2573  0.3405
13937TIP3    H263303   1.401   5.004  11.501  0.1310  0.1791  0.1614
13938TIP3   OH263304   3.702   6.733   4.831 -0.0976 -0.1719 -0.1988
13938TIP3    H163305   3.639   6.741   4.758 -2.4423  0.6317  1.8463
13938TIP3    H263306   3.651   6.691   4.901  2.5611 -2.3402  0.5139
13939TIP3   OH263307   2.491   3.738   5.032 -0.1348  0.1002  0.7006
13939TIP3    H163308   2.444   3.691   4.963  0.2605  0.4777  0.1650
13939TIP3    H263309   2.559   3.677   5.061  0.9855  0.6633 -0.6507
13940TIP3   OH263310   4.061   5.478  11.497 -0.3066  0.5610 -0.0233
13940TIP3    H163311   4.075   5.408  11.434 -1.4451 -0.2301  0.5745
13940TIP3    H263312   4.148   5.511  11.517  0.2029 -0.3944 -0.6466
13941TIP3   OH263313   2.972   1.637   3.851  0.2756  0.0350  0.0500
13941TIP3    H163314   3.026   1.644   3.930  1.0435  0.3415 -0.4943
13941TIP3    H263315   3.002   1.709   3.795 -2.2401  1.6114  0.6347
13942TIP3   OH263316   3.172   3.032   2.517  0.4982  0.0438  0.7825
13942TIP3    H163317   3.083   3.021   2.550 -0.3453  0.9687 -1.0932
13942TIP3    H263318   3.162   3.036   2.422  2.4760  0.8055  0.5716
13943TIP3   OH263319   6.192   0.324  14.250  0.2383  0.0467 -0.4609
13943TIP3    H163320   6.174   0.268  14.175 -1.2530 -0.2510  0.0990
13943TIP3    H263321   6.138   0.288  14.320  3.0914 -0.9263  1.3581
13944TIP3   OH263322   5.674   6.405  10.147 -0.6321  0.4572  0.5653
13944TIP3    H163323   5.592   6.428  10.102 -0.0486  0.0379 -0.7461
13944TIP3    H263324   5.679   6.466  10.220 -1.5345  1.2782 -0.0384
13945TIP3   OH263325   4.424   0.995   3.142 -0.7802  0.3339  0.0209
13945TIP3    H163326   4.491   0.931   3.117 -0.2233  0.3452  1.4550
13945TIP3    H263327   4.344   0.943   3.151 -0.9405  0.2946 -1.5364
13946TIP3   OH263328   5.258   0.215   5.656  0.6944  0.3875 -0.4354
13946TIP3    H163329   5.284   0.126   5.679  2.4464  0.9399 -0.1929
13946TIP3    H263330   5.219   0.250   5.736 -1.2684 -0.5932 -0.9266
13947TIP3   OH263331   6.245   2.619  16.499  0.3273 -0.3817  0.2081
13947TIP3    H163332   6.164   2.669  16.488  1.1378  0.3243 -3.2453
13947TIP3    H263333   6.298   2.672  16.559 -0.7178  0.4999  0.3710
13948TIP3   OH263334   5.619   3.974  16.171  0.1566 -0.3487 -0.3673
13948TIP3    H163335   5.620   4.070  16.163  1.1568 -0.4977 -2.2748
13948TIP3    H263336   5.637   3.958  16.263  1.7469  1.2658 -0.3588
13949TIP3   OH263337   1.120   2.468   2.218  0.1092 -0.0163 -0.1747
13949TIP3    H163338   1.037   2.422   2.209  0.1918  0.0384 -1.3518
13949TIP3    H263339   1.107   2.527   2.292 -0.6582 -0.5184  0.0975
13950TIP3   OH263340   4.712   6.043  15.115  0.5337 -0.6076 -0.2419
13950TIP3    H163341   4.719   5.984  15.040  0.4503 -0.0336 -0.7022
13950TIP3    H263342   4.781   6.108  15.101  0.9431 -0.8666  0.5135
13951TIP3   OH263343   3.335   5.209   1.728  0.6689  0.4107 -0.0170
13951TIP3    H163344   3.245   5.224   1.757  1.0097  0.7974  0.8677
13951TIP3    H263345   3.389   5.234   1.803  1.5402  0.6294 -0.7046
13952TIP3   OH263346   3.628   0.277   0.470 -0.2031  0.4138  0.1014
13952TIP3    H163347   3.659   0.194   0.435 -0.7602 -1.0402  2.8671
13952TIP3    H263348   3.534   0.263   0.484 -0.1794  1.2515  1.1890
13953TIP3   OH263349   4.798   2.467  15.391  0.4950  0.0565  0.2184
13953TIP3    H163350   4.880   2.417  15.385  0.2687 -0.3103  0.1686
13953TIP3    H263351   4.815   2.532  15.459  1.0429  0.3894 -0.2267
13954TIP3   OH263352   1.143   1.752   5.710 -0.0166  0.2870  0.2668
13954TIP3    H163353   1.190   1.735   5.792  0.6460  1.2742  0.1125
13954TIP3    H263354   1.212   1.754   5.644 -0.4450  0.3532 -0.1744
13955TIP3   OH263355   5.897   2.716  13.462  0.9597 -0.8012 -0.4329
13955TIP3    H163356   5.854   2.632  13.443  0.7162 -0.6475 -0.5646
13955TIP3    H263357   5.826   2.773  13.490  0.9742 -0.3346 -1.3257
13956TIP3   OH263358   6.021   1.585   5.027 -0.3131  0.0614  0.3243
13956TIP3    H163359   6.020   1.676   5.055 -0.5842 -0.1089  0.8725
13956TIP3    H263360   5.957   1.581   4.956 -0.2730  0.2987  0.2730
13957TIP3   OH263361   0.417   0.803  16.658 -0.5820 -0.5073 -0.5024
13957TIP3    H163362   0.437   0.751  16.579  1.8340 -0.3257 -0.0689
13957TIP3    H263363   0.398   0.891  16.624  0.0357 -0.5325 -0.9435
13958TIP3   OH263364   2.838   1.724   4.671 -0.1087  0.0600  0.4214
13958TIP3    H163365   2.781   1.653   4.701  0.0500 -0.0139  0.5430
13958TIP3    H263366   2.797   1.804   4.706  1.3114 -0.1921  2.7417
13959TIP3   OH263367   4.401   6.409  16.582 -0.6015 -0.0094  0.2520
13959TIP3    H163368   4.459   6.433  16.654  1.4407 -2.1751 -0.6242
13959TIP3    H263369   4.376   6.319  16.601 -0.5741 -0.3737 -1.4157
13960TIP3   OH263370   3.786   3.747   6.039  0.8038 -0.8204 -0.1384
13960TIP3    H163371   3.800   3.836   6.070  1.1393 -0.5209 -1.1054
13960TIP3    H263372   3.875   3.713   6.025  0.6681 -0.8088 -1.0994
13961TIP3   OH263373   1.151   2.606  14.631 -0.0512  0.1406 -0.5445
13961TIP3    H163374   1.182   2.534  14.685  0.6560  0.8244 -0.0308
13961TIP3    H263375   1.080   2.646  14.682  0.2170  0.4162 -0.3849
13962TIP3   OH263376   3.273   1.582   5.827 -0.2090  0.3674 -0.2546
13962TIP3    H163377   3.287   1.512   5.764 -0.3393 -1.2369  1.4704
13962TIP3    H263378   3.216   1.544   5.894 -1.7496  2.6562 -0.1909
13963TIP3   OH263379   4.919   3.515   3.412  0.0640 -0.0240 -0.4602
13963TIP3    H163380   4.967   3.447   3.459 -1.5607 -0.4802  0.5889
13963TIP3    H263381   4.835   3.475   3.391 -0.2797  1.1167 -1.3079
13964TIP3   OH263382   2.362   4.676   4.799 -0.1535  0.5086  0.3692
13964TIP3    H163383   2.368   4.589   4.838 -0.5568  0.6958  0.8589
13964TIP3    H263384   2.430   4.727   4.843  0.9834  0.0872 -0.8720
13965TIP3   OH263385   2.122   4.771  12.235  0.0228  0.2953  0.4596
13965TIP3    H163386   2.065   4.734  12.168  0.0288 -0.0996  0.6688
13965TIP3    H263387   2.085   4.857  12.254  0.2617  0.5773 -0.3468
13966TIP3   OH263388   0.915   5.579  12.989 -0.4653 -0.2242 -0.3279
13966TIP3    H163389   0.946   5.615  12.906 -0.3192  0.1444 -0.1126
13966TIP3    H263390   0.889   5.655  13.040  1.8866 -0.2700  0.9779
13967TIP3   OH263391   0.261   3.914   2.230 -0.1133 -0.3558  0.0199
13967TIP3    H163392   0.281   3.851   2.161 -0.8084 -0.3472 -0.1924
13967TIP3    H263393   0.195   3.972   2.192 -0.1146 -0.0264  0.5092
13968TIP3   OH263394   1.990   1.493  15.048 -0.0956  0.3193  0.2263
13968TIP3    H163395   2.040   1.566  15.083 -0.4233  0.6049  0.1063
13968TIP3    H263396   2.045   1.457  14.978 -0.8170  1.7667 -1.1368
13969TIP3   OH263397   6.483   3.150  11.021 -0.2237 -0.2093 -0.2237
13969TIP3    H163398   6.545   3.219  11.043 -0.3864 -0.2726  0.4537
13969TIP3    H263399   6.425   3.189  10.955 -1.4535  0.9101  1.4823
13970TIP3   OH263400   0.337   0.655  12.825  0.0335 -0.9598  0.0517
13970TIP3    H163401   0.299   0.741  12.838 -0.1698 -0.8085 -1.4418
13970TIP3    H263402   0.394   0.642  12.901  0.2347  0.5803  0.1827
13971TIP3   OH263403   1.272   4.619  16.213  0.1389  0.0892 -0.3725
13971TIP3    H163404   1.256   4.551  16.148 -1.5648  0.5642 -0.4758
13971TIP3    H263405   1.313   4.574  16.287 -0.3976 -0.9169 -0.6928
13972TIP3   OH263406   5.856   5.457   2.543  0.1648  0.3925  0.4849
13972TIP3    H163407   5.896   5.541   2.521  0.1043  0.0477 -1.0106
13972TIP3    H263408   5.790   5.478   2.609  1.9576  1.1360  2.0576
13973TIP3   OH263409   4.050   1.371   3.379 -0.4169  0.1770  0.6018
13973TIP3    H163410   4.057   1.457   3.419  1.3594 -0.1854  1.1110
13973TIP3    H263411   4.114   1.372   3.308 -1.0438 -0.4048  0.0204
13974TIP3   OH263412   5.299   5.049  15.480  0.2392  0.1249 -0.3409
13974TIP3    H163413   5.204   5.046  15.494  0.0392 -1.2981 -1.8274
13974TIP3    H263414   5.312   5.006  15.396  2.2010  0.5179 -0.2638
13975TIP3   OH263415   4.064   5.439   4.553 -0.6523  0.1657 -0.6010
13975TIP3    H163416   4.097   5.422   4.641 -1.1612 -0.8012 -0.5858
13975TIP3    H263417   4.117   5.382   4.496 -1.3474 -0.3650 -0.7317
13976TIP3   OH263418   3.686   1.986  13.116 -0.4699 -0.6629  0.4784
13976TIP3    H163419   3.664   1.893  13.125 -0.8875 -0.5140  1.0598
13976TIP3    H263420   3.696   2.000  13.022 -2.4172 -0.8482  0.2264
13977TIP3   OH263421   4.808   3.255  16.866  0.6966 -0.2028 -0.0209
13977TIP3    H163422   4.734   3.233  16.922  1.2465 -0.3699  0.6453
13977TIP3    H263423   4.770   3.305  16.794  0.0832  0.6475  0.8839
13978TIP3   OH263424   0.803   4.295   2.649 -0.2517  0.1410 -0.6579
13978TIP3    H163425   0.709   4.278   2.645  0.1845 -2.1163 -2.7278
13978TIP3    H263426   0.824   4.294   2.742 -2.2630  0.6398 -0.1830
13979TIP3   OH263427   2.394   2.801   5.775 -0.0362  0.3379  0.3093
13979TIP3    H163428   2.360   2.874   5.827 -0.8181 -0.2224  0.5877
13979TIP3    H263429   2.383   2.830   5.684 -1.0031  0.2824  0.4030
13980TIP3   OH263430   3.995   4.106  16.502  0.0345 -0.5956 -0.2887
13980TIP3    H163431   3.986   4.042  16.573  0.2657 -0.7382 -0.3905
13980TIP3    H263432   4.046   4.177  16.541 -0.3821 -0.3875 -0.1249
13981TIP3   OH263433   5.114   4.776  11.479 -0.0773  0.4826 -0.1915
13981TIP3    H163434   5.032   4.732  11.458  1.3329 -1.7399 -1.2746
13981TIP3    H263435   5.094   4.832  11.554 -3.0442  1.5732 -1.7228
13982TIP3   OH263436   4.163   4.056   4.525  0.8280 -0.5406 -0.2006
13982TIP3    H163437   4.088   4.008   4.490  0.0478  0.9570 -0.6347
13982TIP3    H263438   4.223   4.065   4.451  0.5404 -0.0187 -0.3736
13983TIP3   OH263439   0.486   0.248  16.324  0.0474 -0.2609  0.3921
13983TIP3    H163440   0.502   0.270  16.415 -0.9013 -1.7663  0.9413
13983TIP3    H263441   0.395   0.273  16.308 -0.0872 -0.8949  0.1396
13984TIP3   OH263442   6.400   4.475   5.797  0.1724 -0.7446  0.1890
13984TIP3    H163443   6.421   4.568   5.799  2.1576 -1.2006  1.6713
13984TIP3    H263444   6.350   4.460   5.877  0.7758 -1.1497  0.4954
13985TIP3   OH263445   0.914   4.756  14.359 -0.4731  0.0615  0.5670
13985TIP3    H163446   0.945   4.835  14.316  0.2027 -0.7822 -0.5343
13985TIP3    H263447   0.901   4.781  14.450  2.3114  0.7561  0.8126
13986TIP3   OH263448   3.633   0.963   2.896  0.1138 -0.0638  0.3674
13986TIP3    H163449   3.721   0.999   2.892  0.0194  0.0842 -0.4845
13986TIP3    H263450   3.583   1.026   2.948 -0.1826  1.3478 -1.5626
13987TIP3   OH263451   5.087   0.285   2.315 -0.0930  0.0818  0.2557
13987TIP3    H163452   5.026   0.278   2.242 -0.8089  1.0421  0.7460
13987TIP3    H263453   5.032   0.273   2.393  0.2819  1.2984  0.7170
13988TIP3   OH263454   5.601   0.542  11.574  0.1325  0.1835 -0.3424
13988TIP3    H163455   5.535   0.607  11.552 -1.6150 -0.4238  2.6919
13988TIP3    H263456   5.558   0.458  11.556 -0.6384 -0.2673  3.0865
13989TIP3   OH263457   2.583   5.868  11.757 -0.1106 -0.4246 -0.2861
13989TIP3    H163458   2.642   5.794  11.771  0.1320 -0.0693  0.5622
13989TIP3    H263459   2.638   5.935  11.716  0.1372 -0.0143  0.6998
13990TIP3   OH263460   0.566   3.719  12.252  0.0959  0.0533  0.2846
13990TIP3    H163461   0.644   3.667  12.235  0.0695  0.1197 -0.0417
13990TIP3    H263462   0.506   3.659  12.296  0.8141  0.3526  1.7087
13991TIP3   OH263463   2.270   1.209   3.992  1.0047 -0.2339  0.1169
13991TIP3    H163464   2.361   1.232   3.973  0.8822  0.0637 -0.1263
13991TIP3    H263465   2.220   1.247   3.919  0.7581 -0.9926 -0.1090
13992TIP3   OH263466   4.006   4.091  15.350  0.3605  0.5213  0.3914
13992TIP3    H163467   4.054   4.044  15.281  0.0208  2.0359 -0.8882
13992TIP3    H263468   3.978   4.022  15.411 -0.2929 -0.9862 -1.5669
13993TIP3   OH263469   4.441   1.514   3.471 -0.1761  0.2351  0.1518
13993TIP3    H163470   4.473   1.602   3.491  0.7346 -0.0006 -0.2125
13993TIP3    H263471   4.438   1.512   3.375 -2.0458  0.5049  0.1868
13994TIP3   OH263472   4.669   2.122  14.291 -0.0751  0.1707 -0.0367
13994TIP3    H163473   4.609   2.054  14.320  0.7558 -0.0884  1.0694
13994TIP3    H263474   4.686   2.101  14.199 -1.2281 -0.0828 -0.1925
13995TIP3   OH263475   0.942   6.112   2.278  0.0798 -0.1845  0.2115
13995TIP3    H163476   1.004   6.044   2.304  0.4466  0.2900  0.6069
13995TIP3    H263477   0.889   6.072   2.209 -0.8240 -1.4117  1.6045
13996TIP3   OH263478   2.507   6.421  16.377 -0.7187 -0.3868  0.0799
13996TIP3    H163479   2.563   6.497  16.391  2.0346 -2.1424 -1.0684
13996TIP3    H263480   2.423   6.458  16.349  0.3428  2.2300  0.2394
13997TIP3   OH263481   6.390   0.463   3.082 -0.1007 -0.0656  0.7556
13997TIP3    H163482   6.446   0.443   3.156  1.2099  2.3487  0.4817
13997TIP3    H263483   6.304   0.428   3.107  0.5776 -0.2921  2.9043
13998TIP3   OH263484   4.249   2.683   3.936 -0.1269  0.5945 -0.2303
13998TIP3    H163485   4.248   2.618   3.865  1.3006  0.9931 -0.6192
13998TIP3    H263486   4.168   2.734   3.922 -1.5144 -1.3801  0.3701
13999TIP3   OH263487   6.003   6.148  12.650 -0.0763  0.4630  0.1837
13999TIP3    H163488   5.996   6.077  12.714  1.4467 -0.7359 -0.9216
13999TIP3    H263489   6.088   6.188  12.667  1.0622 -0.8778 -2.0291
14000TIP3   OH263490   5.948   2.387  11.651 -0.0768 -0.2934 -0.5517
14000TIP3    H163491   5.904   2.365  11.569 -1.2009  0.2580 -0.0967
14000TIP3    H263492   5.887   2.361  11.720  0.5329 -0.0367  0.0988
14001TIP3   OH263493   0.192   1.695  12.797 -0.9104  0.0369 -0.0018
14001TIP3    H163494   0.190   1.668  12.705 -0.0237 -0.9561  0.2683
14001TIP3    H263495   0.114   1.656  12.836 -1.4254  0.6706 -0.3807
14002TIP3   OH263496   6.209   6.707  11.127  0.2933  0.3206 -0.2299
14002TIP3    H163497   6.242   6.696  11.038 -0.6188  0.2420 -0.5625
14002TIP3    H263498   6.283   6.744  11.175  1.2666 -1.0516 -0.6552
14003TIP3   OH263499   1.186   3.038  12.370 -0.0656 -0.0741 -0.6804
14003TIP3    H163500   1.268   3.072  12.405 -0.1407  0.8918 -1.4207
14003TIP3    H263501   1.139   3.115  12.339 -0.9236 -0.6989 -0.9563
14004TIP3   OH263502   6.669   4.182  11.431  0.3313 -0.0043 -0.5601
14004TIP3    H163503   6.673   4.175  11.336  0.6803  0.7123 -0.6002
14004TIP3    H263504   6.712   4.265  11.451  2.4838 -1.3100  0.3963
14005TIP3   OH263505   6.186   2.013   5.379  0.4509  0.6673 -0.2395
14005TIP3    H163506   6.280   1.998   5.384  0.2289 -0.5335  1.0734
14005TIP3    H263507   6.165   2.062   5.459 -0.1707 -0.0100  0.0277
14006TIP3   OH263508   6.525   4.959  14.345 -0.6014 -0.0159  0.5328
14006TIP3    H163509   6.468   4.886  14.322 -2.7543  1.4973  0.9909
14006TIP3    H263510   6.605   4.917  14.377 -1.4893 -2.1608  0.0422
14007TIP3   OH263511   3.740   5.367   2.842 -0.3226  0.0893 -0.3883
14007TIP3    H163512   3.762   5.444   2.895 -0.2360 -0.9095  1.0523
14007TIP3    H263513   3.645   5.369   2.835 -0.2260  1.1439 -1.6298
14008TIP3   OH263514   3.973   1.473  14.271 -0.3052 -0.3884 -0.3492
14008TIP3    H163515   4.045   1.412  14.253 -1.0107 -1.1864 -0.5339
14008TIP3    H263516   3.954   1.512  14.185  0.5401  0.5364 -0.1174
14009TIP3   OH263517   6.283   2.546   3.870 -0.1390  0.0643 -0.0838
14009TIP3    H163518   6.276   2.514   3.960  1.1416  1.5268  0.5446
14009TIP3    H263519   6.356   2.496   3.833  1.4114  1.7236  0.6856
14010TIP3   OH263520   6.384   5.228  13.950  0.0517  0.2447  0.1629
14010TIP3    H163521   6.405   5.310  13.996  0.9209  1.1155 -1.6993
14010TIP3    H263522   6.470   5.190  13.929 -0.2888  0.3698 -1.5641
14011TIP3   OH263523   6.148   0.723  11.566 -0.4729  0.8452 -0.3748
14011TIP3    H163524   6.188   0.788  11.508  1.1320  0.0614 -0.1809
14011TIP3    H263525   6.122   0.651  11.508 -1.2306  1.1746 -0.4474
14012TIP3   OH263526   0.383   0.945  10.646 -0.1747  0.2677  0.2917
14012TIP3    H163527   0.471   0.909  10.658 -0.3229 -0.2859 -0.2265
14012TIP3    H263528   0.380   0.971  10.554 -0.2527  1.1158  0.5329
14013TIP3   OH263529   2.574   6.610   3.395  0.5915  0.4596 -0.1197
14013TIP3    H163530   2.548   6.668   3.467  1.6614  0.0200  0.6295
14013TIP3    H263531   2.669   6.616   3.393  0.7519 -1.6590  0.2859
14014TIP3   OH263532   6.738   0.485  13.162  0.2067  0.5503  0.5345
14014TIP3    H163533   6.815   0.438  13.196  0.2731  1.1481  1.2214
14014TIP3    H263534   6.664   0.445  13.207  0.1015 -0.1273 -0.2404
14015TIP3   OH263535   5.398   0.841   1.287  0.3385  0.0190  0.8854
14015TIP3    H163536   5.401   0.937   1.284  1.2817 -0.0333 -0.1022
14015TIP3    H263537   5.489   0.814   1.277  0.0604 -0.9864  1.0195
14016TIP3   OH263538   0.300   0.539  15.056 -0.0192  0.3059 -0.6483
14016TIP3    H163539   0.318   0.625  15.093 -1.3477  0.0844  0.5678
14016TIP3    H263540   0.212   0.547  15.018 -1.2676 -1.2253  1.8032
14017TIP3   OH263541   0.093   1.553  16.826 -0.0174 -0.5268  0.1374
14017TIP3    H163542   0.108   1.462  16.852  0.6033 -1.1330 -2.3132
14017TIP3    H263543   0.178   1.586  16.799 -0.8197 -0.2502 -2.1644
14018TIP3   OH263544   2.112   3.229   0.561 -0.1073  0.1546  0.0380
14018TIP3    H163545   2.184   3.227   0.498  0.0616 -3.1502  0.2613
14018TIP3    H263546   2.037   3.260   0.510  0.8082  0.8837 -0.8972
14019TIP3   OH263547   2.827   2.986   3.350 -0.2576  0.3754 -0.4183
14019TIP3    H163548   2.845   3.042   3.274 -2.2644 -0.3233 -1.4311
14019TIP3    H263549   2.854   3.039   3.425  1.0628  1.3653 -1.5583
14020TIP3   OH263550   2.606   3.777  16.369 -0.5359 -0.3285 -0.2500
14020TIP3    H163551   2.562   3.801  16.288  1.6401  1.1857 -1.0328
14020TIP3    H263552   2.579   3.843  16.432 -3.9069 -2.6976  0.9237
14021TIP3   OH263553   0.792   0.750  14.494 -0.2332 -0.1462  0.1200
14021TIP3    H163554   0.716   0.712  14.538 -0.7334  0.6831 -0.0150
14021TIP3    H263555   0.856   0.679  14.491 -1.4037 -1.1720 -0.7419
14022TIP3   OH263556   5.330   0.703   5.387  0.0574 -0.4660  0.1809
14022TIP3    H163557   5.400   0.767   5.369  0.2967 -1.0220 -0.9484
14022TIP3    H263558   5.316   0.659   5.303 -2.7728  0.7106 -0.0179
14023TIP3   OH263559   2.337   4.533   2.067  0.3888  0.1931  0.0606
14023TIP3    H163560   2.316   4.510   1.976  0.1773  0.4256  0.0488
14023TIP3    H263561   2.385   4.616   2.060  0.8140 -0.0469  0.1270
14024TIP3   OH263562   3.704   0.572   0.958 -0.5929 -0.5768 -0.1555
14024TIP3    H163563   3.646   0.620   0.899 -0.2054  0.6353  0.4245
14024TIP3    H263564   3.691   0.614   1.043  1.0988 -0.3218 -0.0063
14025TIP3   OH263565   0.966   4.109  15.812  0.0330 -0.5819  0.1774
14025TIP3    H163566   1.047   4.097  15.762 -0.6819  0.9258 -1.3803
14025TIP3    H263567   0.963   4.034  15.872  3.1649 -0.0762  1.0726
14026TIP3   OH263568   4.941   4.693   3.531  0.4131 -0.2485 -0.1843
14026TIP3    H163569   4.998   4.723   3.601 -0.8324 -0.5434  0.9735
14026TIP3    H263570   4.856   4.733   3.550 -0.4486 -1.9213 -0.4047
14027TIP3   OH263571   2.087   4.032  12.497  0.3729 -0.2323 -0.6028
14027TIP3    H163572   2.022   3.963  12.511 -0.0619  0.5517  1.4440
14027TIP3    H263573   2.070   4.063  12.409 -1.5125 -0.5978 -0.3936
14028TIP3   OH263574   3.279   3.120  10.050 -0.2953 -0.2862  0.2972
14028TIP3    H163575   3.224   3.083   9.981 -0.6906 -1.1562  1.0763
14028TIP3    H263576   3.321   3.044  10.091 -0.7891  0.1351  1.6305
14029TIP3   OH263577   2.886   3.405  15.259 -0.0542  0.2658 -0.4410
14029TIP3    H163578   2.925   3.473  15.313  0.6608 -0.1991 -0.3709
14029TIP3    H263579   2.923   3.324  15.291 -0.4681 -0.1123 -0.9046
14030TIP3   OH263580   0.331   3.639   1.621  0.9516  0.1945  0.5010
14030TIP3    H163581   0.354   3.599   1.537 -3.0279 -0.1855 -0.5157
14030TIP3    H263582   0.383   3.591   1.685  1.2718 -2.1020 -1.3808
14031TIP3   OH263583   1.828   2.333  15.847 -0.0440 -0.4622 -0.2162
14031TIP3    H163584   1.922   2.345  15.856 -0.2244  2.3271 -1.4181
14031TIP3    H263585   1.818   2.247  15.806  1.7505 -2.4444  3.2179
14032TIP3   OH263586   1.542   5.620   0.612 -0.2938  1.0098 -0.5896
14032TIP3    H163587   1.457   5.663   0.623 -0.3100  0.7077  0.4737
14032TIP3    H263588   1.550   5.561   0.686 -0.5031 -1.2690 -2.3250
14033TIP3   OH263589   5.468   3.208   5.407 -0.0448 -0.0535 -0.0879
14033TIP3    H163590   5.491   3.133   5.462 -0.8470 -0.1752  0.0868
14033TIP3    H263591   5.552   3.247   5.383  0.3821 -1.0404 -0.2237
14034TIP3   OH263592   1.889   3.552   3.453 -0.0805  0.0072  0.0726
14034TIP3    H163593   1.906   3.630   3.400  0.4702 -0.4788 -0.4743
14034TIP3    H263594   1.975   3.528   3.488 -0.2572 -0.3228  0.2783
14035TIP3   OH263595   0.604   6.031  16.308  0.6499  0.0748  0.0749
14035TIP3    H163596   0.656   5.960  16.346  1.5181 -0.0707 -1.3344
14035TIP3    H263597   0.577   6.084  16.382  1.3799 -0.8160  0.9903
14036TIP3   OH263598   2.100   4.981   4.306  0.4724 -0.0915  0.0633
14036TIP3    H163599   2.032   4.944   4.250  0.9973 -0.3047 -0.4275
14036TIP3    H263600   2.103   5.073   4.282 -0.5857  0.2171  1.0376
14037TIP3   OH263601   0.703   3.214  11.888  0.0624  0.3968  0.4336
14037TIP3    H163602   0.653   3.271  11.947  1.0851  1.4503  0.2932
14037TIP3    H263603   0.659   3.223  11.803 -0.0137  0.6747  0.5021
14038TIP3   OH263604   3.210   1.503   1.818 -0.0299 -0.4861  0.2695
14038TIP3    H163605   3.292   1.471   1.855  0.0514 -1.0101 -0.3391
14038TIP3    H263606   3.231   1.523   1.726 -0.6870 -1.0871 -0.0231
14039TIP3   OH263607   2.602   3.914   4.117  0.4597  0.7696  0.7119
14039TIP3    H163608   2.592   3.818   4.115 -1.6119  0.9947 -1.5325
14039TIP3    H263609   2.672   3.932   4.054 -0.9740  0.8936 -0.8852
14040TIP3   OH263610   2.780   6.550   2.927  0.3237 -0.0754  0.0376
14040TIP3    H163611   2.794   6.642   2.950 -0.7732 -0.1658  1.1753
14040TIP3    H263612   2.749   6.552   2.837 -0.7689  0.7788  0.4202
14041TIP3   OH263613   3.063   0.577  17.248  0.6463  0.1987  0.5617
14041TIP3    H163614   3.028   0.594  17.161  1.2743  2.2577  0.7002
14041TIP3    H263615   3.127   0.506  17.235  0.9559  0.7051 -0.6966
14042TIP3   OH263616   1.632   3.820   5.503 -0.9535  0.5817 -0.0531
14042TIP3    H163617   1.589   3.735   5.497 -2.4259  1.3223 -0.0188
14042TIP3    H263618   1.644   3.847   5.412  0.1347  0.0345 -0.0785
14043TIP3   OH263619   0.633   5.712   3.000  0.0892 -0.0020 -0.5597
14043TIP3    H163620   0.590   5.630   2.972 -0.0908 -0.6310  1.4576
14043TIP3    H263621   0.685   5.686   3.076 -1.0081  2.0202  0.9048
14044TIP3   OH263622   3.911   0.056  16.504 -0.0073 -0.2869 -0.1167
14044TIP3    H163623   4.004   0.075  16.492 -0.1082  1.2305  1.3026
14044TIP3    H263624   3.907   0.006  16.585 -0.3390 -1.1379 -0.6589
14045TIP3   OH263625   3.324   3.511   4.041 -0.3820 -0.3087 -0.3569
14045TIP3    H163626   3.301   3.442   3.979 -1.7615  0.0141 -0.2180
14045TIP3    H263627   3.328   3.591   3.989  0.0461 -0.2943 -0.3074
14046TIP3   OH263628   4.962   4.327   5.460 -0.4256  0.1067  0.5421
14046TIP3    H163629   5.042   4.277   5.442 -0.3408  0.7196 -0.8257
14046TIP3    H263630   4.891   4.269   5.432 -0.3487  0.5530 -0.5820
14047TIP3   OH263631   3.682   5.382  11.464  0.2205 -0.4353 -0.2581
14047TIP3    H163632   3.725   5.463  11.492  1.4292 -0.3856 -2.2186
14047TIP3    H263633   3.663   5.396  11.371  1.3924 -2.8248 -0.8710
14048TIP3   OH263634   1.121   6.202  15.636  0.4420  0.4752 -0.3672
14048TIP3    H163635   1.148   6.149  15.711 -0.6465 -1.3455 -1.2233
14048TIP3    H263636   1.097   6.287  15.674 -1.5434 -0.8922  1.5874
14049TIP3   OH263637   6.002   1.662  16.181 -0.3906  0.2331  0.3765
14049TIP3    H163638   5.998   1.733  16.117 -3.1227 -0.4518 -0.2628
14049TIP3    H263639   6.084   1.618  16.161  1.9251  3.8065  1.4863
14050TIP3   OH263640   4.240   4.263  10.942 -0.1408  0.6494  0.3169
14050TIP3    H163641   4.194   4.316  10.877  0.2038  2.9702  1.9118
14050TIP3    H263642   4.252   4.178  10.899 -0.1513  2.0375 -2.5479
14051TIP3   OH263643   4.543   0.947   0.102 -0.0134 -0.0495  0.0008
14051TIP3    H163644   4.452   0.966   0.080  0.2758 -0.6022 -1.7806
14051TIP3    H263645   4.587   0.942   0.017  2.2135  2.8525  0.8974
14052TIP3   OH263646   5.921   3.015   2.269  0.0488  0.3461 -0.4566
14052TIP3    H163647   5.988   2.952   2.242  0.1138  0.4550 -0.5479
14052TIP3    H263648   5.872   3.033   2.189 -0.4793 -0.2008 -0.2702
14053TIP3   OH263649   1.953   1.177  13.150 -0.2223 -0.7269 -0.1855
14053TIP3    H163650   1.871   1.185  13.198 -0.4316 -0.1378 -0.6364
14053TIP3    H263651   1.930   1.131  13.070 -0.3100  0.3426 -0.7856
14054TIP3   OH263652   5.431   5.112   4.020 -0.2237 -0.2587 -0.2540
14054TIP3    H163653   5.421   5.071   4.106 -0.1475 -0.7244 -0.4676
14054TIP3    H263654   5.444   5.205   4.039 -0.1727 -0.3663  0.2399
14055TIP3   OH263655   1.858   3.373   4.952  0.2344 -0.4026  0.4038
14055TIP3    H163656   1.922   3.307   4.924 -0.2022 -0.8812  0.5380
14055TIP3    H263657   1.780   3.323   4.974 -0.1503  0.1774  0.3566
14056TIP3   OH263658   1.598   2.293   4.014  0.6561 -0.2600 -0.1773
14056TIP3    H163659   1.516   2.253   3.988  0.9582 -2.5267  2.2004
14056TIP3    H263660   1.575   2.354   4.084  0.9995 -1.0253  0.6132
14057TIP3   OH263661   1.872   6.196  13.902  0.1160 -0.4788 -0.0124
14057TIP3    H163662   1.882   6.169  13.811 -1.3467 -0.6540 -0.1230
14057TIP3    H263663   1.952   6.165  13.945  1.3224  0.5873 -1.4568
14058TIP3   OH263664   0.214   5.850  16.430  0.0547 -0.3881  0.0456
14058TIP3    H163665   0.148   5.895  16.483  0.7131  0.6622 -0.0135
14058TIP3    H263666   0.246   5.779  16.487  0.5483  0.5548  0.9605
14059TIP3   OH263667   0.415   3.603   0.254  0.4029  0.0598  0.3019
14059TIP3    H163668   0.429   3.508   0.248  1.4344  0.1556  0.9753
14059TIP3    H263669   0.467   3.639   0.182 -1.5060 -0.0046 -1.1340
14060TIP3   OH263670   4.109   2.823  15.077 -0.5389 -0.1044 -0.3223
14060TIP3    H163671   4.162   2.779  15.143 -1.4518 -1.7045 -0.6313
14060TIP3    H263672   4.170   2.836  15.003 -0.1832 -0.6035 -0.1214
14061TIP3   OH263673   3.427   2.436  16.567  0.0140  0.2933  0.6001
14061TIP3    H163674   3.453   2.524  16.539 -0.6519  0.4186  0.3673
14061TIP3    H263675   3.438   2.435  16.662 -1.2743  1.0744  0.7744
14062TIP3   OH263676   5.176   3.846   1.711 -0.0943 -0.2500  0.0299
14062TIP3    H163677   5.216   3.865   1.796  1.0908 -1.2841 -0.2674
14062TIP3    H263678   5.235   3.886   1.647 -0.2951 -0.5572 -0.3507
14063TIP3   OH263679   2.219   1.966   1.251 -0.2597 -0.4808 -0.3166
14063TIP3    H163680   2.269   1.967   1.169 -0.7408 -1.9186 -0.6409
14063TIP3    H263681   2.285   1.979   1.319 -0.0870  2.7243 -0.9964
14064TIP3   OH263682   4.611   3.306  15.380  0.4490 -0.3688 -0.1180
14064TIP3    H163683   4.516   3.316  15.379  0.3796 -1.0676 -1.5557
14064TIP3    H263684   4.641   3.352  15.301  1.3912  0.6511  0.8239
14065TIP3   OH263685   5.312   3.355  14.203 -0.6683  0.0219  0.1800
14065TIP3    H163686   5.228   3.391  14.174 -0.0949  1.0088 -0.2966
14065TIP3    H263687   5.289   3.288  14.267 -1.7995  0.5343  0.3186
14066TIP3   OH263688   0.547   0.502   4.911 -0.4413 -0.3686  0.2555
14066TIP3    H163689   0.490   0.428   4.934 -0.2834 -1.0797 -1.5402
14066TIP3    H263690   0.624   0.490   4.966 -0.0705 -2.0233 -0.5755
14067TIP3   OH263691   5.508   6.181   5.180  0.2761  0.3644  0.4260
14067TIP3    H163692   5.543   6.225   5.258  2.9533  1.3842 -1.2666
14067TIP3    H263693   5.546   6.094   5.183 -0.3930  0.0794  0.7440
14068TIP3   OH263694   2.403   0.695  11.775  0.3814  0.6630 -0.4851
14068TIP3    H163695   2.346   0.621  11.758  0.4911  0.7957 -1.4176
14068TIP3    H263696   2.372   0.731  11.858 -0.5401  0.4061 -0.7184
14069TIP3   OH263697   0.821   0.437  15.669 -0.1769  0.6525  0.1866
14069TIP3    H163698   0.825   0.451  15.575  0.0616  1.2338  0.2740
14069TIP3    H263699   0.738   0.392  15.684 -1.0560  2.1326 -0.1210
14070TIP3   OH263700   2.777   5.396  16.427 -0.0098  0.0588 -0.1581
14070TIP3    H163701   2.859   5.436  16.455  0.2879 -0.5758 -0.1078
14070TIP3    H263702   2.721   5.399  16.504  0.8865 -1.8901  0.5841
14071TIP3   OH263703   4.815   4.535   1.200 -0.3828  0.0677  0.1429
14071TIP3    H163704   4.746   4.515   1.137 -1.4681  0.4111  1.2045
14071TIP3    H263705   4.772   4.589   1.267  0.3287 -1.6371  2.0391
14072TIP3   OH263706   1.118   6.817  13.784  0.3032  0.1210 -0.4329
14072TIP3    H163707   1.092   6.771  13.705 -0.7433  1.1218 -0.6951
14072TIP3    H263708   1.126   6.748  13.851  0.6036 -0.6479 -1.2575
14073TIP3   OH263709   3.078   1.490  15.023 -0.0594  0.1594  0.1725
14073TIP3    H163710   2.993   1.477  14.981  0.8175 -0.1868 -1.5643
14073TIP3    H263711   3.108   1.575  14.991  1.2085 -0.7038 -0.9616
14074TIP3   OH263712   2.666   3.620  11.999 -0.2760  0.0561  0.0413
14074TIP3    H163713   2.682   3.701  12.046 -0.4532  0.5323 -0.7054
14074TIP3    H263714   2.749   3.573  12.000 -0.0861  0.4012  0.1867
14075TIP3   OH263715   1.824   0.685   5.594 -0.0378  0.3674  0.6671
14075TIP3    H163716   1.873   0.740   5.654 -0.7337  0.4573  1.1607
14075TIP3    H263717   1.805   0.605   5.645  0.6399 -0.1681  0.0846
14076TIP3   OH263718   6.283   1.332   0.870 -0.4222 -0.0446 -0.4464
14076TIP3    H163719   6.340   1.292   0.804  0.2563  1.2735 -0.6687
14076TIP3    H263720   6.286   1.271   0.944 -0.3713 -1.0142 -1.2297
14077TIP3   OH263721   3.754   4.329   2.922 -0.5163 -1.0837  0.2411
14077TIP3    H163722   3.791   4.401   2.973 -0.4786 -0.9741  0.0592
14077TIP3    H263723   3.659   4.337   2.935 -0.3962 -2.4122  2.1243
14078TIP3   OH263724   0.910   2.879   5.908  0.6275  0.1405  0.1328
14078TIP3    H163725   0.952   2.843   5.986 -0.0896  1.7720  1.2905
14078TIP3    H263726   0.816   2.870   5.924  0.4822 -0.1572 -0.8487
14079TIP3   OH263727   3.523   6.166   6.291 -0.0262 -0.0533  0.1909
14079TIP3    H163728   3.564   6.200   6.211  0.9105  1.9199  1.4790
14079TIP3    H263729   3.494   6.077   6.267  0.8476  0.2481 -2.1214
14080TIP3   OH263730   4.775   0.017  16.159 -0.0769 -0.2902  0.4142
14080TIP3    H163731   4.830   0.066  16.098 -1.5175  0.3222 -0.4167
14080TIP3    H263732   4.686   0.047  16.140 -0.5236  0.2483  3.1221
14081TIP3   OH263733   5.974   5.838  16.829 -0.0197  0.5850  0.5870
14081TIP3    H163734   5.879   5.841  16.838 -0.0362 -1.0095  1.0549
14081TIP3    H263735   5.997   5.921  16.788 -1.6669  0.7559 -0.0163
14082TIP3   OH263736   5.144   4.737  17.209  0.0516 -0.3477  0.1228
14082TIP3    H163737   5.174   4.648  17.190 -0.5740 -1.2414  3.0660
14082TIP3    H263738   5.213   4.775  17.264 -0.6891  0.2165  0.6851
14083TIP3   OH263739   2.139   3.335   0.840  0.1468  0.1223 -0.5705
14083TIP3    H163740   2.133   3.321   0.746  1.2523  0.9001 -0.7604
14083TIP3    H263741   2.092   3.417   0.856 -3.0580 -1.7300  0.0460
14084TIP3   OH263742   5.552   0.750  12.175  0.1882 -0.3953  0.1822
14084TIP3    H163743   5.493   0.793  12.237  0.8638 -0.1834  0.6832
14084TIP3    H263744   5.583   0.672  12.221 -0.6399 -1.1515 -0.5378
14085TIP3   OH263745   1.341   1.227  15.888 -0.4180  0.0279 -0.3963
14085TIP3    H163746   1.259   1.194  15.851 -1.2033  1.3042  0.1477
14085TIP3    H263747   1.377   1.153  15.937 -1.9930 -0.1312  0.5515
14086TIP3   OH263748   4.634   1.875   1.176  0.4210  0.1287  0.7301
14086TIP3    H163749   4.540   1.885   1.163  0.2161  0.0532  2.0437
14086TIP3    H263750   4.658   1.798   1.125 -0.1782  0.3079  0.1744
14087TIP3   OH263751   4.878   3.095   0.585 -0.1987 -0.5720 -0.2421
14087TIP3    H163752   4.894   3.167   0.524 -0.7878 -1.0058 -0.9216
14087TIP3    H263753   4.824   3.133   0.654 -1.6348 -0.6911 -1.2983
14088TIP3   OH263754   5.539   0.697  13.517  0.0920 -0.0164  0.5564
14088TIP3    H163755   5.559   0.603  13.514 -0.4428 -0.1804  1.7840
14088TIP3    H263756   5.444   0.700  13.531  0.1121  0.7154  0.5581
14089TIP3   OH263757   1.214   5.037  14.197 -0.3513  0.1739  0.4438
14089TIP3    H163758   1.251   5.042  14.285 -0.9616  0.8561  0.6698
14089TIP3    H263759   1.145   5.103  14.197 -3.0634 -2.5873  0.7080
14090TIP3   OH263760   5.900   5.788  13.018 -0.3302  0.0876  0.6619
14090TIP3    H163761   5.806   5.789  13.035 -0.7662 -0.8755 -1.4278
14090TIP3    H263762   5.911   5.722  12.950  1.7703  0.7487  0.3063
14091TIP3   OH263763   2.200   1.969  10.996 -0.2299 -0.5224 -0.1510
14091TIP3    H163764   2.271   1.941  11.054  0.6849  1.1311 -0.4167
14091TIP3    H263765   2.170   1.889  10.954  3.1389 -0.9765 -1.8787
14092TIP3   OH263766   5.960   3.976  14.478 -0.3190  0.0923  0.1905
14092TIP3    H163767   6.011   4.022  14.545  0.6963 -1.0861  0.2490
14092TIP3    H263768   6.007   3.893  14.465 -2.0551 -0.8918  0.0223
14093TIP3   OH263769   2.141   4.552   4.336 -0.1487  0.3234  0.0690
14093TIP3    H163770   2.114   4.638   4.370 -0.8171  0.8713 -1.7825
14093TIP3    H263771   2.182   4.509   4.410  1.7153  2.8941  0.6084
14094TIP3   OH263772   5.859   0.672  11.861 -0.1169 -0.0615 -0.1310
14094TIP3    H163773   5.852   0.751  11.807 -1.3074 -0.0422  0.0419
14094TIP3    H263774   5.917   0.614  11.812 -0.2580  0.4178 -0.8707
14095TIP3   OH263775   1.416   5.654  14.403  0.2747 -0.1410  0.7083
14095TIP3    H163776   1.488   5.643  14.341  0.0114 -2.3406  0.7673
14095TIP3    H263777   1.457   5.645  14.489  0.4205  1.6647  0.8600
14096TIP3   OH263778   0.640   0.370   0.154  1.1809 -0.1337 -0.5640
14096TIP3    H163779   0.717   0.394   0.103  0.1013  0.9791 -1.7226
14096TIP3    H263780   0.574   0.437   0.130  0.1604 -0.5354  1.0755
14097TIP3   OH263781   1.218   4.503  13.861  0.2261  0.2145 -0.2280
14097TIP3    H163782   1.175   4.580  13.824 -0.4264 -0.4143 -0.7944
14097TIP3    H263783   1.157   4.471  13.927  0.0901 -0.3352 -0.6175
14098TIP3   OH263784   6.695   5.381   0.968  0.3156 -0.0370  0.0455
14098TIP3    H163785   6.708   5.365   1.062  0.6551  0.6962  0.1275
14098TIP3    H263786   6.708   5.296   0.927  1.8596 -0.0305  0.4905
14099TIP3   OH263787   1.144   5.868   5.679  0.0921  0.4974 -0.6113
14099TIP3    H163788   1.216   5.864   5.741 -0.8348  1.5755  0.5584
14099TIP3    H263789   1.183   5.845   5.595  1.8975  1.6010 -0.0876
14100TIP3   OH263790   3.498   1.833   5.003  0.3776 -0.0800  0.0998
14100TIP3    H163791   3.544   1.893   5.062  1.6264  1.5382 -2.4266
14100TIP3    H263792   3.410   1.869   4.996  0.8164  0.8923 -0.5695
14101TIP3   OH263793   6.667   3.491   4.032  0.4511  0.7338  0.0293
14101TIP3    H163794   6.614   3.553   3.982 -0.2747  0.1745  0.1130
14101TIP3    H263795   6.619   3.478   4.114 -0.9375 -2.2662 -1.2253
14102TIP3   OH263796   5.279   1.725  12.348 -0.1322 -0.5465  0.4162
14102TIP3    H163797   5.333   1.786  12.398 -2.0450  0.8591  0.8234
14102TIP3    H263798   5.223   1.780  12.295  1.1202 -2.0132 -2.5533
14103TIP3   OH263799   4.086   2.137  14.202 -0.5123  0.1840 -0.6552
14103TIP3    H163800   4.082   2.104  14.291  1.5278  0.6556 -0.3522
14103TIP3    H263801   4.079   2.232  14.210  0.0544  0.2571 -0.9530
14104TIP3   OH263802   0.457   3.991  13.562 -0.3533  0.1251 -0.1834
14104TIP3    H163803   0.484   3.904  13.591 -1.0075  0.2156  0.7341
14104TIP3    H263804   0.363   3.984  13.547 -0.3730  0.6193 -0.3113
14105TIP3   OH263805   3.304   0.319  13.841  0.0876 -0.2396 -0.5379
14105TIP3    H163806   3.251   0.239  13.844 -0.4092  0.0956 -0.0165
14105TIP3    H263807   3.239   0.389  13.829  0.3101  0.2668  1.1072
14106TIP3   OH263808   0.240   6.048   4.705 -0.0039  0.0918 -0.2704
14106TIP3    H163809   0.297   6.063   4.630 -0.2359 -0.5157 -0.5718
14106TIP3    H263810   0.285   6.090   4.778  0.5599  0.0881 -0.6142
14107TIP3   OH263811   6.540   0.572  12.530 -0.0282 -0.0035 -0.3147
14107TIP3    H163812   6.451   0.605  12.540  0.3010  0.8458 -0.1124
14107TIP3    H263813   6.574   0.617  12.453  0.4284  0.1262 -0.0365
14108TIP3   OH263814   0.874   4.123   4.503 -0.3219 -0.2280 -0.8068
14108TIP3    H163815   0.888   4.199   4.560  1.1417  0.1278 -1.6215
14108TIP3    H263816   0.798   4.078   4.542  0.6851 -0.0455  1.4699
14109TIP3   OH263817   3.626   2.809  15.654 -0.4057 -0.3908 -0.1707
14109TIP3    H163818   3.618   2.833  15.746  0.0283 -0.8394 -0.0140
14109TIP3    H263819   3.710   2.846  15.627 -1.0908  0.7874 -0.7159
14110TIP3   OH263820   2.470   2.779   0.780  1.2267  0.2669  0.8294
14110TIP3    H163821   2.540   2.713   0.773  1.1329  0.2616 -0.1333
14110TIP3    H263822   2.470   2.823   0.695 -0.8702 -0.6734  0.3066
14111TIP3   OH263823   4.272   3.549   1.122 -0.3402 -0.2825  0.0873
14111TIP3    H163824   4.348   3.562   1.179 -1.4529  2.0848  1.0832
14111TIP3    H263825   4.294   3.597   1.042 -0.4351 -0.2657  0.0716
14112TIP3   OH263826   1.165   4.674  10.964  0.0897 -0.6559  0.2606
14112TIP3    H163827   1.070   4.683  10.960  0.0577 -0.4390  1.3813
14112TIP3    H263828   1.180   4.603  11.027  0.6605 -0.9629 -0.2123
14113TIP3   OH263829   2.260   6.199   4.462  0.5148  0.4020  0.0614
14113TIP3    H163830   2.311   6.173   4.539  0.7536  2.4837  0.6234
14113TIP3    H263831   2.169   6.189   4.489  0.6007  0.8512  0.5115
14114TIP3   OH263832   3.548   5.894  11.993  0.3534 -0.1948 -0.5076
14114TIP3    H163833   3.549   5.987  11.968 -0.2902 -0.1692 -0.4590
14114TIP3    H263834   3.457   5.868  11.983  0.0848 -0.2277  1.6343
14115TIP3   OH263835   5.904   2.044   4.809  0.1042 -0.2714  0.2190
14115TIP3    H163836   5.873   2.132   4.832 -3.3922 -1.5974  0.8744
14115TIP3    H263837   5.915   2.000   4.893 -1.4024 -1.4523 -0.1745
14116TIP3   OH263838   3.435   6.404   0.247 -0.6046  0.5171 -0.6160
14116TIP3    H163839   3.439   6.500   0.248  0.7746  0.4593  1.6666
14116TIP3    H263840   3.415   6.380   0.338  2.8208 -1.4780 -0.3364
14117TIP3   OH263841   4.220   2.661   5.248 -1.0101  0.0617  0.1077
14117TIP3    H163842   4.278   2.612   5.190 -1.9629  0.7825 -1.4694
14117TIP3    H263843   4.161   2.594   5.283 -0.2028 -0.4345  0.5611
14118TIP3   OH263844   0.699   0.810  13.201 -0.1058  0.6497 -0.0625
14118TIP3    H163845   0.773   0.749  13.198 -3.0308 -3.0256 -0.9038
14118TIP3    H263846   0.737   0.895  13.179  3.6948 -1.2853 -1.4164
14119TIP3   OH263847   1.578   1.575  12.890 -0.2681 -0.1474 -0.1646
14119TIP3    H163848   1.641   1.556  12.820  0.7403 -1.3537  1.0417
14119TIP3    H263849   1.626   1.557  12.971 -1.4768  1.0714  0.8422
14120TIP3   OH263850   6.137   4.954  17.214  0.3354  0.6221 -0.0569
14120TIP3    H163851   6.143   4.983  17.123 -0.1784 -0.2014 -0.3493
14120TIP3    H263852   6.213   4.995  17.257  2.0389 -1.0259 -1.4078
14121TIP3   OH263853   2.395   0.825  13.494 -0.0865 -0.2990 -0.0907
14121TIP3    H163854   2.452   0.828  13.571 -0.5998  0.4641  0.2664
14121TIP3    H263855   2.321   0.771  13.521 -0.3252  0.0670  0.0027
14122TIP3   OH263856   0.933   0.607   0.862  0.0554 -0.0974 -0.1953
14122TIP3    H163857   0.968   0.540   0.803 -0.7128 -0.5431 -0.1494
14122TIP3    H263858   0.900   0.675   0.804  1.0868  0.3722 -0.2372
14123TIP3   OH263859   0.639   0.735   3.125 -0.1761  0.1742  0.4261
14123TIP3    H163860   0.586   0.692   3.192  1.0856 -1.1436  0.6030
14123TIP3    H263861   0.593   0.817   3.107 -0.7495  0.3560  2.6013
14124TIP3   OH263862   1.267   4.226  17.160 -0.2813 -0.2700 -0.2569
14124TIP3    H163863   1.336   4.222  17.094 -1.2207 -0.3224 -1.2487
14124TIP3    H263864   1.252   4.320  17.173 -0.9444 -0.2648 -1.0249
14125TIP3   OH263865   6.556   6.096   2.995 -0.0836  0.3920  0.2204
14125TIP3    H163866   6.592   6.141   2.919  1.8059  1.1193  1.4943
14125TIP3    H263867   6.626   6.037   3.023 -0.3957  0.7760  1.8788
14126TIP3   OH263868   1.494   6.112   0.083 -0.3439  0.3143  0.0271
14126TIP3    H163869   1.495   6.016   0.087 -1.3567  0.2679 -0.5644
14126TIP3    H263870   1.476   6.131  -0.009  1.4312  1.0952 -0.1768
14127TIP3   OH263871   0.346   6.163   2.721  0.6721 -0.2582  0.2356
14127TIP3    H163872   0.287   6.104   2.674  1.6041 -1.1896  0.2113
14127TIP3    H263873   0.289   6.219   2.774 -0.5817  2.1158 -3.4055
14128TIP3   OH263874   4.066   0.725   2.675  0.7075 -0.4092 -0.2648
14128TIP3    H163875   4.159   0.717   2.653  1.1192  0.0958  1.1817
14128TIP3    H263876   4.019   0.703   2.595  2.0518 -2.0663 -0.6048
14129TIP3   OH263877   2.681   5.695   0.127  0.4622 -0.2785 -0.1374
14129TIP3    H163878   2.750   5.669   0.188  0.5457  0.2880  0.0084
14129TIP3    H263879   2.599   5.678   0.174  0.5217 -0.0799  0.0362
14130TIP3   OH263880   0.483   5.491  16.151 -0.4160  0.1885 -0.3129
14130TIP3    H163881   0.556   5.448  16.107 -1.3887 -1.8165 -0.0427
14130TIP3    H263882   0.406   5.464  16.100 -1.3178 -0.4751  1.3836
14131TIP3   OH263883   2.335   5.775   1.883 -0.0717 -0.3570 -0.1031
14131TIP3    H163884   2.335   5.748   1.974  0.2248  1.5275  0.4687
14131TIP3    H263885   2.283   5.856   1.881  0.8882  0.2636 -1.3880
14132TIP3   OH263886   5.409   5.075  12.569 -0.7704 -0.0856  0.3198
14132TIP3    H163887   5.359   5.154  12.549  2.8591  2.6493  1.4830
14132TIP3    H263888   5.380   5.050  12.657 -0.7661  0.9685  0.6306
14133TIP3   OH263889   3.880   5.461   4.866  0.3964  0.2719  0.6714
14133TIP3    H163890   3.858   5.535   4.810  1.7672  1.0019  1.0524
14133TIP3    H263891   3.847   5.485   4.952 -0.3078 -0.1375  0.5127
14134TIP3   OH263892   3.894   6.336  16.325 -0.1554 -0.1937  0.2846
14134TIP3    H163893   3.913   6.258  16.378 -1.2058 -1.3572 -1.0153
14134TIP3    H263894   3.970   6.344  16.267  0.0403 -0.1349  0.5472
14135TIP3   OH263895   4.253   5.436   1.840 -0.0649 -0.1804 -0.0988
14135TIP3    H163896   4.289   5.377   1.906 -0.1198  0.0429  0.1303
14135TIP3    H263897   4.316   5.508   1.835  0.2620 -0.5099 -0.7463
14136TIP3   OH263898   5.000   3.697  13.706  0.2240 -0.2577  0.0349
14136TIP3    H163899   5.033   3.625  13.652  0.8448 -0.0439  0.1221
14136TIP3    H263900   4.917   3.722  13.665 -0.2590 -1.3829  0.3263
14137TIP3   OH263901   4.444   1.274   2.821  0.1657  0.1169 -0.0519
14137TIP3    H163902   4.510   1.259   2.889  1.5262 -1.1624 -1.6188
14137TIP3    H263903   4.370   1.312   2.868  1.3384 -0.0898  2.0370
14138TIP3   OH263904   2.763   5.984  16.418  0.3855 -0.0246  0.5494
14138TIP3    H163905   2.845   6.002  16.466  1.1220 -1.0624 -0.3002
14138TIP3    H263906   2.760   5.889  16.412  0.1019  0.0787 -1.1196
14139TIP3   OH263907   3.235   1.964  14.292  0.2953  0.1822  0.2114
14139TIP3    H163908   3.221   1.975  14.386  3.5975  0.0428  0.7880
14139TIP3    H263909   3.280   1.880  14.284 -1.2670 -0.5074 -1.6681
14140TIP3   OH263910   0.170   3.911  13.193  0.4380  0.7463 -0.5461
14140TIP3    H163911   0.128   3.847  13.135 -1.0304  1.5863 -0.4258
14140TIP3    H263912   0.264   3.897  13.179  0.1136  0.3282 -2.4684
14141TIP3   OH263913   2.106   6.604   3.244  0.6770  0.0160 -0.5637
14141TIP3    H163914   2.175   6.559   3.293  0.2962 -0.7346 -0.7130
14141TIP3    H263915   2.054   6.534   3.205 -1.5177  0.4903  1.3641
14142TIP3   OH263916   5.019   4.837   4.937 -0.5505 -0.1319  0.4947
14142TIP3    H163917   5.017   4.864   5.029  1.9656 -0.9218  0.8176
14142TIP3    H263918   5.093   4.777   4.932  0.3010  1.0969 -2.3634
14143TIP3   OH263919   2.139   0.911  14.218 -0.2758 -0.0585  0.1500
14143TIP3    H163920   2.158   0.893  14.126  1.9223 -2.0904  0.9652
14143TIP3    H263921   2.072   0.846  14.242  0.1594 -0.4297  0.3564
14144TIP3   OH263922   0.412   1.354   0.692 -0.0535  0.0411 -0.0586
14144TIP3    H163923   0.462   1.406   0.755 -0.2781  0.0403  0.1198
14144TIP3    H263924   0.328   1.337   0.735 -0.5201  0.7361 -0.6939
14145TIP3   OH263925   1.032   2.567   0.086  0.3369  0.1019  0.2838
14145TIP3    H163926   1.119   2.530   0.103  0.0168 -1.1962 -0.8480
14145TIP3    H263927   0.984   2.552   0.167  0.8780 -0.0005  0.5930
14146TIP3   OH263928   6.705   4.113   5.549 -0.2906  0.2603  0.1229
14146TIP3    H163929   6.794   4.135   5.523 -0.8862  2.9377  0.1651
14146TIP3    H263930   6.669   4.196   5.582 -2.5577 -0.9405  0.7551
14147TIP3   OH263931   4.413   3.764  10.718 -0.7040 -0.2567  0.1396
14147TIP3    H163932   4.340   3.709  10.689  0.2071 -1.5521  0.2837
14147TIP3    H263933   4.474   3.765  10.644 -1.7130  2.4052 -0.7243
14148TIP3   OH263934   3.845   1.772   0.279  0.1645  0.3154 -0.0033
14148TIP3    H163935   3.924   1.719   0.284 -0.8141 -1.3900 -1.7473
14148TIP3    H263936   3.858   1.827   0.202 -0.4518 -0.2110 -0.4965
14149TIP3   OH263937   2.611   6.239   2.516  0.2326 -0.5496 -0.1242
14149TIP3    H163938   2.637   6.148   2.525  0.2495 -0.6844 -1.4438
14149TIP3    H263939   2.614   6.256   2.421 -0.8548  0.4883  0.0103
14150TIP3   OH263940   2.498   6.642   5.358 -0.0612 -0.2482  0.0463
14150TIP3    H163941   2.551   6.721   5.363 -1.9499  1.1893 -1.6157
14150TIP3    H263942   2.544   6.578   5.413  2.8233  1.2189 -0.5652
14151TIP3   OH263943   4.793   1.510   1.313 -0.0369 -0.3883 -0.0301
14151TIP3    H163944   4.863   1.496   1.378  0.1198  1.8569  0.3297
14151TIP3    H263945   4.834   1.490   1.229  0.2372 -1.7235  0.4061
14152TIP3   OH263946   1.594   5.653   2.388 -0.0081 -0.3249 -0.2427
14152TIP3    H163947   1.501   5.660   2.367  0.0990  2.0024 -0.0915
14152TIP3    H263948   1.604   5.702   2.469  1.0892 -1.9219  0.5975
14153TIP3   OH263949   1.328   3.711  16.043 -0.1422 -0.5460 -0.4659
14153TIP3    H163950   1.236   3.685  16.036 -0.4848  0.9381 -1.7682
14153TIP3    H263951   1.340   3.776  15.974  2.3008 -1.8734 -1.3461
14154TIP3   OH263952   3.695   1.114  14.849  0.1421 -0.0338 -0.1261
14154TIP3    H163953   3.744   1.102  14.768  0.6841 -0.1749  0.2156
14154TIP3    H263954   3.762   1.109  14.918 -0.1117  1.5346  0.2369
14155TIP3   OH263955   3.754   4.101  14.686 -0.7404  0.2483  0.0350
14155TIP3    H163956   3.782   4.137  14.602 -1.9452 -1.9070 -1.3330
14155TIP3    H263957   3.661   4.120  14.691 -1.1860 -1.7114 -0.2526
14156TIP3   OH263958   5.776   2.352   0.989 -0.4396  0.1454  0.5103
14156TIP3    H163959   5.729   2.285   0.938 -1.6997  1.8918 -0.6716
14156TIP3    H263960   5.868   2.328   0.978 -0.6715  0.3496 -2.5167
14157TIP3   OH263961   4.338   1.511  10.081  0.4362 -0.0378  0.8508
14157TIP3    H163962   4.306   1.427  10.049  0.2423  0.4086 -0.1358
14157TIP3    H263963   4.260   1.557  10.111  0.4278  0.1577  0.5296
14158TIP3   OH263964   4.917   6.759   2.815 -0.2926 -0.3413 -0.5313
14158TIP3    H163965   4.972   6.686   2.842 -1.1818 -1.1581 -0.9154
14158TIP3    H263966   4.928   6.765   2.720 -0.2023  0.0431 -0.4985
14159TIP3   OH263967   6.069   0.454  11.521 -0.2553 -0.2482  0.6874
14159TIP3    H163968   6.121   0.380  11.489  0.8775  0.6914  0.2940
14159TIP3    H263969   5.985   0.416  11.545  0.7356 -1.8770  1.7009
14160TIP3   OH263970   2.629   1.505  13.543 -0.2438 -0.6664 -0.2730
14160TIP3    H163971   2.708   1.539  13.502 -0.4229  1.5225  1.1456
14160TIP3    H263972   2.576   1.582  13.563 -1.5576 -1.8951  1.1802
14161TIP3   OH263973   5.797   1.362   3.279 -0.3724 -0.0310 -0.2023
14161TIP3    H163974   5.815   1.302   3.351  1.2502  0.4928 -0.1498
14161TIP3    H263975   5.883   1.396   3.254 -1.2587  2.2649 -0.2459
14162TIP3   OH263976   2.570   0.202   4.269  0.3459 -0.1751  0.3387
14162TIP3    H163977   2.504   0.134   4.253  0.1231  0.2568 -0.6640
14162TIP3    H263978   2.612   0.177   4.351 -1.9957  0.2819  1.7325
14163TIP3   OH263979   3.521   2.976  12.188 -0.8605 -0.4829 -0.2405
14163TIP3    H163980   3.490   2.888  12.211  0.4422 -0.9386 -0.2082
14163TIP3    H263981   3.604   2.962  12.143  0.1560  0.8264  1.1793
14164TIP3   OH263982   2.961   2.087   3.588  0.2387 -0.0892 -0.2796
14164TIP3    H163983   2.893   2.138   3.544  0.9648  1.8104  0.7363
14164TIP3    H263984   3.032   2.082   3.525  0.4624  0.8366 -0.1097
14165TIP3   OH263985   2.205   0.938   3.268  0.2589  1.0880  0.3639
14165TIP3    H163986   2.273   0.934   3.335 -0.9556  1.6705  1.6630
14165TIP3    H263987   2.222   0.863   3.211  0.9464  0.2304  1.6851
14166TIP3   OH263988   3.778   3.731   0.669 -0.1563 -0.1626  0.5280
14166TIP3    H163989   3.808   3.811   0.627 -1.8982  0.0259 -0.4334
14166TIP3    H263990   3.746   3.677   0.597  1.2748 -1.8628  1.1365
14167TIP3   OH263991   4.940   1.135   0.639  0.1387 -0.3612  0.0526
14167TIP3    H163992   4.894   1.210   0.677 -0.5503  0.0113 -1.5153
14167TIP3    H263993   4.910   1.060   0.691  0.6788  0.3926  1.4962
14168TIP3   OH263994   2.992   6.429   5.555 -0.0310 -0.0428  0.0271
14168TIP3    H163995   3.053   6.400   5.488 -0.2303  0.1971 -0.2601
14168TIP3    H263996   3.047   6.449   5.631  0.0016 -2.2902  0.6153
14169TIP3   OH263997   4.482   5.797   0.980  0.9345  0.4862 -0.1580
14169TIP3    H163998   4.490   5.714   1.027  0.2423  0.6124  0.1878
14169TIP3    H263999   4.462   5.861   1.048  0.8576  0.8328 -0.5066
14170TIP3   OH264000   3.933   0.340  11.735  0.8101 -0.1027 -0.2512
14170TIP3    H164001   4.006   0.280  11.750  0.8723 -0.2094 -0.9790
14170TIP3    H264002   3.861   0.284  11.709  0.2918 -0.0552  1.0266
14171TIP3   OH264003   5.833   6.573  12.988  0.0878  0.3561 -0.5760
14171TIP3    H164004   5.821   6.515  13.063  0.2781  0.6733 -0.3002
14171TIP3    H264005   5.765   6.639  12.996 -1.8854 -1.3739 -2.3814
14172TIP3   OH264006   6.377   2.943  11.763 -0.1721 -0.4384  0.3262
14172TIP3    H164007   6.381   2.939  11.859 -0.4236 -0.5116  0.3323
14172TIP3    H264008   6.459   2.902  11.735  0.6509  1.0268  0.5357
14173TIP3   OH264009   3.280   2.821  12.343  0.1665  0.8932  0.0010
14173TIP3    H164010   3.358   2.794  12.293 -0.0250  0.3457 -0.0016
14173TIP3    H264011   3.242   2.739  12.374 -0.9596  1.0931 -0.8103
14174TIP3   OH264012   5.548   0.070  14.655  0.0840  0.7320 -0.4403
14174TIP3    H164013   5.460   0.034  14.666 -0.5847  2.4738 -0.0618
14174TIP3    H264014   5.574   0.043  14.566 -1.9655  2.5997 -1.6577
14175TIP3   OH264015   6.090   3.317  14.368  0.2273 -0.3901  0.0287
14175TIP3    H164016   6.021   3.332  14.303  1.5938  0.5567 -1.2332
14175TIP3    H264017   6.169   3.354  14.329  1.1414 -0.0338  2.1217
14176TIP3   OH264018   3.742   1.124   3.801  0.2071 -0.2847  0.0389
14176TIP3    H164019   3.715   1.176   3.877  1.6308  1.8191 -0.8474
14176TIP3    H264020   3.811   1.067   3.833  0.4899  0.2797  0.4374
14177TIP3   OH264021   5.180   4.436   5.936  0.3355 -0.4719  0.3267
14177TIP3    H164022   5.182   4.406   6.027 -0.3154 -2.0758 -0.1830
14177TIP3    H264023   5.107   4.389   5.896 -0.9352  2.0141 -0.4258
14178TIP3   OH264024   5.056   3.591  14.827  0.4445  0.1135  0.1679
14178TIP3    H164025   4.991   3.538  14.781 -0.7878  1.5212  0.2532
14178TIP3    H264026   5.130   3.596  14.765  0.3021 -1.1016 -0.1201
14179TIP3   OH264027   1.069   2.369  14.902 -0.0684 -0.2415  0.2400
14179TIP3    H164028   1.113   2.322  14.973 -3.9546  0.0436  2.9665
14179TIP3    H264029   1.076   2.310  14.827  2.4908 -1.3643  1.2999
14180TIP3   OH264030   5.290   5.261  12.379  0.1360 -0.0366  0.4673
14180TIP3    H164031   5.294   5.189  12.316  1.3820  1.1760 -0.8820
14180TIP3    H264032   5.231   5.325  12.339  3.5564  2.2586 -1.1898
14181TIP3   OH264033   0.276   5.028  16.190  0.5450 -0.2998 -0.9589
14181TIP3    H164034   0.308   5.118  16.203 -3.3437  1.0085  0.2156
14181TIP3    H264035   0.302   4.981  16.269  0.5450  0.4254 -0.5226
14182TIP3   OH264036   0.381   1.930  12.118 -0.0468 -0.0123  0.3377
14182TIP3    H164037   0.468   1.919  12.158  0.0098  1.2597  0.5625
14182TIP3    H264038   0.397   1.984  12.041 -0.8000  1.1343  0.9791
14183TIP3   OH264039   4.208   6.021   3.047  0.9201  0.1642  0.2971
14183TIP3    H164040   4.147   6.012   2.974  1.5006  2.2276 -0.4748
14183TIP3    H264041   4.157   6.062   3.117  0.6340 -0.8993  0.7294
14184TIP3   OH264042   2.095   6.209  12.922  0.3257 -0.4574  0.3604
14184TIP3    H164043   2.105   6.288  12.976  1.7370  0.2190 -0.8511
14184TIP3    H264044   2.068   6.141  12.984 -1.1973  1.0230  1.3832
14185TIP3   OH264045   1.719   0.970   0.630 -0.1688 -0.0071 -0.3843
14185TIP3    H164046   1.662   1.045   0.615 -0.4666 -0.3750 -1.0802
14185TIP3    H264047   1.665   0.894   0.610  0.1537 -0.4116  0.2542
14186TIP3   OH264048   6.612   6.552   4.006 -0.6188  0.6815 -0.2031
14186TIP3    H164049   6.547   6.502   4.056 -0.8223  1.6285  0.4767
14186TIP3    H264050   6.562   6.624   3.967 -0.2823  0.4844 -1.0183
14187TIP3   OH264051   2.862   5.018  13.712 -0.3457  0.2851  0.2171
14187TIP3    H164052   2.828   5.094  13.664  1.1657  0.9286  0.1632
14187TIP3    H264053   2.853   4.946  13.650 -0.9224  0.5964 -0.0718
14188TIP3   OH264054   0.529   3.688   4.467 -0.2753  0.2325  0.1133
14188TIP3    H164055   0.513   3.605   4.512 -1.6964  0.6126  0.3399
14188TIP3    H264056   0.466   3.749   4.506  0.3340  1.2589 -0.4802
14189TIP3   OH264057   5.666   1.007  10.940 -0.6364  0.4488  0.4811
14189TIP3    H164058   5.728   0.948  10.897 -1.8416 -0.5461  0.0884
14189TIP3    H264059   5.653   1.078  10.877  0.0652  0.6418  0.5493
14190TIP3   OH264060   1.374   6.819   3.023  0.5813 -0.4145  0.0759
14190TIP3    H164061   1.404   6.847   3.109 -0.9053  0.3730  0.3691
14190TIP3    H264062   1.360   6.901   2.975  1.1605 -0.8400 -0.8239
14191TIP3   OH264063   5.779   2.391  13.707 -0.1037 -0.0554 -0.4071
14191TIP3    H164064   5.747   2.361  13.792  2.6412  0.5061  0.8822
14191TIP3    H264065   5.843   2.325  13.681  2.6090  2.2121  0.3018
14192TIP3   OH264066   2.086   6.352   6.001  0.2173 -0.2299  0.1444
14192TIP3    H164067   2.067   6.432   6.051 -1.1000 -1.1227  1.0992
14192TIP3    H264068   2.160   6.313   6.046  1.5640  0.9773 -0.9574
14193TIP3   OH264069   1.070   3.029   2.419  0.0100 -0.0284 -0.3391
14193TIP3    H164070   1.023   3.082   2.483 -0.0407  0.3302 -0.6670
14193TIP3    H264071   1.161   3.057   2.428  0.2340 -1.0264  0.5911
14194TIP3   OH264072   4.668   1.825   0.770 -0.1036  0.0633  0.3892
14194TIP3    H164073   4.578   1.858   0.769 -0.5737 -1.1662  1.1004
14194TIP3    H264074   4.723   1.904   0.774 -1.1025  0.8636 -1.2526
14195TIP3   OH264075   2.360   2.145   2.546 -0.6482  0.1414  0.0789
14195TIP3    H164076   2.354   2.234   2.512  3.4934 -0.6011 -3.0292
14195TIP3    H264077   2.299   2.095   2.490 -0.5098  0.4523 -0.3547
14196TIP3   OH264078   3.310   2.073   4.285  0.1097  1.0226  0.2833
14196TIP3    H164079   3.374   2.009   4.254 -0.5271 -0.2216  1.4752
14196TIP3    H264080   3.282   2.039   4.370 -2.5004  1.2562 -0.4367
14197TIP3   OH264081   1.677   6.347  16.463  0.2041  0.0891 -0.1980
14197TIP3    H164082   1.763   6.382  16.487  0.1662  0.2297 -0.2636
14197TIP3    H264083   1.640   6.317  16.546 -0.2510  1.2985  0.0528
14198TIP3   OH264084   6.427   3.476   3.418 -0.2879 -0.4997 -0.2405
14198TIP3    H164085   6.484   3.509   3.349  0.4916  0.5985  0.9226
14198TIP3    H264086   6.418   3.383   3.398 -0.3426 -0.1337 -2.0083
14199TIP3   OH264087   4.308   3.914  12.832 -0.1192  0.2702  0.2105
14199TIP3    H164088   4.360   3.963  12.768 -1.0206  1.7018  0.5576
14199TIP3    H264089   4.360   3.917  12.912 -0.1828  0.6616  0.2353
14200TIP3   OH264090   2.702   3.723   2.317  0.0431  0.7104 -0.2374
14200TIP3    H164091   2.647   3.802   2.321 -0.6668  0.1095  3.1031
14200TIP3    H264092   2.639   3.651   2.315  0.5945  0.0364  3.0999
14201TIP3   OH264093   2.799   3.138   1.636 -0.0987 -0.5983  0.2080
14201TIP3    H164094   2.846   3.196   1.696 -1.0873  0.5617 -0.1126
14201TIP3    H264095   2.843   3.053   1.645  0.0863 -0.3211  2.1834
14202TIP3   OH264096   4.084   4.505  15.097 -0.2418 -0.3326 -0.0236
14202TIP3    H164097   4.022   4.461  15.155  0.0401 -1.7874 -0.7994
14202TIP3    H264098   4.153   4.537  15.155 -1.9853  1.8040  0.9111
14203TIP3   OH264099   1.852   0.035  14.669  0.1697  0.0368 -0.1987
14203TIP3    H164100   1.929  -0.019  14.649 -0.1074 -0.1142 -0.8907
14203TIP3    H264101   1.790   0.013  14.599 -1.0081 -0.8429  1.1103
14204TIP3   OH264102   0.626   3.385  16.141 -0.6244 -0.4633 -0.4834
14204TIP3    H164103   0.600   3.382  16.049 -1.5818  0.0600 -0.2280
14204TIP3    H264104   0.545   3.401  16.189 -0.1720 -1.0044  0.4772
14205TIP3   OH264105   0.876   2.758  12.511 -0.2825 -0.3340 -0.2023
14205TIP3    H164106   0.897   2.714  12.429  0.6931 -0.1848 -0.0356
14205TIP3    H264107   0.952   2.814  12.529 -1.3328  1.1120 -0.2026
14206TIP3   OH264108   5.874   6.724   4.574 -0.3687 -0.0446  0.1434
14206TIP3    H164109   5.939   6.780   4.531  0.1198 -0.2294  0.6324
14206TIP3    H264110   5.864   6.762   4.661 -1.0052  0.0488  0.0348
14207TIP3   OH264111   5.982   0.305  10.948  0.2022 -0.6396  0.7168
14207TIP3    H164112   6.035   0.385  10.954 -0.5263  0.1653 -2.2745
14207TIP3    H264113   5.893   0.337  10.930  0.3525 -2.1127 -3.1122
14208TIP3   OH264114   1.246   4.572  15.441 -0.2772 -0.1582 -0.2753
14208TIP3    H164115   1.320   4.572  15.380  0.9050  0.1728  1.1340
14208TIP3    H264116   1.264   4.500  15.500 -0.2414  0.9367  1.0688
14209TIP3   OH264117   3.917   6.572  13.681  0.2553  0.6690 -0.3346
14209TIP3    H164118   3.979   6.508  13.717 -0.8602  0.4489  1.2921
14209TIP3    H264119   3.924   6.562  13.586  1.9295 -0.0917 -0.1440
14210TIP3   OH264120   1.158   1.939  13.701 -0.1675  0.6330  0.1208
14210TIP3    H164121   1.239   1.911  13.659 -0.1987  1.1836 -0.3193
14210TIP3    H264122   1.139   1.871  13.765  0.7379  0.5892  0.3516
14211TIP3   OH264123   3.547   5.506  13.553  0.1710 -0.8407 -0.5054
14211TIP3    H164124   3.474   5.533  13.496 -1.3377 -1.1164  1.2392
14211TIP3    H264125   3.551   5.410  13.542  0.9746 -0.7113 -1.4008
14212TIP3   OH264126   5.943   1.913  12.701  0.6446 -0.0922  0.3828
14212TIP3    H164127   6.038   1.918  12.708  0.5695  1.7786  0.4094
14212TIP3    H264128   5.923   1.951  12.615 -0.2443  2.3822  1.6218
14213TIP3   OH264129   5.236   4.848   2.869  0.0332  0.6695 -0.0463
14213TIP3    H164130   5.226   4.753   2.872  0.2508  0.6317 -0.4134
14213TIP3    H264131   5.159   4.882   2.914  0.0518  0.3134  0.2540
14214TIP3   OH264132   1.744   3.087   2.556 -0.1556  0.3125  0.1321
14214TIP3    H164133   1.757   3.105   2.463  2.0378  0.1092  0.3601
14214TIP3    H264134   1.795   3.007   2.571  0.6440  1.1204  1.7829
14215TIP3   OH264135   2.174   6.712   1.966 -0.5886  0.5829  0.2111
14215TIP3    H164136   2.196   6.761   1.887 -1.4303  2.2092  0.9395
14215TIP3    H264137   2.078   6.704   1.963 -0.5243 -0.3123  0.5005
14216TIP3   OH264138   3.532   5.909   1.656  0.1067 -0.1664  0.4038
14216TIP3    H164139   3.537   5.980   1.720 -0.1341 -0.1618  0.4156
14216TIP3    H264140   3.609   5.855   1.675  0.4433  0.2394  0.2148
14217TIP3   OH264141   4.662   0.010   2.837 -0.1874  0.0553 -0.2108
14217TIP3    H164142   4.746  -0.036   2.843 -0.2187  0.1673  1.4332
14217TIP3    H264143   4.598  -0.059   2.818 -0.1887 -0.5796  1.9263
14218TIP3   OH264144   6.313   0.874   5.176 -0.0845 -0.3510 -0.1817
14218TIP3    H164145   6.323   0.966   5.150  0.5299 -0.9219 -2.0994
14218TIP3    H264146   6.221   0.865   5.197  0.0340  0.9373  0.9713
14219TIP3   OH264147   5.371   2.602   0.478  0.7716 -0.2230 -0.0906
14219TIP3    H164148   5.463   2.618   0.498  0.3829  0.5703  1.1457
14219TIP3    H264149   5.324   2.643   0.550 -0.6075  0.6289 -1.4348
14220TIP3   OH264150   1.689   0.295  15.271  0.0854 -0.0316  0.2347
14220TIP3    H164151   1.657   0.382  15.292  1.0433  0.2510  0.5838
14220TIP3    H264152   1.785   0.302  15.278  0.2049 -0.9745 -0.2336
14221TIP3   OH264153   3.486   6.112   3.134  0.4837  0.0296 -0.0847
14221TIP3    H164154   3.437   6.098   3.053  0.8826 -1.3669 -0.0997
14221TIP3    H264155   3.549   6.182   3.113  0.2390  0.0293 -0.8201
14222TIP3   OH264156   5.163   5.160  13.744 -0.1193 -0.7960  0.1234
14222TIP3    H164157   5.225   5.101  13.787 -0.8859 -1.1381  0.7549
14222TIP3    H264158   5.079   5.116  13.749 -0.9313  0.8548  1.6213
14223TIP3   OH264159   2.484   5.894  14.045 -0.0625  0.1335  0.1600
14223TIP3    H164160   2.457   5.854  14.128 -0.5183  1.7488  0.8068
14223TIP3    H264161   2.575   5.866  14.033 -0.5271 -1.4898  0.3486
14224TIP3   OH264162   6.300   6.121  13.586 -0.3627  0.6555 -0.4577
14224TIP3    H164163   6.231   6.082  13.639  0.1708 -1.3707 -1.1935
14224TIP3    H264164   6.372   6.136  13.647 -0.3061 -0.2336 -0.3000
14225TIP3   OH264165   3.778   2.973   5.392  0.1012  0.6443 -0.2852
14225TIP3    H164166   3.754   2.939   5.478  0.5152  2.5882  0.6279
14225TIP3    H264167   3.870   2.946   5.381 -0.1601 -0.2075 -0.4371
14226TIP3   OH264168   4.831   4.055  16.465 -0.1717  0.3783  0.6812
14226TIP3    H164169   4.749   4.031  16.420  0.1068  1.4364 -0.4253
14226TIP3    H264170   4.896   4.059  16.395  0.7155  0.0295  1.4909
14227TIP3   OH264171   3.379   6.465  14.147  0.2182  0.2486 -0.3194
14227TIP3    H164172   3.299   6.439  14.191  0.4404 -3.0261 -1.6914
14227TIP3    H264173   3.449   6.446  14.209  0.3178 -1.8636 -1.0468
14228TIP3   OH264174   0.569   6.096  11.820  0.6359  0.1767  0.4507
14228TIP3    H164175   0.581   6.104  11.915 -0.1729 -0.7307  0.6391
14228TIP3    H264176   0.657   6.088  11.785  0.8323 -1.9436  1.3594
14229TIP3   OH264177   0.096   0.691  12.701 -0.3658  0.4502  0.8382
14229TIP3    H164178   0.037   0.624  12.665  0.4147  1.1663 -1.8918
14229TIP3    H264179   0.154   0.643  12.759 -1.3926 -0.8280  0.8340
14230TIP3   OH264180   1.094   2.163  11.241 -0.3611  0.0657 -0.2680
14230TIP3    H164181   1.082   2.088  11.183  0.4455 -0.0686 -0.2661
14230TIP3    H264182   1.168   2.210  11.205  0.7906 -0.5640  1.2242
14231TIP3   OH264183   5.229   5.463  12.961 -0.0990 -0.1838  0.5007
14231TIP3    H164184   5.163   5.401  12.931  0.8108 -1.3513  0.8615
14231TIP3    H264185   5.313   5.419  12.943  0.5994  1.4362 -0.3241
14232TIP3   OH264186   5.795   6.642  14.883  0.5902 -0.3575 -0.0393
14232TIP3    H164187   5.873   6.679  14.842 -0.1843  0.0739 -1.1362
14232TIP3    H264188   5.765   6.709  14.944 -1.3034  1.2492 -2.6362
14233TIP3   OH264189   5.608   4.853   6.465 -0.1965  0.1762 -0.0249
14233TIP3    H164190   5.604   4.863   6.560  0.1404 -0.8043  0.0920
14233TIP3    H264191   5.520   4.874   6.435 -1.0014 -1.9825  0.7317
14234TIP3   OH264192   1.307   1.067  13.307 -0.1064  0.4938  0.0400
14234TIP3    H164193   1.370   1.106  13.245  0.2500  0.3078  0.2819
14234TIP3    H264194   1.234   1.128  13.309 -0.9036 -0.3706 -1.9090
14235TIP3   OH264195   5.835   0.129   1.321  0.1178 -0.3804 -0.0934
14235TIP3    H164196   5.881   0.207   1.290  0.8851 -0.1716  1.5368
14235TIP3    H264197   5.839   0.068   1.247 -0.6060  1.1617 -1.4372
14236TIP3   OH264198   0.224   5.682   3.742 -0.1963  0.3968  0.1492
14236TIP3    H164199   0.140   5.726   3.743 -0.3328  0.1220  0.8033
14236TIP3    H264200   0.250   5.682   3.650 -0.6031  1.0608  0.0357
14237TIP3   OH264201   0.781   1.103  12.639 -0.5494  0.0508  0.4942
14237TIP3    H164202   0.784   1.052  12.719 -2.9213  0.6728  1.0105
14237TIP3    H264203   0.824   1.185  12.661 -1.9145  0.5401  1.3884
14238TIP3   OH264204   2.457   1.843   3.271 -0.4718  0.4268  0.1801
14238TIP3    H164205   2.474   1.932   3.241  1.7926  0.9812  2.8955
14238TIP3    H264206   2.383   1.852   3.332 -0.8870  0.2635 -0.2893
14239TIP3   OH264207   6.071   1.961   0.777  0.1055 -0.1757 -0.2619
14239TIP3    H164208   6.108   2.028   0.720  0.9560 -0.6963 -0.3217
14239TIP3    H264209   6.137   1.892   0.780 -0.0534 -0.2910  1.0968
14240TIP3   OH264210   6.139   1.151   2.971  0.1136 -0.3804 -0.5441
14240TIP3    H164211   6.074   1.215   2.999 -0.1514 -0.2096 -1.5077
14240TIP3    H264212   6.183   1.124   3.051  1.6863  2.5753 -0.3619
14241TIP3   OH264213   2.019   5.636   5.409  0.0889  0.1652 -0.1970
14241TIP3    H164214   2.026   5.719   5.456 -2.2360  0.0380  0.4405
14241TIP3    H264215   2.031   5.569   5.476 -0.6383 -0.0122 -0.2397
14242TIP3   OH264216   1.770   6.186  11.794 -0.0055 -0.2672 -0.0935
14242TIP3    H164217   1.797   6.129  11.722  0.7415 -0.3222  0.2312
14242TIP3    H264218   1.762   6.273  11.755  0.6692 -0.2452 -0.1824
14243TIP3   OH264219   1.481   2.661   3.427  0.2285  0.0989 -0.3285
14243TIP3    H164220   1.501   2.717   3.352 -1.9977 -0.8180 -1.6321
14243TIP3    H264221   1.538   2.585   3.416 -0.0833 -0.0292 -1.0954
14244TIP3   OH264222   5.654   0.193  11.811  0.5418  0.0539  0.1308
14244TIP3    H164223   5.719   0.262  11.816 -0.9529  1.4527  0.6981
14244TIP3    H264224   5.697   0.116  11.848  2.7298  0.2522 -1.8482
14245TIP3   OH264225   0.079   1.812  17.207  0.3045 -0.3374  0.1543
14245TIP3    H164226   0.151   1.749  17.212 -0.6897 -1.6809 -1.8426
14245TIP3    H264227   0.106   1.875  17.140 -0.3950 -0.8740 -0.6374
14246TIP3   OH264228   5.601   5.123   5.203  0.6477 -0.3878 -0.3893
14246TIP3    H164229   5.665   5.143   5.271  0.3372 -1.9531  0.3759
14246TIP3    H264230   5.646   5.143   5.121  1.3282  0.6760  0.2322
14247TIP3   OH264231   6.418   4.739  14.107 -0.0691  0.1016 -0.4264
14247TIP3    H164232   6.466   4.665  14.069 -0.6996 -1.2059  1.2523
14247TIP3    H264233   6.326   4.718  14.092 -0.2552  0.4876  0.1720
14248TIP3   OH264234   3.089   0.804   2.677  0.6936  0.1097  0.2444
14248TIP3    H164235   3.043   0.745   2.737  0.0107 -0.2123 -0.5846
14248TIP3    H264236   3.152   0.748   2.633  1.2089  0.3506  0.6752
14249TIP3   OH264237   5.476   3.032  15.103  0.1476  0.8270 -0.0342
14249TIP3    H164238   5.506   3.058  15.190 -1.2443  0.9173  0.4330
14249TIP3    H264239   5.490   2.937  15.101  2.4473  1.1303 -0.6431
14250TIP3   OH264240   2.212   0.281   5.085  0.2307  0.2096  0.6990
14250TIP3    H164241   2.156   0.210   5.113  0.2634 -0.4372 -0.7989
14250TIP3    H264242   2.195   0.289   4.991  1.3943  1.1244  0.5485
14251TIP3   OH264243   0.504   1.013   0.387  0.3539  0.3249  0.1130
14251TIP3    H164244   0.501   1.104   0.416 -1.2480  0.6348 -0.9807
14251TIP3    H264245   0.426   0.972   0.425 -0.8463  0.3108 -2.2448
14252TIP3   OH264246   6.163   3.826   3.881 -0.1584  0.2257  0.0561
14252TIP3    H164247   6.128   3.745   3.918  1.1935 -0.3084  0.2036
14252TIP3    H264248   6.097   3.892   3.901 -0.2650 -0.3992  1.9139
14253TIP3   OH264249   5.539   2.047  11.391  0.0772 -0.0302 -0.3091
14253TIP3    H164250   5.561   2.026  11.482  0.7813 -1.1073 -0.7133
14253TIP3    H264251   5.526   2.141  11.390  1.0076  0.1097  0.7205
14254TIP3   OH264252   3.275   1.602   0.257  0.2815 -0.1024  0.5700
14254TIP3    H164253   3.324   1.520   0.254  0.6850  0.1542 -0.0125
14254TIP3    H264254   3.318   1.653   0.326 -0.5578 -0.7404  1.5781
14255TIP3   OH264255   1.712   3.662   0.475 -0.7766 -0.2889 -0.2758
14255TIP3    H164256   1.644   3.729   0.478 -0.6154  0.0467 -2.9660
14255TIP3    H264257   1.667   3.583   0.445 -0.6947 -1.0552  1.5712
14256TIP3   OH264258   0.244   2.317   3.360 -0.2336 -0.0888 -0.2678
14256TIP3    H164259   0.161   2.282   3.326 -0.0393 -2.0643  1.1702
14256TIP3    H264260   0.218   2.370   3.435 -0.2322 -0.3497 -0.0824
14257TIP3   OH264261   3.812   3.937  11.395 -0.2635  0.1068 -0.2747
14257TIP3    H164262   3.904   3.950  11.420 -0.0578  1.4564 -1.6423
14257TIP3    H264263   3.763   3.992  11.455 -0.0778  0.2743 -0.2730
14258TIP3   OH264264   0.244   3.486  16.493 -0.0851 -0.1396  0.4630
14258TIP3    H164265   0.259   3.525  16.579  0.3238 -1.0296  0.8006
14258TIP3    H264266   0.248   3.391  16.508 -2.1225 -0.3486 -0.1482
14259TIP3   OH264267   0.897   6.649  14.179  0.8780  0.3556 -0.6138
14259TIP3    H164268   0.873   6.564  14.143  0.2031 -0.5221  1.7986
14259TIP3    H264269   0.991   6.658  14.161  1.0287 -1.0785 -0.5605
14260TIP3   OH264270   0.178   0.134   5.585  0.1325 -0.5787 -0.2259
14260TIP3    H164271   0.260   0.085   5.585 -0.4750 -1.6037 -0.1694
14260TIP3    H264272   0.135   0.109   5.668 -1.0325 -1.3965 -1.0571
14261TIP3   OH264273   1.689   6.209   3.328  0.3545  1.1466 -0.1449
14261TIP3    H164274   1.770   6.199   3.277  1.3868 -1.5232  1.8800
14261TIP3    H264275   1.622   6.165   3.276  0.8652  0.6162 -0.3540
14262TIP3   OH264276   0.321   2.512   5.758  0.0031 -0.5268  0.4651
14262TIP3    H164277   0.300   2.423   5.787 -0.4962 -0.7482 -0.5406
14262TIP3    H264278   0.319   2.506   5.662  2.3006  0.0134  0.3693
14263TIP3   OH264279   0.183   1.363  11.843 -0.5525 -0.0969 -0.0720
14263TIP3    H164280   0.088   1.372  11.845 -0.5300  0.2942 -0.5636
14263TIP3    H264281   0.206   1.330  11.930 -1.1432 -0.2643  0.0220
14264TIP3   OH264282   3.402   5.994  15.471 -0.0416 -0.1134 -0.3452
14264TIP3    H164283   3.401   5.901  15.449  1.0857 -0.2980  0.3006
14264TIP3    H264284   3.330   6.005  15.533 -0.9146 -0.3146 -1.3056
14265TIP3   OH264285   6.074   0.715   3.882  0.2602 -0.3595 -0.2883
14265TIP3    H164286   6.049   0.742   3.794  2.9566 -0.5830 -1.1743
14265TIP3    H264287   6.042   0.785   3.938 -0.7659  0.1908 -1.5181
14266TIP3   OH264288   1.644   0.021   6.358 -0.1692  0.0674  0.4066
14266TIP3    H164289   1.632   0.063   6.272 -1.0401 -0.8444  0.0709
14266TIP3    H264290   1.716   0.069   6.398 -1.3236  2.1098  0.1518
14267TIP3   OH264291   4.142   4.885   2.979 -0.0263  0.2046 -0.1056
14267TIP3    H164292   4.208   4.876   3.049 -0.9965 -0.7351  0.6978
14267TIP3    H264293   4.179   4.951   2.920  1.1447  0.4763  0.9104
14268TIP3   OH264294   6.432   0.081   3.167 -0.3097  0.3925  0.2855
14268TIP3    H164295   6.465   0.009   3.221  0.7547  1.1378  0.6458
14268TIP3    H264296   6.508   0.137   3.152 -0.5743  0.1947 -2.0227
14269TIP3   OH264297   6.314   5.890  15.502 -0.3074  0.0537 -0.4246
14269TIP3    H164298   6.293   5.806  15.461  1.0133 -0.1725 -0.6613
14269TIP3    H264299   6.244   5.949  15.473  0.1083 -0.3281 -2.2935
14270TIP3   OH264300   0.364   4.177  13.332 -0.1181 -0.4158 -0.0735
14270TIP3    H164301   0.318   4.102  13.370 -1.9794  1.1216  0.7909
14270TIP3    H264302   0.324   4.187  13.245 -0.4374  0.0555  0.1266
14271TIP3   OH264303   6.214   6.466  13.734 -0.1763  0.3103 -0.0665
14271TIP3    H164304   6.193   6.454  13.641  0.7168  1.4561 -0.4314
14271TIP3    H264305   6.154   6.408  13.780 -0.6989 -0.1947 -1.3623
14272TIP3   OH264306   5.749   0.119  14.860  0.2157  0.0061  0.6324
14272TIP3    H164307   5.668   0.102  14.812  0.4510  2.2094 -0.6118
14272TIP3    H264308   5.818   0.079  14.807  0.2532  0.7476  0.1057
14273TIP3   OH264309   3.898   6.130   3.854  0.1990  0.0216  0.1892
14273TIP3    H164310   3.989   6.144   3.830  0.1491 -2.0740 -1.2858
14273TIP3    H264311   3.851   6.203   3.814  1.2384  1.2858  1.2224
14274TIP3   OH264312   5.490   1.472   4.824 -0.8083  0.1066  0.1561
14274TIP3    H164313   5.467   1.523   4.902 -0.8195 -0.1041  0.2881
14274TIP3    H264314   5.566   1.518   4.788 -0.1923 -0.3731  0.8379
14275TIP3   OH264315   1.155   1.069   2.214 -0.5499  0.2903  0.2977
14275TIP3    H164316   1.141   1.145   2.270  0.6665  0.5760  0.2261
14275TIP3    H264317   1.068   1.033   2.201 -0.8107 -0.0578  2.7374
14276TIP3   OH264318   3.691   6.732  14.285  0.4181  0.3399 -0.4244
14276TIP3    H164319   3.743   6.754  14.208  0.2324  0.5114 -0.4999
14276TIP3    H264320   3.602   6.758  14.262  0.4375  0.7849  0.0129
14277TIP3   OH264321   2.165   5.648  14.552  0.1004 -0.3671  0.3047
14277TIP3    H164322   2.170   5.706  14.628 -1.0062  0.0394  0.0750
14277TIP3    H264323   2.158   5.707  14.477  3.3564 -0.7110 -0.3385
14278TIP3   OH264324   0.984   0.156   4.831  0.0158  0.5067 -0.4812
14278TIP3    H164325   1.049   0.225   4.840 -0.8959  1.4356 -0.9266
14278TIP3    H264326   0.958   0.160   4.739 -0.8091  0.2639 -0.2625
14279TIP3   OH264327   0.700   1.008  17.292  0.0130  0.2793  0.2756
14279TIP3    H164328   0.771   1.025  17.230 -0.2774 -0.5890 -0.3061
14279TIP3    H264329   0.630   1.068  17.265  0.2119  0.5303  0.3168
14280TIP3   OH264330   1.159   2.371  12.123 -0.4177  0.3719  0.0295
14280TIP3    H164331   1.216   2.389  12.197 -0.6948 -0.8130  0.5305
14280TIP3    H264332   1.204   2.411  12.048  0.8725 -0.2149  0.4804
14281TIP3   OH264333   4.648   5.157   4.490 -0.3354  0.3493  0.4768
14281TIP3    H164334   4.693   5.124   4.567 -0.8072 -3.0203 -0.6078
14281TIP3    H264335   4.575   5.209   4.525  1.5500  1.8706  2.2381
14282TIP3   OH264336   0.272   4.392   4.536 -0.1172 -0.6028  0.1359
14282TIP3    H164337   0.180   4.418   4.530 -0.4671 -1.3660  1.9664
14282TIP3    H264338   0.316   4.469   4.572  0.2594  0.3497 -2.2991
14283TIP3   OH264339   1.148   1.649   4.301 -0.2830 -0.0198 -0.1385
14283TIP3    H164340   1.232   1.685   4.329  0.0190  0.2189 -1.3453
14283TIP3    H264341   1.147   1.658   4.206 -0.3744 -2.8289 -0.4619
14284TIP3   OH264342   1.170   0.027  13.243 -0.6107 -0.1537  0.1098
14284TIP3    H164343   1.244  -0.029  13.220 -0.9676 -0.9518  0.8773
14284TIP3    H264344   1.201   0.078  13.317 -0.5888  0.0236 -0.0202
14285TIP3   OH264345   5.234   0.193   5.112 -0.2749  0.4380  0.4165
14285TIP3    H164346   5.238   0.102   5.083  1.8749  0.9211 -0.8560
14285TIP3    H264347   5.296   0.198   5.184 -0.3266  0.9364  0.4249
14286TIP3   OH264348   0.904   4.823   2.128 -0.1282 -0.0819  0.1289
14286TIP3    H164349   0.833   4.868   2.174 -0.6924  0.1584 -0.9505
14286TIP3    H264350   0.936   4.887   2.064 -0.4700 -0.9470 -0.9386
14287TIP3   OH264351   6.671   4.170   2.569 -0.0260 -0.0185 -0.3574
14287TIP3    H164352   6.700   4.089   2.527 -1.3130  0.1208 -1.5616
14287TIP3    H264353   6.630   4.220   2.498 -1.8588  0.4155  0.9702
14288TIP3   OH264354   4.479   1.025   4.327  0.4127  0.1192  0.0962
14288TIP3    H164355   4.429   0.966   4.270  0.9752  0.1282 -0.4066
14288TIP3    H264356   4.557   0.975   4.350  2.1934  1.6243 -2.4837
14289TIP3   OH264357   4.917   5.091  12.652  0.4654  0.0664 -0.4508
14289TIP3    H164358   4.926   5.096  12.748  1.4203  0.2300 -0.5513
14289TIP3    H264359   4.924   4.997  12.633 -2.6380 -0.3016 -0.0825
14290TIP3   OH264360   3.137   6.567  15.925 -0.0779  0.2113 -0.3265
14290TIP3    H164361   3.154   6.559  16.018 -1.4165 -0.1225 -0.1057
14290TIP3    H264362   3.206   6.626  15.893 -0.0060  0.8450  0.9717
14291TIP3   OH264363   3.497   0.836  16.511  0.1735 -0.0539 -0.1648
14291TIP3    H164364   3.483   0.808  16.421  1.2843 -0.4158 -0.2338
14291TIP3    H264365   3.561   0.907  16.505  0.7508 -0.5117  0.3797
14292TIP3   OH264366   6.089   4.356  15.150 -0.1722 -0.6360 -0.4756
14292TIP3    H164367   6.182   4.336  15.166  0.0240  0.4749 -0.1583
14292TIP3    H264368   6.042   4.302  15.214  0.4039  0.5901  1.0391
14293TIP3   OH264369   4.082   6.484  15.688 -0.6421 -0.3372  0.7867
14293TIP3    H164370   4.112   6.516  15.773  0.8850 -2.6293  1.1671
14293TIP3    H264371   4.068   6.390  15.701 -3.1436 -0.2355 -0.7684
14294TIP3   OH264372   2.172   3.804  15.511 -0.5242  0.6891  0.4112
14294TIP3    H164373   2.200   3.882  15.462 -1.2670  0.2300 -0.7646
14294TIP3    H264374   2.244   3.742  15.501 -0.1333  1.0437  0.9607
14295TIP3   OH264375   4.421   5.268   0.093  0.0049  0.3396 -0.1305
14295TIP3    H164376   4.364   5.218   0.034 -0.0661  1.7214 -1.2355
14295TIP3    H264377   4.361   5.311   0.154  0.0023  0.0731  0.0582
14296TIP3   OH264378   3.671   0.794  11.447  0.1068 -0.2618 -0.1998
14296TIP3    H164379   3.766   0.811  11.447  0.1407 -0.1343 -3.7564
14296TIP3    H264380   3.662   0.705  11.414 -1.0210 -0.5368  0.8058
14297TIP3   OH264381   1.113   3.332   0.859 -0.3079 -0.9416  0.5038
14297TIP3    H164382   1.036   3.283   0.832  0.9310 -1.9308 -1.3207
14297TIP3    H264383   1.098   3.421   0.827 -0.5607 -1.1953 -0.0845
14298TIP3   OH264384   0.332   6.375   2.133  0.3743 -0.7450 -0.3141
14298TIP3    H164385   0.246   6.383   2.092  1.2162  0.0920 -1.9434
14298TIP3    H264386   0.348   6.461   2.172 -0.3045 -1.4530  1.6067
14299TIP3   OH264387   4.314   6.516  13.668  0.0567 -0.4244  0.5004
14299TIP3    H164388   4.255   6.443  13.688 -0.5669  0.0239  0.3315
14299TIP3    H264389   4.268   6.594  13.701 -0.1822  0.1250 -1.0705
14300TIP3   OH264390   1.158   6.408   0.913  0.6340 -0.5868 -0.0399
14300TIP3    H164391   1.186   6.380   0.826  1.4595 -0.6484  0.2396
14300TIP3    H264392   1.237   6.447   0.952 -0.3298  1.5358 -0.1818
14301TIP3   OH264393   2.564   2.769   4.748 -0.2847  0.0803  0.0654
14301TIP3    H164394   2.506   2.794   4.676 -2.4873 -2.7549  0.7500
14301TIP3    H264395   2.513   2.706   4.799  2.8519 -1.2927  1.6251
14302TIP3   OH264396   6.336   3.640   2.336  0.0845  0.0904 -0.3355
14302TIP3    H164397   6.426   3.673   2.338  0.6403 -1.3968 -0.7572
14302TIP3    H264398   6.313   3.627   2.428  0.7819 -0.8293 -0.2878
14303TIP3   OH264399   4.324   2.644  17.051  0.3242 -0.1666 -0.2934
14303TIP3    H164400   4.245   2.661  17.000  1.4203 -0.6995 -2.2514
14303TIP3    H264401   4.323   2.550  17.067  0.5025 -0.1601 -0.2346
14304TIP3   OH264402   6.178   0.425   2.438 -0.5610  0.4052 -0.0967
14304TIP3    H164403   6.213   0.489   2.501 -0.7323  0.2344  0.1720
14304TIP3    H264404   6.083   0.440   2.440 -0.6449 -0.1576  0.2962
14305TIP3   OH264405   5.706   3.477   2.293 -0.5783  0.2698  0.3100
14305TIP3    H164406   5.666   3.434   2.369 -0.8387  2.7149  1.6025
14305TIP3    H264407   5.724   3.406   2.232 -2.5240 -1.4568  1.6895
14306TIP3   OH264408   0.489   1.548  16.199 -0.0486  0.1042 -0.0968
14306TIP3    H164409   0.515   1.473  16.146  0.0773 -0.8333  1.2510
14306TIP3    H264410   0.571   1.582  16.235 -0.3943 -1.3526  2.1893
14307TIP3   OH264411   5.062   2.517  16.286  0.0893  0.0970 -0.3845
14307TIP3    H164412   5.050   2.609  16.263 -0.9394  0.8741  2.9225
14307TIP3    H264413   4.977   2.490  16.320  0.5330 -1.9520 -0.8245
14308TIP3   OH264414   4.288   3.164   1.857 -0.2957 -0.0286 -0.0113
14308TIP3    H164415   4.236   3.205   1.926  1.2436  1.1131  0.5142
14308TIP3    H264416   4.300   3.234   1.792  0.8443 -0.1668  0.0390
14309TIP3   OH264417   0.080   6.091   1.697 -0.0875  0.6320 -0.3475
14309TIP3    H164418   0.118   6.179   1.695  0.5227  0.4007  0.6893
14309TIP3    H264419  -0.006   6.101   1.656  0.7469  1.3311 -1.9470
14310TIP3   OH264420   3.587   2.988  13.881 -0.5517  0.2730  0.7117
14310TIP3    H164421   3.547   3.030  13.806 -1.4052  1.1661  1.6521
14310TIP3    H264422   3.664   3.041  13.901 -0.9231  0.6577  1.1237
14311TIP3   OH264423   4.717   2.284   3.608  0.1597  0.2487 -0.1176
14311TIP3    H164424   4.669   2.344   3.664 -1.6989 -0.0462 -1.3331
14311TIP3    H264425   4.654   2.214   3.588  1.9085 -1.5241  0.3447
14312TIP3   OH264426   5.069   2.774   5.954  0.0608 -0.3071 -0.3014
14312TIP3    H164427   4.989   2.758   5.905 -0.0565  0.3318 -0.3126
14312TIP3    H264428   5.133   2.713   5.916  0.0560  0.4003 -1.4491
14313TIP3   OH264429   5.363   6.726   1.983  0.2498  0.4426  0.2097
14313TIP3    H164430   5.279   6.697   2.018 -0.3585 -0.0466 -1.5667
14313TIP3    H264431   5.429   6.688   2.042 -0.6247 -2.5937 -0.6539
14314TIP3   OH264432   1.063   3.910   6.379 -0.2957 -0.1177  0.2014
14314TIP3    H164433   1.098   3.823   6.361  0.8843  0.3493  0.1549
14314TIP3    H264434   0.990   3.896   6.439 -0.0007 -1.1145  0.3250
14315TIP3   OH264435   3.704   0.132   3.738  0.9142 -0.1819 -0.1131
14315TIP3    H164436   3.661   0.193   3.798  2.7934 -0.5433  1.6519
14315TIP3    H264437   3.683   0.165   3.651 -0.1477  1.5558  0.7794
14316TIP3   OH264438   2.528   0.418  14.120 -0.3293 -0.1822 -0.3838
14316TIP3    H164439   2.524   0.356  14.048  1.8639 -1.9091  0.9244
14316TIP3    H264440   2.503   0.368  14.197 -0.8173  1.1510  0.3424
14317TIP3   OH264441   1.932   3.852  13.851  0.1956 -0.0986 -0.2767
14317TIP3    H164442   1.987   3.840  13.774 -0.0186  1.3565 -0.6769
14317TIP3    H264443   1.993   3.881  13.919  0.3216 -0.9966  0.0011
14318TIP3   OH264444   1.111   5.690   3.684  0.0644 -0.4281 -0.2555
14318TIP3    H164445   1.031   5.698   3.631  0.1230 -3.5072 -0.9291
14318TIP3    H264446   1.159   5.617   3.644  3.1894  1.2916  0.2284
14319TIP3   OH264447   1.737   4.076  13.185 -0.3012 -0.1018  0.0845
14319TIP3    H164448   1.760   4.115  13.100  0.3248 -0.0333  0.2831
14319TIP3    H264449   1.812   4.021  13.207 -0.5097 -0.2010  0.5419
14320TIP3   OH264450   6.343   0.995   6.735  0.4131  0.0675 -0.7198
14320TIP3    H164451   6.430   0.960   6.717 -0.0094 -0.9456 -0.8106
14320TIP3    H264452   6.346   1.084   6.701  1.2439 -0.1448 -1.2248
14321TIP3   OH264453   3.234   0.130   4.716 -0.5600 -0.5141 -0.2972
14321TIP3    H164454   3.248   0.222   4.695 -1.9575  0.0491  1.1207
14321TIP3    H264455   3.253   0.083   4.635 -0.8027  1.1135 -1.3012
14322TIP3   OH264456   4.973   6.387  16.277 -0.2697  0.3692 -0.0803
14322TIP3    H164457   4.897   6.356  16.227 -1.6096 -0.5893  2.4510
14322TIP3    H264458   5.048   6.344  16.235 -1.4191 -0.9576 -0.8418
14323TIP3   OH264459   2.141   5.678  16.151 -0.1591  0.2212 -0.5399
14323TIP3    H164460   2.142   5.741  16.223  0.7946  0.5109 -0.7957
14323TIP3    H264461   2.197   5.717  16.084  1.4358 -1.4292 -0.2290
14324TIP3   OH264462   2.584   5.353  11.195 -0.3895  0.2810 -0.2235
14324TIP3    H164463   2.534   5.426  11.158  0.0429  1.3407  1.2488
14324TIP3    H264464   2.669   5.392  11.219  0.2169 -0.9363 -0.3658
14325TIP3   OH264465   2.308   2.892  15.479 -0.2692  0.6173 -0.2101
14325TIP3    H164466   2.219   2.906  15.447 -0.5805  0.7668  0.7332
14325TIP3    H264467   2.337   2.978  15.509 -0.2374  0.3298  0.5871
14326TIP3   OH264468   0.785   3.598  17.220 -0.0706  0.7552  0.6192
14326TIP3    H164469   0.859   3.546  17.253 -1.5400 -1.6655  0.2237
14326TIP3    H264470   0.742   3.631  17.299  1.5326  2.3846  0.8483
14327TIP3   OH264471   5.756   1.562  16.286 -0.4733  0.9265  0.1230
14327TIP3    H164472   5.841   1.583  16.248 -0.4102 -2.3404 -1.7142
14327TIP3    H264473   5.777   1.526  16.373  0.1314 -0.6225 -0.6382
14328TIP3   OH264474   3.256   5.392   4.363  0.1818 -0.7665  0.4968
14328TIP3    H164475   3.274   5.483   4.386 -0.2648 -0.0568 -1.8439
14328TIP3    H264476   3.326   5.369   4.302 -1.4874 -0.9630 -1.3917
14329TIP3   OH264477   4.865   6.121  14.794  0.1607  0.6605  0.0749
14329TIP3    H164478   4.805   6.049  14.808 -1.4115  1.6753 -1.2953
14329TIP3    H264479   4.892   6.113  14.702  1.4544  0.7123  0.4385
14330TIP3   OH264480   4.362   4.186  12.507 -0.1883  0.3382  0.4384
14330TIP3    H164481   4.408   4.145  12.580 -0.2764 -0.4042  0.0886
14330TIP3    H264482   4.399   4.274  12.501  1.3335 -0.3123  0.0291
14331TIP3   OH264483   0.240   1.440   3.118  0.0580  0.6473  0.0359
14331TIP3    H164484   0.203   1.352   3.106 -0.1791  0.7188  0.2210
14331TIP3    H264485   0.166   1.491   3.152  0.2325  0.8833  0.0538
14332TIP3   OH264486   5.324   6.620   5.013 -0.4869  0.4780  0.1293
14332TIP3    H164487   5.311   6.527   5.027  0.2625  0.2240 -0.7872
14332TIP3    H264488   5.414   6.637   5.044 -1.2305  1.2557  1.9539
14333TIP3   OH264489   3.519   1.491   1.698 -0.1174  0.3297  0.1152
14333TIP3    H164490   3.588   1.490   1.632 -0.6138  0.7625 -0.4224
14333TIP3    H264491   3.551   1.435   1.769 -0.2100 -1.3511 -1.1359
14334TIP3   OH264492   5.767   1.813  16.944  0.0811  0.6953  0.0081
14334TIP3    H164493   5.779   1.722  16.969  0.7104  1.5759  3.2081
14334TIP3    H264494   5.758   1.812  16.849  1.2823 -2.5630 -0.1082
14335TIP3   OH264495   1.511   4.253   1.854 -0.6714  0.2222 -0.0761
14335TIP3    H164496   1.438   4.202   1.889 -0.2801 -0.2830  0.0134
14335TIP3    H264497   1.475   4.296   1.777 -0.7376 -1.0022 -0.7465
14336TIP3   OH264498   4.209   4.550  16.778 -0.3931  0.0247 -0.0652
14336TIP3    H164499   4.298   4.586  16.768 -0.2868 -0.3068 -0.3098
14336TIP3    H264500   4.162   4.617  16.828 -0.0739  0.3140 -0.1489
14337TIP3   OH264501   6.388   5.910   6.352 -0.4464 -0.2815 -0.4326
14337TIP3    H164502   6.372   5.950   6.438 -1.2183 -1.9730  0.2346
14337TIP3    H264503   6.308   5.927   6.303 -0.0580  0.5667 -0.7842
14338TIP3   OH264504   6.566   6.367  13.230  0.1463 -0.4795 -0.3937
14338TIP3    H164505   6.619   6.439  13.265 -2.6782  0.7629  1.5478
14338TIP3    H264506   6.536   6.399  13.145 -1.7536  1.0298  0.8093
14339TIP3   OH264507   5.144   5.065   1.285  0.2632  0.3609  0.8846
14339TIP3    H164508   5.234   5.071   1.252 -0.1836  1.2927 -0.1802
14339TIP3    H264509   5.093   5.032   1.211 -0.1670 -0.8973  1.7076
14340TIP3   OH264510   0.352   6.621  15.584 -0.0212  0.3950  0.3622
14340TIP3    H164511   0.362   6.563  15.659  0.2168  3.3139  2.6971
14340TIP3    H264512   0.258   6.625  15.568 -0.0083 -0.9225 -0.0616
14341TIP3   OH264513   4.087   1.060   6.504  0.1059  0.5992  0.2654
14341TIP3    H164514   4.077   1.155   6.512 -1.8643  0.4824 -0.4841
14341TIP3    H264515   4.163   1.049   6.448  0.3383  1.7493  0.3345
14342TIP3   OH264516   2.192   3.893  17.271  0.1854 -0.2929  1.1523
14342TIP3    H164517   2.165   3.977  17.308 -1.0656 -0.3548  0.4390
14342TIP3    H264518   2.171   3.900  17.178 -0.1291 -1.4654  1.1213
14343TIP3   OH264519   4.290   1.644  11.808 -0.4407  0.1159 -0.6341
14343TIP3    H164520   4.200   1.652  11.841 -0.5253 -0.0128 -0.8327
14343TIP3    H264521   4.342   1.619  11.884 -0.6500 -0.2738 -0.6225
14344TIP3   OH264522   4.068   1.026  16.705 -0.0148  0.1271 -0.3595
14344TIP3    H164523   4.137   0.963  16.685  0.7637  0.4154  1.3953
14344TIP3    H264524   3.995   0.972  16.737  0.5441  0.0762  0.8515
14345TIP3   OH264525   3.835   1.355  11.134  0.0721  0.1622  0.2755
14345TIP3    H164526   3.844   1.303  11.055  1.3582  0.8603 -0.0487
14345TIP3    H264527   3.777   1.427  11.110  1.5237  1.1184 -0.4254
14346TIP3   OH264528   0.463   3.420  12.606  0.2254  0.4641  0.4078
14346TIP3    H164529   0.458   3.485  12.536 -0.8331  0.5550  0.5577
14346TIP3    H264530   0.523   3.353  12.573 -0.3166  0.4765 -0.6167
14347TIP3   OH264531   5.990   4.185   2.320  0.1929 -0.3452  0.5229
14347TIP3    H164532   6.042   4.231   2.254  0.6541 -0.2824  0.9238
14347TIP3    H264533   5.903   4.180   2.283  0.1312  0.8737  0.4673
14348TIP3   OH264534   6.412   0.095  14.206  0.1514  0.8688 -0.1036
14348TIP3    H164535   6.440   0.003  14.209  1.7328  1.3247 -0.1679
14348TIP3    H264536   6.317   0.091  14.195  0.1917 -0.7594 -0.0088
14349TIP3   OH264537   1.457   0.879   5.764  0.2015 -0.5209  0.2339
14349TIP3    H164538   1.487   0.823   5.692  0.4607 -1.0558  0.7565
14349TIP3    H264539   1.495   0.840   5.842 -1.0423 -0.6397  0.7976
14350TIP3   OH264540   6.303   6.406  10.680  0.0169  0.1822 -0.7800
14350TIP3    H164541   6.398   6.412  10.693 -0.1529  0.1058  0.5313
14350TIP3    H264542   6.283   6.314  10.695 -0.5580  0.5819  1.0351
14351TIP3   OH264543   6.644   4.567   3.179 -0.2117  0.4413 -0.0857
14351TIP3    H164544   6.621   4.584   3.270  2.1871  1.6299  0.3443
14351TIP3    H264545   6.613   4.643   3.131  0.6450  0.9382  0.1313
14352TIP3   OH264546   5.790   1.638   3.378 -0.2035  0.1168  0.2153
14352TIP3    H164547   5.781   1.547   3.349  1.2404 -0.4031  1.3517
14352TIP3    H264548   5.708   1.656   3.424  0.4870 -1.4145  2.1004
14353TIP3   OH264549   3.584   2.461  15.188 -0.3968 -0.1696 -0.7114
14353TIP3    H164550   3.596   2.507  15.104  1.1587  1.4113  0.3208
14353TIP3    H264551   3.609   2.526  15.254 -2.3162 -1.1588  1.0305
14354TIP3   OH264552   4.505   6.329   2.445 -0.6533  0.1598 -0.0763
14354TIP3    H164553   4.455   6.320   2.364 -0.3002  0.1041 -0.2889
14354TIP3    H264554   4.510   6.424   2.460 -1.0215  0.1552  0.0681
14355TIP3   OH264555   3.933   2.398  15.746 -0.0322 -0.0042  0.0879
14355TIP3    H164556   3.871   2.433  15.811  2.2531 -1.0005  2.8895
14355TIP3    H264557   3.892   2.317  15.716 -0.6900 -0.0178  0.9825
14356TIP3   OH264558   4.115   1.405   2.193  0.2858 -0.2000 -0.2930
14356TIP3    H164559   4.206   1.408   2.224  0.5571 -0.0814 -1.0725
14356TIP3    H264560   4.076   1.333   2.241  0.1707  1.1393  1.6801
14357TIP3   OH264561   6.344   3.689   5.623  0.3705  0.2678 -0.6032
14357TIP3    H164562   6.352   3.679   5.718  0.9375  1.3473 -0.5204
14357TIP3    H264563   6.343   3.600   5.589  0.7537 -0.1211  0.3808
14358TIP3   OH264564   0.506   5.920   5.948 -0.5707 -0.0287 -0.5355
14358TIP3    H164565   0.540   5.947   6.033 -0.7852 -1.0952 -0.1014
14358TIP3    H264566   0.422   5.879   5.967 -0.4733 -0.5700 -1.2195
14359TIP3   OH264567   4.271   5.082   4.159  0.7843  0.4695  0.7413
14359TIP3    H164568   4.346   5.040   4.115  0.2130  1.4951 -1.2638
14359TIP3    H264569   4.302   5.170   4.181 -0.6857  1.9028 -2.6539
14360TIP3   OH264570   2.117   1.054  13.965 -0.1390 -0.5141  0.0970
14360TIP3    H164571   2.168   1.132  13.944 -0.0386 -0.5079  0.3541
14360TIP3    H264572   2.074   1.076  14.048  0.7066 -1.1203  0.6994
14361TIP3   OH264573   3.525   5.543   1.342 -0.3085  0.8187 -0.3278
14361TIP3    H164574   3.526   5.551   1.437  1.4448 -1.5590 -0.0675
14361TIP3    H264575   3.582   5.613   1.311  0.2306  0.7435  0.4839
14362TIP3   OH264576   3.561   4.876   6.656 -0.4087 -0.0809 -0.1639
14362TIP3    H164577   3.534   4.955   6.609  0.6540  0.7122  0.5379
14362TIP3    H264578   3.483   4.822   6.659 -0.8158  0.3923 -1.7726
14363TIP3   OH264579   2.038   3.952   1.241  0.1223  0.5953 -0.1806
14363TIP3    H164580   1.996   4.009   1.176  3.8802  2.2842 -1.2320
14363TIP3    H264581   2.062   4.011   1.312  1.9375 -0.0731 -0.2248
14364TIP3   OH264582   3.331   5.360   5.987  0.0103 -0.2763 -0.0400
14364TIP3    H164583   3.324   5.417   5.910 -1.6641  3.0760  2.4750
14364TIP3    H264584   3.245   5.320   5.995  0.3530 -1.0564 -0.1975
14365TIP3   OH264585   5.162   2.901  11.692  0.0571 -0.0302  0.1775
14365TIP3    H164586   5.149   2.957  11.768  1.2914  0.4515  0.0370
14365TIP3    H264587   5.080   2.851  11.686 -1.4583  2.3824 -0.2430
14366TIP3   OH264588   3.424   5.953   3.941 -0.1807  0.7291 -0.1210
14366TIP3    H164589   3.513   5.956   3.906 -0.3688  1.2046 -0.5735
14366TIP3    H264590   3.369   5.978   3.867 -0.7035  0.3117  0.1216
14367TIP3   OH264591   5.008   0.122  15.000  0.2306  0.3138  0.0258
14367TIP3    H164592   5.088   0.174  14.998 -0.9302  2.2621  1.8520
14367TIP3    H264593   4.939   0.182  14.972 -1.1894 -0.0882  2.4824
14368TIP3   OH264594   2.057   4.142  11.139 -0.6989  0.3933  0.2967
14368TIP3    H164595   1.966   4.133  11.112 -0.0592 -2.3041 -1.1566
14368TIP3    H264596   2.053   4.153  11.234 -2.5109 -0.1033  0.2860
14369TIP3   OH264597   3.507   4.673  15.085  0.4910 -0.2244  0.5982
14369TIP3    H164598   3.472   4.588  15.060  1.2432 -0.1028 -0.9040
14369TIP3    H264599   3.600   4.658  15.099  0.6059  0.3265  0.4443
14370TIP3   OH264600   4.251   5.483  14.101  0.4181  0.2879  0.0406
14370TIP3    H164601   4.300   5.403  14.116 -1.2026 -0.7415  0.0006
14370TIP3    H264602   4.281   5.514  14.016  0.7785 -0.4828 -0.1152
14371TIP3   OH264603   5.667   6.425   2.935  0.1853  0.2224  0.1865
14371TIP3    H164604   5.628   6.414   3.021 -0.4450 -0.4699 -0.1825
14371TIP3    H264605   5.738   6.488   2.948 -0.1586  0.4118  1.1288
14372TIP3   OH264606   1.172   5.122   5.175 -0.0819 -0.1497 -0.3639
14372TIP3    H164607   1.111   5.075   5.118  0.4455  0.8466 -1.7905
14372TIP3    H264608   1.221   5.053   5.219 -0.9328 -0.9468 -0.6307
14373TIP3   OH264609   0.435   4.233  11.048  0.2109 -0.0106 -0.1377
14373TIP3    H164610   0.458   4.326  11.046  3.3272 -0.7560 -1.2133
14373TIP3    H264611   0.516   4.187  11.025 -1.2745 -3.0089  0.3455
14374TIP3   OH264612   4.246   1.620  14.251  0.3612  0.0650 -0.0561
14374TIP3    H164613   4.248   1.541  14.198 -0.5144 -0.3564  0.5254
14374TIP3    H264614   4.312   1.677  14.212  2.0328 -1.5107  0.3926
14375TIP3   OH264615   6.229   6.321  12.448 -0.3170 -0.1692 -0.0832
14375TIP3    H164616   6.148   6.277  12.419 -0.8341  1.5102 -1.2673
14375TIP3    H264617   6.230   6.403  12.399  1.9886 -0.0514  0.1331
14376TIP3   OH264618   1.687   6.810   6.694 -0.1736 -0.1849 -0.3376
14376TIP3    H164619   1.716   6.737   6.749  0.9851  1.4262  1.2510
14376TIP3    H264620   1.761   6.825   6.634 -1.2298 -1.6061 -2.0590
14377TIP3   OH264621   2.231   0.742   3.065  0.0997 -0.6293 -0.1290
14377TIP3    H164622   2.227   0.784   2.979  2.8774 -0.1110 -0.0589
14377TIP3    H264623   2.304   0.680   3.057 -0.6979 -1.7845  1.3510
14378TIP3   OH264624   4.324   3.384  16.850 -0.1109 -0.3754  0.3062
14378TIP3    H164625   4.416   3.411  16.852  0.0740 -1.0366  0.8650
14378TIP3    H264626   4.327   3.293  16.820 -0.4924 -0.7956  1.5231
14379TIP3   OH264627   1.797   1.706  11.981  0.1181  0.1962  0.7668
14379TIP3    H164628   1.708   1.685  12.009 -0.5624  1.8736 -0.0742
14379TIP3    H264629   1.791   1.796  11.950  2.9419  1.7855  4.4713
14380TIP3   OH264630   4.208   6.807   4.299 -0.2543  0.1147  0.1610
14380TIP3    H164631   4.210   6.731   4.357 -1.3240  0.5508  0.7809
14380TIP3    H264632   4.123   6.802   4.256  0.4308 -0.0653 -1.2078
14381TIP3   OH264633   3.781   0.954  10.616 -0.5972  0.4419  0.0074
14381TIP3    H164634   3.830   0.972  10.536 -1.6551  1.1306 -0.5086
14381TIP3    H264635   3.689   0.970  10.592 -0.9805  0.1441  1.2126
14382TIP3   OH264636   2.914   5.702   5.659  0.1268 -0.0388  0.1881
14382TIP3    H164637   2.940   5.783   5.705 -0.5470  0.7901 -0.8672
14382TIP3    H264638   2.835   5.727   5.611  0.3079 -1.1551 -0.6962
14383TIP3   OH264639   1.543   2.305   4.335 -0.9325  0.9056 -0.3118
14383TIP3    H164640   1.516   2.390   4.298  0.3979  1.1063 -0.8728
14383TIP3    H264641   1.613   2.327   4.396  1.4272 -0.0086 -2.5812
14384TIP3   OH264642   5.013   4.835  13.848  0.1583  0.6759  0.3283
14384TIP3    H164643   5.062   4.848  13.766 -0.7395 -1.0993 -0.5194
14384TIP3    H264644   5.074   4.789  13.905 -0.3850 -1.2808 -0.6255
14385TIP3   OH264645   5.696   3.296   3.516 -0.3763 -0.2869  0.9936
14385TIP3    H164646   5.674   3.212   3.475  1.8721 -0.8066  0.8297
14385TIP3    H264647   5.755   3.338   3.454 -1.4447  1.4155  1.1050
14386TIP3   OH264648   3.567   6.809   4.572  0.3261  0.2340  0.1259
14386TIP3    H164649   3.479   6.798   4.537  0.7285 -0.3505 -0.7035
14386TIP3    H264650   3.603   6.884   4.525  0.6325 -0.1512 -0.2596
14387TIP3   OH264651   1.787   1.186   2.735  0.0066  0.0651  0.5973
14387TIP3    H164652   1.725   1.122   2.701 -0.1994 -0.3160  1.6930
14387TIP3    H264653   1.871   1.140   2.736  0.3255  0.5762 -0.8722
14388TIP3   OH264654   2.613   5.211  15.887 -0.2386 -0.2568  0.1883
14388TIP3    H164655   2.683   5.176  15.943  1.9810  0.3478 -2.1294
14388TIP3    H264656   2.584   5.135  15.837  1.7644  0.3020 -1.9081
14389TIP3   OH264657   4.119   2.343   1.210  0.1752  0.0216  0.0619
14389TIP3    H164658   4.040   2.396   1.222 -0.6735 -0.9917 -0.9016
14389TIP3    H264659   4.152   2.370   1.124  0.4382 -0.1161  0.1230
14390TIP3   OH264660   4.752   1.409  10.838 -0.4515  0.1821 -0.3736
14390TIP3    H164661   4.758   1.314  10.826 -3.0223  0.1963 -1.9700
14390TIP3    H264662   4.830   1.443  10.794 -0.1220 -1.0838 -0.8076
14391TIP3   OH264663   4.094   4.703   1.672  0.2319 -0.1640 -0.1376
14391TIP3    H164664   4.080   4.756   1.594  2.6014  2.0807  0.9131
14391TIP3    H264665   4.015   4.717   1.724 -0.5190 -0.1606 -1.2567
14392TIP3   OH264666   1.188   1.944   1.427  0.1335  0.3873  0.2785
14392TIP3    H164667   1.264   1.954   1.370  1.4367 -4.9240  0.7380
14392TIP3    H264668   1.224   1.909   1.509 -2.5845 -0.6494  1.0990
14393TIP3   OH264669   1.988   4.199  17.090 -0.0489  0.5366 -0.6541
14393TIP3    H164670   1.935   4.259  17.039  0.5938  2.3977  0.8219
14393TIP3    H264671   2.057   4.253  17.128  1.1559 -1.3111 -0.1331
14394TIP3   OH264672   0.386   1.076   3.996 -0.0752  0.3140  0.5044
14394TIP3    H164673   0.361   1.022   4.071 -1.1413 -0.6743 -0.5414
14394TIP3    H264674   0.459   1.029   3.956  0.2082  0.6162  0.6611
14395TIP3   OH264675   0.635   6.639   4.768 -0.4363 -0.3555  0.5598
14395TIP3    H164676   0.647   6.650   4.673 -0.1858 -1.9004  0.3911
14395TIP3    H264677   0.711   6.681   4.807  0.2161 -0.9881 -0.0092
14396TIP3   OH264678   4.858   3.418   1.276  0.2941 -0.1062  0.1854
14396TIP3    H164679   4.826   3.368   1.201 -0.1375  0.4638 -0.0066
14396TIP3    H264680   4.937   3.371   1.303 -0.1783 -0.9757  0.0865
14397TIP3   OH264681   5.165   1.722   4.403 -0.1200 -0.3687 -0.8031
14397TIP3    H164682   5.169   1.797   4.343 -0.0591  0.8302  0.6846
14397TIP3    H264683   5.098   1.665   4.365 -1.6810  1.4407 -0.8160
14398TIP3   OH264684   1.855   3.865  12.501 -0.3416 -0.1040 -0.7083
14398TIP3    H164685   1.768   3.905  12.492  0.4726  1.1604 -3.4048
14398TIP3    H264686   1.846   3.805  12.575 -3.2306  0.7509 -0.3001
14399TIP3   OH264687   0.772   5.345  14.944 -0.1889  0.3895  0.6935
14399TIP3    H164688   0.764   5.268  14.888 -0.6040  0.7211  0.2864
14399TIP3    H264689   0.841   5.323  15.006 -0.0735 -0.1802  0.3651
14400TIP3   OH264690   5.379   4.370   1.026 -0.1523  0.1187  0.3866
14400TIP3    H164691   5.463   4.411   1.045  0.1569 -0.2263 -0.2268
14400TIP3    H264692   5.323   4.394   1.100  0.3056  0.8490  0.5040
14401TIP3   OH264693   3.765   0.443  14.715 -0.3023  0.5720  0.0682
14401TIP3    H164694   3.814   0.387  14.775  0.8636  2.1872  0.6465
14401TIP3    H264695   3.828   0.511  14.689 -0.8251 -0.0056 -2.8551
14402TIP3   OH264696   1.688   4.510   4.483  0.2850  0.4085  0.3998
14402TIP3    H164697   1.754   4.579   4.494  1.1495  0.1619 -2.9446
14402TIP3    H264698   1.701   4.453   4.559  2.9089  1.1899  0.5874
14403TIP3   OH264699   0.235   6.555   4.241 -0.2041 -0.2000  0.2741
14403TIP3    H164700   0.203   6.468   4.265  1.0507 -1.2562 -1.7180
14403TIP3    H264701   0.182   6.579   4.165  0.5723  0.0570 -0.1869
14404TIP3   OH264702   2.509   2.801  16.244  0.0710 -0.2647  0.2708
14404TIP3    H164703   2.501   2.854  16.323  1.9763  0.8706 -0.2581
14404TIP3    H264704   2.524   2.865  16.174 -2.1353 -1.1965 -1.1239
14405TIP3   OH264705   4.609   4.973   4.302  0.0767  0.5566  0.4252
14405TIP3    H164706   4.624   5.041   4.369  1.7386 -0.7093  1.3714
14405TIP3    H264707   4.621   5.019   4.219  0.8655  1.5284  1.0549
14406TIP3   OH264708   5.882   5.907  11.379  0.4928  0.2442  0.0500
14406TIP3    H164709   5.866   5.995  11.344  1.8201  0.7188  0.5970
14406TIP3    H264710   5.799   5.862  11.370 -0.0712  1.4135 -0.6853
14407TIP3   OH264711   3.589   6.724  16.570 -0.6949  0.3976 -0.1519
14407TIP3    H164712   3.635   6.808  16.572 -1.1523  0.7020 -2.0214
14407TIP3    H264713   3.549   6.720  16.484 -2.2407 -0.9196  0.5987
14408TIP3   OH264714   5.181   0.363   2.029 -0.3869 -0.0151  0.6382
14408TIP3    H164715   5.158   0.447   1.991  1.5187  0.9103  1.4640
14408TIP3    H264716   5.232   0.319   1.961 -3.9669 -1.8492 -0.9912
14409TIP3   OH264717   1.688   6.440   3.477 -0.2454  0.3764 -0.1623
14409TIP3    H164718   1.698   6.365   3.419 -0.4615  0.1410  0.1050
14409TIP3    H264719   1.749   6.424   3.548 -1.3459 -0.2807  0.6547
14410TIP3   OH264720   3.287   5.221   2.861 -0.2103  0.0635  0.0039
14410TIP3    H164721   3.263   5.288   2.925 -1.5854  0.8180 -1.2647
14410TIP3    H264722   3.349   5.165   2.907  0.2313  1.6568  1.3944
14411TIP3   OH264723   2.948   3.079   2.057 -0.1519  0.0319 -0.0082
14411TIP3    H164724   2.940   3.156   2.000 -0.2356  0.0454  0.0227
14411TIP3    H264725   2.881   3.019   2.026 -0.7267  0.3660  0.5942
14412TIP3   OH264726   5.213   6.350  15.316  0.0903 -0.2752 -0.2023
14412TIP3    H164727   5.271   6.289  15.362  3.2735  0.5693 -2.8591
14412TIP3    H264728   5.214   6.430  15.368  0.8364 -0.4786  0.0908
14413TIP3   OH264729   4.941   3.848  12.508  0.5005  0.3207 -0.3577
14413TIP3    H164730   4.856   3.893  12.506  1.0637  1.3650 -0.8068
14413TIP3    H264731   4.922   3.764  12.550 -0.6572  0.7617  0.0228
14414TIP3   OH264732   1.296   2.606  12.482 -0.2906  0.4961 -0.2850
14414TIP3    H164733   1.338   2.575  12.401 -0.3616  2.1476 -0.9795
14414TIP3    H264734   1.230   2.668  12.451  0.6000  2.1714  1.1152
14415TIP3   OH264735   5.376   5.720  12.761 -0.1827 -0.2207 -0.6292
14415TIP3    H164736   5.423   5.800  12.736  0.5842 -0.7004 -0.7456
14415TIP3    H264737   5.413   5.652  12.704 -0.8529 -0.6514 -0.5565
14416TIP3   OH264738   3.064   5.971  17.120 -0.3848  0.3437 -0.5833
14416TIP3    H164739   3.046   5.931  17.035 -0.1554 -1.1996  0.0656
14416TIP3    H264740   2.984   5.957  17.171  0.4537 -1.2285  0.3513
14417TIP3   OH264741   4.464   3.808  15.689  0.1842 -0.0841  0.2297
14417TIP3    H164742   4.499   3.772  15.608 -2.7682 -2.4487 -0.1008
14417TIP3    H264743   4.419   3.888  15.662 -0.3694 -0.6008 -0.4103
14418TIP3   OH264744   4.633   6.231   1.716  0.9304  0.7550  0.1809
14418TIP3    H164745   4.661   6.213   1.627  1.4982  1.9831  0.1012
14418TIP3    H264746   4.714   6.252   1.763  0.3333  2.9442  0.2894
14419TIP3   OH264747   1.471   0.759   2.244  0.2359  0.0357  0.9081
14419TIP3    H164748   1.391   0.729   2.202  0.4998  2.6008 -1.5897
14419TIP3    H264749   1.441   0.827   2.305  0.4270  0.7046  0.2718
14420TIP3   OH264750   0.188   2.912   0.882 -0.4074 -0.0387 -0.2774
14420TIP3    H164751   0.232   2.997   0.876  1.2617 -0.8620 -0.0892
14420TIP3    H264752   0.236   2.865   0.951 -0.7468 -1.4718 -0.9951
14421TIP3   OH264753   2.945   4.969  14.224 -0.5736  0.6553  0.1123
14421TIP3    H164754   3.018   5.018  14.261 -1.4875  1.0544  1.4379
14421TIP3    H264755   2.962   4.966  14.130  1.7256 -0.2503  0.5290
14422TIP3   OH264756   1.311   5.839   1.573  0.4692  0.0159  0.1740
14422TIP3    H164757   1.304   5.931   1.597  0.2857 -0.4972  2.1363
14422TIP3    H264758   1.271   5.834   1.487 -0.7257  1.5345  0.6228
14423TIP3   OH264759   0.235   2.459  12.631 -0.0928  0.2244  0.2615
14423TIP3    H164760   0.156   2.513  12.621 -0.3363 -0.2031 -0.1743
14423TIP3    H264761   0.254   2.428  12.542 -0.2345 -0.7855  0.5676
14424TIP3   OH264762   5.317   6.243  10.331 -0.5986  0.6541 -0.2311
14424TIP3    H164763   5.290   6.186  10.403 -1.2482 -0.9013 -1.6653
14424TIP3    H264764   5.379   6.304  10.370 -1.8355  0.5799  1.8822
14425TIP3   OH264765   4.592   3.203   1.645 -0.2954 -0.4505 -0.2481
14425TIP3    H164766   4.535   3.275   1.672  1.1776  0.3631  0.8026
14425TIP3    H264767   4.674   3.245   1.620  0.7904 -1.7865  0.9514
14426TIP3   OH264768   1.488   1.191  15.359  0.1521  0.1888  0.5025
14426TIP3    H164769   1.552   1.261  15.375 -0.4084  0.8874 -0.2399
14426TIP3    H264770   1.424   1.201  15.430 -0.7681  1.4355 -0.4850
14427TIP3   OH264771   6.182   6.718  14.231  0.1173 -0.2943  0.9779
14427TIP3    H164772   6.096   6.696  14.266 -0.2083 -1.4475 -0.4939
14427TIP3    H264773   6.244   6.676  14.291 -0.3967 -0.9478  1.0599
14428TIP3   OH264774   0.885   3.162   1.070  0.2388  0.0869  0.5488
14428TIP3    H164775   0.906   3.139   0.980  0.0331 -1.0143  0.7838
14428TIP3    H264776   0.949   3.231   1.092 -0.5955  1.3539 -0.8752
14429TIP3   OH264777   4.014   2.705  16.344  0.4689  0.4609 -0.3058
14429TIP3    H164778   3.964   2.673  16.270  0.3547 -0.1615  0.0363
14429TIP3    H264779   4.057   2.627  16.380 -2.3393  0.0973  2.4626
14430TIP3   OH264780   5.366   3.674   4.115 -0.6459 -0.4342 -0.2240
14430TIP3    H164781   5.291   3.643   4.166 -0.7091  1.4849  0.9106
14430TIP3    H264782   5.359   3.769   4.119  1.4029 -0.2524 -0.7933
14431TIP3   OH264783   3.808   6.195  16.835  0.4451  0.2636  0.7340
14431TIP3    H164784   3.715   6.210  16.818  0.3282  1.0180  1.9731
14431TIP3    H264785   3.846   6.178  16.748 -1.1406 -1.8066  0.3972
14432TIP3   OH264786   0.616   3.744  14.613 -0.1355 -0.3051  0.6317
14432TIP3    H164787   0.702   3.702  14.620 -0.1418  0.0486  2.9132
14432TIP3    H264788   0.635   3.830  14.575 -0.1569 -2.3264 -4.4124
14433TIP3   OH264789   4.462   3.646   0.384  0.0989  1.0297 -0.0199
14433TIP3    H164790   4.506   3.731   0.391  2.3981 -0.0842 -0.2731
14433TIP3    H264791   4.425   3.645   0.296 -0.3241  1.9372  0.1463
14434TIP3   OH264792   5.412   5.362   4.104 -0.1246  0.5445 -0.0182
14434TIP3    H164793   5.457   5.442   4.078  0.3041  0.3858  0.2248
14434TIP3    H264794   5.423   5.358   4.199  1.5261 -0.7796 -0.2303
14435TIP3   OH264795   4.554   1.100  16.180  0.2323 -0.1799  0.4159
14435TIP3    H164796   4.624   1.064  16.234 -0.3284  1.6969  2.4393
14435TIP3    H264797   4.574   1.193  16.174 -0.8135 -0.0236 -1.0019
14436TIP3   OH264798   0.112   0.812  16.537 -0.2943  0.7619 -0.2100
14436TIP3    H164799   0.178   0.862  16.584 -0.4711  1.0855 -0.3096
14436TIP3    H264800   0.030   0.831  16.582 -0.3325  0.4064 -0.1246
14437TIP3   OH264801   0.186   1.410  11.113  0.5918  0.1496 -0.3076
14437TIP3    H164802   0.194   1.504  11.102 -3.1385  0.5229 -0.6540
14437TIP3    H264803   0.176   1.396  11.207  0.4367  0.1847 -0.3185
14438TIP3   OH264804   0.870   1.363  14.019 -0.3913 -0.6902  0.3555
14438TIP3    H164805   0.869   1.350  13.924  0.5139  0.6656  0.1463
14438TIP3    H264806   0.778   1.361  14.045 -0.7210  0.1967 -0.7267
14439TIP3   OH264807   3.956   6.785  15.681  0.7312  0.1852  0.4251
14439TIP3    H164808   3.991   6.701  15.651 -0.2747 -0.7544  1.7627
14439TIP3    H264809   3.892   6.760  15.749 -1.8226  1.8489 -1.2830
14440TIP3   OH264810   6.586   0.485   4.023 -0.0013  0.0858  0.3404
14440TIP3    H164811   6.640   0.437   3.961  0.2231  1.1693 -0.3262
14440TIP3    H264812   6.647   0.509   4.093  0.0651  0.0772  0.2857
14441TIP3   OH264813   3.570   3.645  14.124  0.3444  0.3256 -0.2772
14441TIP3    H164814   3.489   3.614  14.163  1.0294  1.1486  1.9061
14441TIP3    H264815   3.578   3.735  14.154  2.0274  0.2755 -0.5136
14442TIP3   OH264816   6.371   2.939  13.775  0.0789 -0.1608 -0.4976
14442TIP3    H164817   6.292   2.971  13.819  0.6514 -2.2533  2.2264
14442TIP3    H264818   6.346   2.929  13.684 -2.9495 -1.1844  0.3896
14443TIP3   OH264819   5.315   2.220  11.488 -0.4424 -0.0711  0.2385
14443TIP3    H164820   5.331   2.218  11.582 -1.2596  1.1290  0.4124
14443TIP3    H264821   5.342   2.307  11.461 -0.5808 -0.2771 -0.5742
14444TIP3   OH264822   2.335   5.703   4.260  0.1879  0.1394 -0.1613
14444TIP3    H164823   2.321   5.790   4.297 -2.2290 -0.1469 -0.3610
14444TIP3    H264824   2.271   5.696   4.189  1.1458 -1.3717 -0.8987
14445TIP3   OH264825   6.176   5.431  15.367  0.4048 -0.1099  0.2272
14445TIP3    H164826   6.121   5.370  15.416  1.2138 -0.1163  1.1746
14445TIP3    H264827   6.204   5.383  15.290  0.9828 -0.9387  0.9373
14446TIP3   OH264828   4.484   3.042  12.539  0.5355  0.6891  0.0367
14446TIP3    H164829   4.408   3.100  12.537 -0.4267 -0.5268  0.6433
14446TIP3    H264830   4.447   2.954  12.526  2.0573  0.2956 -1.8165
14447TIP3   OH264831   6.160   2.834  16.116 -0.0497 -0.0501  0.5097
14447TIP3    H164832   6.207   2.753  16.134 -1.4046 -0.7128  1.1503
14447TIP3    H264833   6.069   2.815  16.139 -0.4377  1.5633  0.3980
14448TIP3   OH264834   4.265   5.275   4.493  0.5248 -0.2182  0.3969
14448TIP3    H164835   4.333   5.240   4.551 -0.5092 -0.8161  1.2667
14448TIP3    H264836   4.212   5.199   4.470  0.8340  0.0458 -1.2266
14449TIP3   OH264837   5.857   1.196  16.082 -0.0093 -0.0386  0.7633
14449TIP3    H164838   5.929   1.241  16.127  0.1425 -0.7914  1.2829
14449TIP3    H264839   5.785   1.198  16.145 -0.3302  0.3913  0.3856
14450TIP3   OH264840   3.127   4.557  12.711  0.2447 -0.3257  0.0207
14450TIP3    H164841   3.047   4.517  12.679  0.1278  0.0760 -0.1891
14450TIP3    H264842   3.133   4.641  12.664  2.0322 -1.4259 -1.7778
14451TIP3   OH264843   3.536   1.944   1.366 -0.3260  0.0317 -0.2693
14451TIP3    H164844   3.516   1.861   1.409  0.1374 -0.3897 -0.8607
14451TIP3    H264845   3.586   1.920   1.288 -1.1047  0.7804 -1.0229
14452TIP3   OH264846   2.138   0.451   2.097  0.0163  0.1359  0.3122
14452TIP3    H164847   2.105   0.540   2.089 -2.9437 -1.0100 -0.7302
14452TIP3    H264848   2.179   0.433   2.012  0.0854  0.2990  0.3112
14453TIP3   OH264849   5.492   3.643   5.809 -0.3094 -0.0382  0.3191
14453TIP3    H164850   5.583   3.668   5.824 -0.1766 -0.6686  0.5678
14453TIP3    H264851   5.453   3.720   5.767  0.4163  0.1188 -0.0796
14454TIP3   OH264852   6.328   6.621  14.886  0.2773  0.2070  0.2911
14454TIP3    H164853   6.308   6.601  14.795 -1.2197 -1.0034  0.8588
14454TIP3    H264854   6.410   6.576  14.904  0.6351  0.5439 -0.4795
14455TIP3   OH264855   0.976   4.248  16.307  0.4650 -0.2993  0.4330
14455TIP3    H164856   0.891   4.260  16.264  0.3460  0.6801  0.9337
14455TIP3    H264857   1.031   4.209  16.239 -0.0626  0.1229 -0.2494
14456TIP3   OH264858   6.061   6.349  15.737 -0.1682  0.3557  0.0507
14456TIP3    H164859   5.980   6.399  15.725  0.0090  0.8263  0.8317
14456TIP3    H264860   6.079   6.354  15.831 -0.6094 -1.8677  0.2878
14457TIP3   OH264861   2.950   1.269  11.705  0.1840  0.1800 -0.4550
14457TIP3    H164862   2.902   1.229  11.778 -0.8401 -0.2207 -1.3354
14457TIP3    H264863   2.967   1.196  11.645 -1.1878  0.9251 -1.7942
14458TIP3   OH264864   0.015   6.466  10.789 -0.1494  0.0804  0.0009
14458TIP3    H164865   0.054   6.552  10.807 -0.7656  0.5254 -0.7746
14458TIP3    H264866   0.086   6.404  10.806  0.8761  0.8694 -1.2999
14459TIP3   OH264867   6.506   1.632  13.794 -0.2195 -0.9753 -0.0593
14459TIP3    H164868   6.511   1.727  13.791  0.0796 -1.0001 -0.3074
14459TIP3    H264869   6.580   1.605  13.849  0.1412 -1.1092 -0.6115
14460TIP3   OH264870   0.706   5.459  15.594  0.2401 -0.1077 -0.0434
14460TIP3    H164871   0.695   5.534  15.536  0.0454  0.2474  0.4440
14460TIP3    H264872   0.630   5.404  15.578  1.1602 -0.9986 -1.5454
14461TIP3   OH264873   0.402   3.516   1.358  0.1102 -0.1939 -0.3553
14461TIP3    H164874   0.473   3.452   1.368  1.1399  0.7369 -1.5628
14461TIP3    H264875   0.327   3.464   1.328  0.3509 -1.1471  0.6763
14462TIP3   OH264876   6.311   1.910   6.522 -0.4499 -0.4074 -0.3440
14462TIP3    H164877   6.243   1.843   6.525 -0.4823 -0.3139  0.9668
14462TIP3    H264878   6.384   1.868   6.475 -0.4461 -1.3855  0.5240
14463TIP3   OH264879   1.959   3.797   4.915  0.1146 -0.0217  0.0743
14463TIP3    H164880   1.908   3.876   4.897  1.0287  0.5002 -0.2979
14463TIP3    H264881   1.928   3.733   4.851  0.5007  0.5525 -0.7069
14464TIP3   OH264882   3.668   5.726  14.575  0.6104  0.0899  0.1934
14464TIP3    H164883   3.756   5.704  14.545 -0.1823 -1.4056 -1.1398
14464TIP3    H264884   3.630   5.643  14.601 -0.2050  0.8140  1.3381
14465TIP3   OH264885   4.051   2.806   5.837  0.2543  0.4028 -0.1491
14465TIP3    H164886   3.956   2.801   5.846  0.0677  0.1150 -2.0403
14465TIP3    H264887   4.085   2.776   5.921 -1.3193  0.2542  0.4507
14466TIP3   OH264888   4.781   0.546  16.019 -0.3622 -0.0298  0.1703
14466TIP3    H164889   4.867   0.588  16.029  1.2367 -3.0874 -0.0093
14466TIP3    H264890   4.759   0.514  16.106 -1.3134  0.6802  0.2009
14467TIP3   OH264891   4.037   5.101   4.273 -0.4926 -0.1479 -0.8490
14467TIP3    H164892   4.019   5.191   4.246 -0.6466  0.7630  2.1065
14467TIP3    H264893   4.125   5.083   4.239 -0.5054  1.0738 -1.5698
14468TIP3   OH264894   4.954   0.569  17.163 -0.3036 -0.2239 -0.5977
14468TIP3    H164895   5.008   0.640  17.128  0.4381  0.1893  1.3425
14468TIP3    H264896   4.994   0.548  17.247 -1.6887 -1.6291 -0.2792
14469TIP3   OH264897   0.235   1.411   1.441 -0.4442  0.2793 -0.2995
14469TIP3    H164898   0.263   1.320   1.444 -2.0215 -0.1766  1.8222
14469TIP3    H264899   0.317   1.461   1.437  0.4175 -1.2210 -1.8356
14470TIP3   OH264900   6.768   3.437  10.724  0.0182 -0.6081  0.0507
14470TIP3    H164901   6.837   3.479  10.776 -0.3713 -1.7712  1.5762
14470TIP3    H264902   6.709   3.508  10.699  1.2247  0.2401 -0.3899
14471TIP3   OH264903   4.904   3.449   3.000  0.1038 -0.2548  0.1371
14471TIP3    H164904   4.932   3.541   3.003 -0.3897 -0.1084  0.3697
14471TIP3    H264905   4.830   3.449   2.940  1.1595 -0.7989 -1.2010
14472TIP3   OH264906   5.578   2.359   0.440  0.5658 -0.7715  0.2344
14472TIP3    H164907   5.608   2.439   0.482 -0.5944 -0.2587  0.1010
14472TIP3    H264908   5.582   2.293   0.509  0.2641 -0.3024  0.7024
14473TIP3   OH264909   4.640   1.253   3.916  0.1264  0.3755 -0.2458
14473TIP3    H164910   4.715   1.310   3.936  0.1093 -0.3543  2.0436
14473TIP3    H264911   4.614   1.278   3.827  2.5862  1.1909 -0.7871
14474TIP3   OH264912   0.912   5.191  11.567 -0.0421  0.4474  0.5824
14474TIP3    H164913   0.984   5.229  11.618 -1.0523  0.5188  1.9876
14474TIP3    H264914   0.914   5.098  11.588  1.1861  0.0012 -1.3293
14475TIP3   OH264915   4.246   4.420  14.870  0.6481  0.3903 -0.0277
14475TIP3    H164916   4.200   4.390  14.948  0.8114 -1.6350 -0.6910
14475TIP3    H264917   4.308   4.486  14.903  0.8116 -0.5349  1.5722
14476TIP3   OH264918   3.684   3.370   2.291  0.3836  0.0259  0.1298
14476TIP3    H164919   3.660   3.454   2.330  0.4641 -0.1864  0.6454
14476TIP3    H264920   3.601   3.328   2.268  0.1695 -1.1167  2.7639
14477TIP3   OH264921   4.603   6.768   4.830  0.4100 -0.3377  0.2317
14477TIP3    H164922   4.639   6.857   4.829  2.5635 -1.1594  0.0897
14477TIP3    H264923   4.521   6.775   4.782  0.2347  1.6920  0.7592
14478TIP3   OH264924   1.411   1.338  12.886  1.0064 -0.1909  0.2250
14478TIP3    H164925   1.377   1.310  12.802 -0.7681  0.1190  0.8263
14478TIP3    H264926   1.426   1.432  12.876 -1.0246  0.2141  0.8406
14479TIP3   OH264927   3.895   2.486  13.571 -0.1862  0.6172  0.2904
14479TIP3    H164928   3.865   2.519  13.655 -1.8510 -0.5359  0.1811
14479TIP3    H264929   3.816   2.449  13.530  1.0058 -0.7604 -0.8375
14480TIP3   OH264930   2.492   0.841  12.933  0.0385 -0.1390  0.1264
14480TIP3    H164931   2.522   0.786  12.860  0.7244  0.8826 -0.3808
14480TIP3    H264932   2.480   0.927  12.893  1.7365  0.7687  1.5044
14481TIP3   OH264933   5.728   2.364  14.926  0.4261  0.4080 -0.5896
14481TIP3    H164934   5.696   2.274  14.926  0.9446  0.1885  1.2885
14481TIP3    H264935   5.704   2.398  15.013 -0.7310  2.4530 -1.6415
14482TIP3   OH264936   6.484   0.992   4.766  0.1279 -0.3101  0.7062
14482TIP3    H164937   6.498   1.087   4.775  0.1437 -0.1260 -1.0893
14482TIP3    H264938   6.421   0.970   4.835 -1.1417  1.3109  0.0915
14483TIP3   OH264939   5.180   6.504   1.000  0.0943  0.4107 -0.0319
14483TIP3    H164940   5.150   6.573   1.059  0.6350  1.6687 -1.2164
14483TIP3    H264941   5.244   6.546   0.943 -1.6956 -0.3279 -2.7132
14484TIP3   OH264942   2.994   6.115   0.563  0.4104 -0.6508  0.1872
14484TIP3    H164943   2.932   6.045   0.583 -0.1462  0.1000  1.0974
14484TIP3    H264944   3.000   6.115   0.467 -1.7788 -0.0262  0.0339
14485TIP3   OH264945   3.640   0.081   3.038  0.3763 -0.0696 -0.1739
14485TIP3    H164946   3.559   0.044   3.071 -0.5890  2.4436  0.3916
14485TIP3    H264947   3.614   0.160   2.990  2.3602  0.0748 -1.1018
14486TIP3   OH264948   2.523   4.554   5.159  0.2067  0.3209 -0.0639
14486TIP3    H164949   2.468   4.611   5.214 -2.1858  0.1279 -2.1831
14486TIP3    H264950   2.475   4.472   5.153 -0.0452  0.6408 -3.1743
14487TIP3   OH264951   5.993   4.556   6.078  0.1174 -0.1055  0.2637
14487TIP3    H164952   5.993   4.622   6.009 -0.4717 -1.2753 -0.8714
14487TIP3    H264953   6.024   4.476   6.035 -0.7595 -0.9739  1.2078
14488TIP3   OH264954   4.674   2.494   0.471 -0.5459 -0.1034 -0.0823
14488TIP3    H164955   4.650   2.574   0.518 -0.8665 -0.1408 -0.1833
14488TIP3    H264956   4.691   2.430   0.540 -1.1149 -0.1863 -0.0182
14489TIP3   OH264957   3.310   2.319  14.257  0.2536 -0.0927  0.0647
14489TIP3    H164958   3.272   2.266  14.187 -0.4070 -0.1741  0.4720
14489TIP3    H264959   3.252   2.304  14.332  2.0632 -1.6106  1.2277
14490TIP3   OH264960   2.974   5.710  12.836 -0.1533 -0.0812  0.3463
14490TIP3    H164961   2.978   5.668  12.750 -0.2268  2.1057 -0.7476
14490TIP3    H264962   2.888   5.685  12.870  0.1602 -1.5378  0.0944
14491TIP3   OH264963   6.403   1.569  16.316 -0.7240  0.3793  0.3195
14491TIP3    H164964   6.476   1.554  16.257 -2.8428 -0.7726 -2.1250
14491TIP3    H264965   6.431   1.641  16.372  2.1406  0.1451 -0.7443
14492TIP3   OH264966   1.983   0.834   0.688 -0.3520 -0.1564 -0.3368
14492TIP3    H164967   1.956   0.798   0.604 -0.1424 -1.4246  0.1255
14492TIP3    H264968   1.974   0.928   0.678  0.6922 -0.2229 -2.1384
14493TIP3   OH264969   4.330   6.057   0.335 -0.0235 -0.0702  0.4540
14493TIP3    H164970   4.315   6.083   0.244 -0.1394 -0.8014  0.2628
14493TIP3    H264971   4.423   6.074   0.349  0.1027 -0.4256  0.0458
14494TIP3   OH264972   3.295   5.322  16.639  1.0605 -0.2698  0.2529
14494TIP3    H164973   3.262   5.310  16.550  0.9326  0.4784  0.1926
14494TIP3    H264974   3.370   5.263  16.645  1.1940 -0.1735 -0.4256
14495TIP3   OH264975   2.759   1.151  17.066 -0.0961  0.6328  0.0276
14495TIP3    H164976   2.776   1.243  17.046 -0.0956  0.2126 -1.9846
14495TIP3    H264977   2.810   1.102  17.002 -0.7823 -0.7731  0.5243
14496TIP3   OH264978   6.093   2.332  13.333  0.1209 -0.2495  0.5077
14496TIP3    H164979   6.100   2.256  13.275 -1.2998 -1.2653  1.6124
14496TIP3    H264980   6.008   2.370  13.311  1.1957  1.5483 -0.6332
14497TIP3   OH264981   0.985   3.054   0.834  0.1693  0.1145 -0.1091
14497TIP3    H164982   1.045   2.985   0.863 -1.1831 -0.5830  1.0842
14497TIP3    H264983   0.944   3.019   0.755 -1.0429 -0.7643  0.8963
14498TIP3   OH264984   5.573   6.239  15.278  0.2800 -0.6574 -0.1606
14498TIP3    H164985   5.594   6.326  15.243  1.9959 -1.7149 -1.9484
14498TIP3    H264986   5.528   6.256  15.360 -0.3026  1.9322 -0.9521
14499TIP3   OH264987   5.531   3.678  13.442  0.7058 -0.3238 -0.1827
14499TIP3    H164988   5.553   3.643  13.528 -0.6881  0.1546  0.3846
14499TIP3    H264989   5.450   3.634  13.417 -0.3970  1.5345 -0.0075
14500TIP3   OH264990   5.954   0.646  16.892 -0.0720 -0.1310 -0.2568
14500TIP3    H164991   6.032   0.658  16.946  0.9641 -1.4726 -1.4021
14500TIP3    H264992   5.983   0.588  16.822 -1.4248  1.5074 -2.2052
14501TIP3   OH264993   3.174   3.688  12.387 -0.5312 -0.2634  0.1485
14501TIP3    H164994   3.261   3.660  12.415 -0.7302 -0.8796  0.1509
14501TIP3    H264995   3.160   3.771  12.433 -0.2737 -0.5628  0.7699
14502TIP3   OH264996   4.792   4.234   2.027  0.2695 -0.2924 -0.1800
14502TIP3    H164997   4.865   4.295   2.022 -0.4582  0.7584  1.5823
14502TIP3    H264998   4.719   4.286   2.060 -1.0428 -1.5484 -1.0215
14503TIP3   OH264999   1.734   4.661   0.536 -0.4170 -0.6306  0.1973
14503TIP3    H165000   1.665   4.713   0.577  0.7740  0.4377  0.8719
14503TIP3    H265001   1.722   4.675   0.442 -1.8797 -1.4467  0.2437
14504TIP3   OH265002   1.444   5.711   4.993  0.0816 -0.1598 -0.9719
14504TIP3    H165003   1.443   5.759   4.910 -4.4638  0.9542 -0.4176
14504TIP3    H265004   1.400   5.628   4.973 -1.9319  0.5209  0.4817
14505TIP3   OH265005   0.498   2.705   3.735  0.0406  0.4662  0.5524
14505TIP3    H165006   0.472   2.776   3.677  0.5942  1.1001  1.0833
14505TIP3    H265007   0.432   2.705   3.804  0.0846  0.5052  0.5938
14506TIP3   OH265008   1.723   2.371  10.681 -0.4095  0.2115  0.1696
14506TIP3    H165009   1.638   2.327  10.684  0.3426 -1.5540 -2.7004
14506TIP3    H265010   1.703   2.459  10.650 -1.2623  0.0425  0.2217
14507TIP3   OH265011   2.154   3.220   2.159 -0.0845  0.2805  0.2287
14507TIP3    H165012   2.219   3.169   2.206  0.3203  0.4779 -0.1143
14507TIP3    H265013   2.204   3.290   2.117 -0.3289 -0.3471 -1.1292
14508TIP3   OH265014   0.325   2.393   3.845 -0.3821  0.2678  0.5040
14508TIP3    H165015   0.404   2.405   3.897 -0.3208  1.9177  0.0516
14508TIP3    H265016   0.357   2.358   3.761 -0.2897 -0.4909  0.8511
14509TIP3   OH265017   6.172   6.411   4.517 -0.0424 -0.1706 -0.1772
14509TIP3    H165018   6.212   6.492   4.550  0.3274  0.5595 -2.3078
14509TIP3    H265019   6.079   6.421   4.537 -0.0163  0.8407 -0.5235
14510TIP3   OH265020   0.421   3.349  11.684 -0.0058 -0.4392  0.4386
14510TIP3    H165021   0.408   3.396  11.602  1.3357 -0.0396  0.4584
14510TIP3    H265022   0.464   3.268  11.659 -2.8041 -1.9824  0.3349
14511TIP3   OH265023   2.406   3.583  11.178 -0.3490 -0.0094 -0.5208
14511TIP3    H165024   2.324   3.569  11.224  0.1338  0.3822  0.4624
14511TIP3    H265025   2.384   3.642  11.106 -0.8321  0.4587  0.0122
14512TIP3   OH265026   5.972   4.758   4.790 -0.2029  0.2367 -0.1243
14512TIP3    H165027   5.905   4.825   4.795 -1.8261 -1.3874  0.6291
14512TIP3    H265028   5.981   4.727   4.880  1.6217  0.4728 -0.2033
14513TIP3   OH265029   3.357   3.797  12.642 -0.1398 -0.3200 -0.2996
14513TIP3    H165030   3.425   3.827  12.702  0.6200 -0.4072 -1.1255
14513TIP3    H265031   3.291   3.757  12.700  0.5623 -0.3550  0.4857
14514TIP3   OH265032   6.570   6.676   3.298  0.0739 -0.5381 -0.7704
14514TIP3    H165033   6.566   6.583   3.275  0.1998 -0.7739  0.1263
14514TIP3    H265034   6.601   6.676   3.389  4.1886  0.5199 -2.0715
14515TIP3   OH265035   6.739   0.623   0.928 -0.6900 -0.4352  0.2156
14515TIP3    H165036   6.661   0.677   0.917 -0.7816 -0.4531  0.7689
14515TIP3    H265037   6.710   0.534   0.907 -1.0769 -0.6016  1.3969
14516TIP3   OH265038   4.838   3.863   4.399  0.1136  0.0260 -0.2382
14516TIP3    H165039   4.928   3.856   4.432 -0.9004  0.7984  2.7989
14516TIP3    H265040   4.832   3.951   4.364 -0.3945  1.1607  2.5906
14517TIP3   OH265041   0.177   6.060   0.986 -0.2886 -0.3976  0.2507
14517TIP3    H165042   0.092   6.025   1.012 -0.3617 -1.0661 -0.8493
14517TIP3    H265043   0.236   5.985   0.990 -0.0898 -0.2841 -0.5078
14518TIP3   OH265044   0.685   1.265   5.076  0.2275  0.0047  0.4161
14518TIP3    H165045   0.722   1.201   5.136  3.7527  1.6965  0.1846
14518TIP3    H265046   0.667   1.216   4.996  0.6268 -1.1667  1.0426
14519TIP3   OH265047   2.912   3.875  16.432  0.0531  0.2426 -0.0789
14519TIP3    H165048   2.928   3.958  16.477 -0.7204  0.3404  0.0114
14519TIP3    H265049   2.887   3.814  16.502  0.9815 -0.1706 -0.0948
14520TIP3   OH265050   6.079   5.678  15.451 -0.3669  0.4851 -0.1353
14520TIP3    H165051   6.036   5.715  15.375  0.9289  1.4544 -0.4131
14520TIP3    H265052   6.095   5.586  15.427 -1.6517  0.2890 -0.2790
14521TIP3   OH265053   0.542   2.856   2.805  0.2295  0.3416  0.6473
14521TIP3    H165054   0.485   2.800   2.858  3.6086 -3.3182  0.6616
14521TIP3    H265055   0.503   2.854   2.717 -0.9767 -0.1633  1.1845
14522TIP3   OH265056   0.810   1.513  15.263  0.0824  0.4527 -0.1357
14522TIP3    H165057   0.857   1.528  15.181  0.3225 -1.1544 -0.3030
14522TIP3    H265058   0.830   1.423  15.287  0.8315  1.1925  2.2216
14523TIP3   OH265059   3.827   5.621  11.559  0.5174  0.3408 -0.3265
14523TIP3    H165060   3.901   5.580  11.515  1.5129  1.6629  0.0867
14523TIP3    H265061   3.843   5.605  11.652  0.6772  1.2684 -0.1898
14524TIP3   OH265062   5.085   6.338  12.004  0.4674 -0.5779 -0.1815
14524TIP3    H165063   5.062   6.431  12.004  0.0451 -0.6798  0.8145
14524TIP3    H265064   5.161   6.333  11.945  0.0908  0.2883 -0.7621
14525TIP3   OH265065   0.953   1.318  11.835 -0.0268  0.0495 -0.3153
14525TIP3    H165066   0.860   1.339  11.846  0.0475  0.3989 -0.3340
14525TIP3    H265067   0.972   1.255  11.904 -0.4269 -0.4959 -0.6997
14526TIP3   OH265068   0.224   1.230  10.544 -0.0778 -0.1888  0.1590
14526TIP3    H165069   0.253   1.304  10.490 -1.8943 -0.6180 -1.4601
14526TIP3    H265070   0.302   1.177  10.556  1.2024  1.8649  1.1507
14527TIP3   OH265071   5.691   3.749   3.630 -0.4117 -0.7339  0.1043
14527TIP3    H165072   5.614   3.693   3.621 -0.3869 -0.6531 -0.6832
14527TIP3    H265073   5.712   3.746   3.723 -0.5527 -1.8360  0.1062
14528TIP3   OH265074   3.370   0.233   0.535 -0.3692 -0.0061  0.2037
14528TIP3    H165075   3.301   0.175   0.568  0.4814 -1.3074 -0.2724
14528TIP3    H265076   3.325   0.293   0.476 -1.1147 -0.7686 -0.0035
14529TIP3   OH265077   0.754   0.316  14.412  0.1986  0.0827 -0.2144
14529TIP3    H165078   0.811   0.250  14.372  0.7685  0.9298 -0.8335
14529TIP3    H265079   0.690   0.266  14.461 -0.1307 -0.9918 -1.6940
14530TIP3   OH265080   0.468   3.720  16.178  0.6768  0.0425 -0.4133
14530TIP3    H165081   0.460   3.790  16.242  0.0204 -0.2452 -0.1700
14530TIP3    H265082   0.457   3.639  16.229 -1.3025 -0.1490 -1.0863
14531TIP3   OH265083   3.586   4.970  12.606 -0.1880  0.4454  0.2278
14531TIP3    H165084   3.615   4.887  12.569 -1.5383 -0.1328  0.4416
14531TIP3    H265085   3.633   5.037  12.556 -0.6850 -0.3715 -1.3619
14532TIP3   OH265086   0.076   6.614  12.953 -0.4331  0.0912  0.1178
14532TIP3    H165087   0.164   6.596  12.988 -0.1716 -0.2323 -0.7040
14532TIP3    H265088   0.060   6.705  12.975  0.0992  0.1467  0.2911
14533TIP3   OH265089   3.467   5.663   2.493 -0.1420 -0.4029 -0.0598
14533TIP3    H165090   3.519   5.604   2.439  0.5337 -1.5083  1.7344
14533TIP3    H265091   3.511   5.662   2.578 -1.1720  1.2919  0.5165
14534TIP3   OH265092   4.825   1.241   3.154  0.0597  0.2819  0.4231
14534TIP3    H165093   4.763   1.235   3.082 -0.3981 -0.3336  0.8641
14534TIP3    H265094   4.824   1.333   3.179  0.0895  0.4632 -0.2436
14535TIP3   OH265095   6.370   1.251   1.661 -0.0233  0.0762 -0.0962
14535TIP3    H165096   6.365   1.168   1.614 -1.3043  0.1922 -0.1682
14535TIP3    H265097   6.448   1.242   1.716 -0.2554 -1.2514  0.0414
14536TIP3   OH265098   0.891   1.925  14.573  0.0750 -0.4630 -0.1410
14536TIP3    H165099   0.796   1.929  14.557 -0.2671  0.6556  1.9553
14536TIP3    H265100   0.925   2.004  14.530 -0.0427 -0.5221 -0.3430
14537TIP3   OH265101   3.480   3.932  14.547  0.6606  0.3718 -0.0320
14537TIP3    H165102   3.560   3.906  14.501  0.0107  0.5185 -1.2621
14537TIP3    H265103   3.464   4.022  14.518  0.2994  0.5021  0.5697
14538TIP3   OH265104   2.232   6.811  15.314 -0.0078  0.0568 -0.4254
14538TIP3    H165105   2.209   6.888  15.367 -0.0268  1.0395 -1.8549
14538TIP3    H265106   2.185   6.824  15.232  0.1594 -1.3945 -0.7554
14539TIP3   OH265107   1.666   4.074   1.314 -0.1396 -0.2480 -0.3047
14539TIP3    H165108   1.677   4.099   1.405  0.5759 -0.3598 -0.3561
14539TIP3    H265109   1.600   4.005   1.315 -0.5869  0.1847  0.0591
14540TIP3   OH265110   6.706   2.191  15.653 -0.2656 -0.0752  0.0464
14540TIP3    H165111   6.623   2.154  15.681 -0.4759  0.1399 -0.2913
14540TIP3    H265112   6.693   2.286  15.653 -0.5966 -0.0961 -1.7405
14541TIP3   OH265113   4.097   2.608  16.899  0.7777 -0.2299 -0.0130
14541TIP3    H165114   4.127   2.577  16.813  0.7202  0.6739 -0.3693
14541TIP3    H265115   4.030   2.545  16.926 -1.1474  0.9580 -1.8714
14542TIP3   OH265116   1.024   3.949   1.832 -0.1991 -0.5102  0.1271
14542TIP3    H165117   0.933   3.924   1.846  0.1117 -1.0231  1.2218
14542TIP3    H265118   1.072   3.908   1.904  0.9751 -0.6932 -0.7468
14543TIP3   OH265119   0.681   0.507  16.432 -0.4270 -0.1912  0.0471
14543TIP3    H165120   0.772   0.487  16.410 -1.3053 -1.1798 -2.9862
14543TIP3    H265121   0.636   0.423  16.428 -1.8185  0.5549 -0.3313
14544TIP3   OH265122   0.831   4.945  11.664 -0.1071 -0.3559 -0.8561
14544TIP3    H165123   0.868   4.956  11.751 -0.6780  0.6874 -0.7483
14544TIP3    H265124   0.846   4.852  11.644  1.4710 -0.2413 -0.3233
14545TIP3   OH265125   1.504   4.756  12.614  0.0733  0.8137 -0.2813
14545TIP3    H165126   1.484   4.835  12.665 -0.0005  0.3466  0.4145
14545TIP3    H265127   1.478   4.778  12.524 -1.3943  1.0337  0.1860
14546TIP3   OH265128   6.589   0.836   5.138 -0.2813  0.2783 -0.3719
14546TIP3    H165129   6.595   0.928   5.112 -1.4142  0.5310  0.2615
14546TIP3    H265130   6.496   0.819   5.146 -0.0131 -0.1788  2.1358
14547TIP3   OH265131   2.022   6.021  12.411  0.1301 -0.1273 -0.1624
14547TIP3    H165132   1.954   6.048  12.350 -0.2988 -1.1490 -0.1398
14547TIP3    H265133   1.984   6.038  12.497  0.2865  0.2297 -0.1637
14548TIP3   OH265134   2.375   0.413   0.808 -0.1009  0.5140  0.8507
14548TIP3    H165135   2.444   0.349   0.789 -0.1676  0.3012  1.3045
14548TIP3    H265136   2.422   0.492   0.834 -0.0172  0.6400  0.3135
14549TIP3   OH265137   0.371   3.237  16.554 -0.0604 -0.2162 -0.5837
14549TIP3    H165138   0.424   3.203  16.482  0.1543  1.1487 -1.0853
14549TIP3    H265139   0.282   3.209  16.534  0.1788 -0.8227 -0.7847
14550TIP3   OH265140   0.942   2.106  13.733 -0.4899  0.5028 -0.2228
14550TIP3    H165141   1.017   2.048  13.720 -0.9701  0.3008 -2.3563
14550TIP3    H265142   0.907   2.082  13.819 -0.0730 -1.6803 -0.6415
14551TIP3   OH265143   5.597   1.202   0.975  0.1332 -0.2798  0.6037
14551TIP3    H165144   5.521   1.185   1.030 -1.3791  0.2623 -1.2438
14551TIP3    H265145   5.640   1.116   0.966 -0.6054 -0.7133  1.1494
14552TIP3   OH265146   6.755   1.341   2.630 -0.1692  0.1247  0.1035
14552TIP3    H165147   6.800   1.272   2.678 -2.0807 -1.3107 -0.0984
14552TIP3    H265148   6.663   1.314   2.629 -1.2180  3.3703  1.2292
14553TIP3   OH265149   1.635   2.450  13.583 -0.4659 -0.4443  0.2559
14553TIP3    H165150   1.589   2.525  13.547 -1.4578  0.0655  2.5022
14553TIP3    H265151   1.650   2.393  13.508 -1.3995  1.1083 -1.1528
14554TIP3   OH265152   2.056   4.824  16.328 -0.2074 -0.5932  0.1457
14554TIP3    H165153   2.022   4.752  16.274  0.4030 -0.1915 -0.7879
14554TIP3    H265154   2.045   4.902  16.273  0.0375 -0.1160  0.7738
14555TIP3   OH265155   4.619   1.025   0.380  0.2382  0.6754 -0.4927
14555TIP3    H165156   4.622   0.993   0.291  3.0582  1.7268 -0.8280
14555TIP3    H265157   4.601   0.948   0.434  0.6432 -0.3230 -1.7840
14556TIP3   OH265158   5.218   5.290   0.581 -0.3788 -0.0349  0.4702
14556TIP3    H165159   5.177   5.369   0.544  0.4794 -0.0936 -0.6359
14556TIP3    H265160   5.213   5.226   0.511 -1.8786 -1.2720  1.6749
14557TIP3   OH265161   1.696   4.700   4.844 -0.2537 -0.1352  0.1165
14557TIP3    H165162   1.792   4.695   4.851 -0.1178  3.3942  2.2498
14557TIP3    H265163   1.664   4.643   4.913  0.3702 -0.2740  0.3020
14558TIP3   OH265164   5.360   1.296  11.189  0.1893  0.1382 -0.1191
14558TIP3    H165165   5.300   1.321  11.118  0.9279 -0.7116 -1.0533
14558TIP3    H265166   5.350   1.201  11.196  0.5523  0.1445  0.5367
14559TIP3   OH265167   5.530   1.317   5.284  0.3585 -0.1357  0.3877
14559TIP3    H165168   5.541   1.374   5.207  2.4924  0.5194  1.1490
14559TIP3    H265169   5.459   1.357   5.333  1.1329  1.2968  0.3681
14560TIP3   OH265170   1.754   6.434  15.037 -0.2917 -0.2676 -0.2142
14560TIP3    H165171   1.832   6.426  15.092 -0.3974  1.1227  0.1710
14560TIP3    H265172   1.695   6.488  15.089 -1.6575 -1.5878 -0.3605
14561TIP3   OH265173   0.240   5.970   2.522  0.2070 -0.1174 -0.0438
14561TIP3    H165174   0.166   5.981   2.462  0.9471 -0.0953 -0.9742
14561TIP3    H265175   0.314   5.949   2.464  1.0676  0.5251  0.8137
14562TIP3   OH265176   5.116   2.959  14.066  0.2747  0.9510  0.1128
14562TIP3    H165177   5.135   3.017  13.992  2.2705  0.2284  0.0278
14562TIP3    H265178   5.161   2.877  14.045  0.1065  0.4247  1.6894
14563TIP3   OH265179   0.886   0.178   0.712  0.0271  0.0179 -0.4381
14563TIP3    H165180   0.970   0.195   0.754  0.3968 -0.1307 -1.1037
14563TIP3    H265181   0.901   0.195   0.619 -0.6006 -0.2807 -0.6044
14564TIP3   OH265182   4.381   6.359   1.725 -0.5512 -0.1954 -0.2324
14564TIP3    H165183   4.470   6.346   1.693 -0.3356 -0.4119  0.4424
14564TIP3    H265184   4.356   6.275   1.763  0.1255  0.7464  2.3767
14565TIP3   OH265185   3.203   0.087   3.014 -0.9145 -0.3161  0.1866
14565TIP3    H165186   3.155   0.161   3.052 -2.5601 -0.7833 -0.9491
14565TIP3    H265187   3.254   0.126   2.943 -1.7194 -0.2543 -0.3600
14566TIP3   OH265188   5.224   0.674  12.119 -0.4375  0.0034  0.2658
14566TIP3    H165189   5.229   0.634  12.206 -0.7105 -1.8198 -0.5253
14566TIP3    H265190   5.149   0.733  12.124 -0.6712 -0.3603  1.1785
14567TIP3   OH265191   6.675   3.869   5.337  0.0158 -0.3678 -0.2178
14567TIP3    H165192   6.601   3.919   5.371  0.9436  0.2610  0.9298
14567TIP3    H265193   6.648   3.777   5.348 -0.6378 -0.1471  0.0815
14568TIP3   OH265194   4.473   2.585   4.041 -0.1224  0.2191  0.3800
14568TIP3    H165195   4.435   2.560   4.125 -1.7312 -1.3685 -0.7870
14568TIP3    H265196   4.415   2.652   4.007 -1.0408 -1.0986 -0.6964
14569TIP3   OH265197   5.544   1.186  15.913  0.4103  0.1110 -0.5108
14569TIP3    H165198   5.491   1.257  15.951 -1.4807 -1.5593  0.0587
14569TIP3    H265199   5.634   1.217  15.920 -0.3511  2.2866  0.0936
14570TIP3   OH265200   5.885   0.402  12.119 -0.2413 -0.0031  0.3170
14570TIP3    H165201   5.897   0.492  12.150  2.4598 -0.3192  0.2857
14570TIP3    H265202   5.818   0.409  12.051 -1.5396  1.6696  1.7179
14571TIP3   OH265203   2.728   6.806  16.872 -0.1793 -0.4213  0.6339
14571TIP3    H165204   2.714   6.775  16.961  0.0396 -1.5342  0.2888
14571TIP3    H265205   2.821   6.828  16.868 -0.8355  2.7981  1.6416
14572TIP3   OH265206   0.636   2.636  15.376  0.2547  0.0422  0.1492
14572TIP3    H165207   0.646   2.727  15.402 -0.9385 -0.1556  1.3705
14572TIP3    H265208   0.577   2.640  15.300 -2.1791  0.1029  1.9861
14573TIP3   OH265209   6.799   3.531   6.239  0.2928  0.1710  0.0725
14573TIP3    H165210   6.814   3.496   6.326 -0.1347  0.2744  0.1887
14573TIP3    H265211   6.737   3.470   6.199 -1.5113  1.5187  0.7528
14574TIP3   OH265212   5.720   4.100   0.644 -0.3611 -0.5057 -0.7355
14574TIP3    H165213   5.740   4.174   0.586 -1.7918 -0.2909 -0.9524
14574TIP3    H265214   5.649   4.132   0.700  0.9245 -0.7487  1.0818
14575TIP3   OH265215   1.043   1.677  15.447  0.0411  0.0241  0.2348
14575TIP3    H165216   1.102   1.728  15.502  2.0793 -0.4772 -1.3646
14575TIP3    H265217   1.075   1.692  15.358 -0.5642 -2.4087 -0.4417
14576TIP3   OH265218   2.396   3.229  16.625  0.4000  0.2074 -0.3870
14576TIP3    H165219   2.491   3.229  16.607  0.7588  1.6597  1.3674
14576TIP3    H265220   2.389   3.209  16.718 -1.1043 -1.0324 -0.7479
14577TIP3   OH265221   5.169   4.169  14.621 -0.1265 -0.4727  0.0181
14577TIP3    H165222   5.199   4.109  14.690 -1.0360 -1.2049 -0.2144
14577TIP3    H265223   5.211   4.253  14.642 -0.2758 -0.7323  1.3786
14578TIP3   OH265224   0.981   0.979   1.488  0.4527  0.0099  0.1394
14578TIP3    H165225   0.913   0.961   1.423  0.6337 -1.4450  0.3330
14578TIP3    H265226   1.053   0.921   1.464  0.3600 -0.8689  1.8680
14579TIP3   OH265227   4.024   5.654  14.354 -0.2031 -0.3317  0.1974
14579TIP3    H165228   4.008   5.745  14.378 -0.6664 -0.6167  0.9910
14579TIP3    H265229   3.945   5.608  14.382  0.7616 -1.2699  1.4230
14580TIP3   OH265230   1.203   2.937  11.982  0.5448  0.3961 -0.0616
14580TIP3    H165231   1.249   2.977  11.909  0.7962  1.3634  0.6068
14580TIP3    H265232   1.111   2.940  11.958  0.6536  0.4377 -0.4648
14581TIP3   OH265233   6.411   1.957   6.079 -0.0287 -0.1123 -0.5988
14581TIP3    H165234   6.409   1.865   6.053  2.3001  0.3349 -2.6557
14581TIP3    H265235   6.407   2.005   5.996  1.4175  1.5507  0.2514
14582TIP3   OH265236   3.816   1.716  13.415  0.0077  0.1403 -0.0573
14582TIP3    H165237   3.867   1.786  13.374  0.0518  0.2399  0.1668
14582TIP3    H265238   3.727   1.727  13.379 -0.1604  0.7735  0.5432
14583TIP3   OH265239   5.287   4.553   3.406 -0.0554 -0.1622  0.0968
14583TIP3    H165240   5.241   4.476   3.372 -0.3031  0.4124 -0.8909
14583TIP3    H265241   5.249   4.626   3.358 -0.1337  0.6269  1.3459
14584TIP3   OH265242   6.731   0.112   3.117 -0.3403  0.0393 -0.0282
14584TIP3    H165243   6.674   0.041   3.089  1.6012 -1.4181 -0.3855
14584TIP3    H265244   6.743   0.165   3.038 -0.6666 -0.0091 -0.1126
14585TIP3   OH265245   3.548   0.390  13.733 -0.6160  0.0786  0.1003
14585TIP3    H165246   3.460   0.386  13.768  0.0690 -0.8867  1.7966
14585TIP3    H265247   3.598   0.329  13.788  1.5940  2.2981  0.6230
14586TIP3   OH265248   5.358   4.285  11.728  0.0549  1.0144  0.2938
14586TIP3    H165249   5.280   4.292  11.784 -0.3374  1.2492 -0.2759
14586TIP3    H265250   5.329   4.231  11.654  0.0823  2.1013 -0.5194
14587TIP3   OH265251   1.113   3.445  15.586  0.2451 -0.1616  0.2736
14587TIP3    H165252   1.160   3.529  15.588  1.8282 -1.0398  0.9095
14587TIP3    H265253   1.102   3.421  15.678  0.5442 -1.0477  0.0855
14588TIP3   OH265254   4.329   6.614   5.209 -0.8069  0.1837  0.2425
14588TIP3    H165255   4.302   6.637   5.297  1.4908 -0.2982  1.1027
14588TIP3    H265256   4.353   6.697   5.168 -2.3778  0.4700 -0.1304
14589TIP3   OH265257   2.875   2.216   3.114 -0.2588 -0.1582 -0.0364
14589TIP3    H165258   2.902   2.258   3.032 -0.2750  1.9013  0.9880
14589TIP3    H265259   2.941   2.148   3.129  0.5298  0.3823 -1.0252
14590TIP3   OH265260   4.016   2.489   5.055 -0.1629 -0.2808 -0.2415
14590TIP3    H165261   4.072   2.412   5.068 -0.0911 -0.1889 -0.0094
14590TIP3    H265262   3.979   2.506   5.142  2.0267  1.6794  0.3505
14591TIP3   OH265263   3.559   5.229   3.339 -0.1889  0.3709 -0.4847
14591TIP3    H165264   3.502   5.265   3.407 -2.5457  1.6408 -3.0283
14591TIP3    H265265   3.618   5.301   3.317  0.4933 -0.0004  0.1088
14592TIP3   OH265266   1.320   3.246   6.835  0.3688  0.1449 -0.3226
14592TIP3    H165267   1.369   3.185   6.780  1.8273  1.2279 -0.2556
14592TIP3    H265268   1.387   3.292   6.885 -0.6834  1.9033 -0.4823
14593TIP3   OH265269   4.245   1.383   3.594 -0.2262 -0.3319  0.2559
14593TIP3    H165270   4.243   1.318   3.524  0.7118  0.0705 -0.1614
14593TIP3    H265271   4.294   1.456   3.557  2.1895 -0.9770  2.0284
14594TIP3   OH265272   6.236   2.687  13.915  0.5781  0.2216  0.2465
14594TIP3    H165273   6.201   2.698  13.827  0.3096 -0.4574  0.2663
14594TIP3    H265274   6.199   2.760  13.965  1.2969  1.0147 -0.3683
14595TIP3   OH265275   2.482   3.349   4.315  1.0400  0.0254 -0.0970
14595TIP3    H165276   2.456   3.315   4.230 -1.5119  1.1062  0.2034
14595TIP3    H265277   2.577   3.337   4.318  0.9887 -1.2644 -2.5113
14596TIP3   OH265278   6.397   1.683   2.743 -0.3793 -0.3454  0.5571
14596TIP3    H165279   6.324   1.741   2.720 -0.4932  0.2546  2.3726
14596TIP3    H265280   6.467   1.709   2.683 -1.4682 -0.5502 -0.8223
14597TIP3   OH265281   5.691   2.734  14.751  0.0739 -0.5488 -0.3780
14597TIP3    H165282   5.754   2.774  14.691  0.9524 -1.4969 -0.0987
14597TIP3    H265283   5.738   2.661  14.790 -0.7241 -0.3753  0.9410
14598TIP3   OH265284   6.663   6.274   5.053  0.2963 -0.7777 -0.1429
14598TIP3    H165285   6.610   6.307   5.126 -1.2008 -0.0726 -1.5241
14598TIP3    H265286   6.695   6.189   5.083 -2.0296 -1.4420  0.5273
14599TIP3   OH265287   4.918   5.368   4.611  0.0627 -0.0165  0.3837
14599TIP3    H165288   4.860   5.432   4.571  0.3954  0.2434  0.3100
14599TIP3    H265289   4.896   5.285   4.570 -2.2150 -0.4540  2.3686
14600TIP3   OH265290   3.955   5.369  12.318  0.2659 -0.2819  0.4790
14600TIP3    H165291   3.995   5.333  12.239 -0.4321  0.7877 -0.3696
14600TIP3    H265292   3.877   5.414  12.288 -0.8275 -1.1360  1.9714
14601TIP3   OH265293   0.811   5.623  17.007  0.3336  0.0786 -0.1558
14601TIP3    H165294   0.733   5.575  17.036  0.6103  0.2541  0.9240
14601TIP3    H265295   0.780   5.713  16.995 -0.0867 -0.2679 -1.7498
14602TIP3   OH265296   4.724   0.344  12.020  0.0548  0.2081 -0.1919
14602TIP3    H165297   4.718   0.306  11.933  0.9821  0.4427 -0.3680
14602TIP3    H265298   4.634   0.366  12.044 -0.1415  0.5868 -1.2770
14603TIP3   OH265299   6.209   0.160  14.792  0.3256 -0.0433 -0.4267
14603TIP3    H165300   6.236   0.252  14.795 -0.4031  0.1369  0.8993
14603TIP3    H265301   6.277   0.117  14.741  0.7918  1.1888 -0.8734
14604TIP3   OH265302   3.297   3.708   2.335  0.0854  0.1232 -0.3447
14604TIP3    H165303   3.351   3.666   2.267  0.3159  1.2225 -0.8578
14604TIP3    H265304   3.226   3.750   2.286 -0.7446 -0.5667  0.2592
14605TIP3   OH265305   1.981   1.508  15.840 -0.0561  0.0305  0.0798
14605TIP3    H165306   1.919   1.526  15.769 -0.7872 -1.1219  0.4061
14605TIP3    H265307   1.951   1.425  15.877  0.9573  0.0862  1.0484
14606TIP3   OH265308   4.709   1.203  16.999  0.6150  0.1225  0.5782
14606TIP3    H165309   4.690   1.265  17.069  0.6751 -0.4228  1.0799
14606TIP3    H265310   4.744   1.257  16.928 -0.5407  0.8263  0.5377
14607TIP3   OH265311   2.811   4.823   4.192 -0.2757  0.6118 -0.0495
14607TIP3    H165312   2.717   4.816   4.180 -0.2271  1.2175 -0.8132
14607TIP3    H265313   2.823   4.891   4.258 -0.4436 -0.9846  1.6935
14608TIP3   OH265314   4.097   4.654  12.520 -0.0281  0.1242 -0.7236
14608TIP3    H165315   4.148   4.627  12.444 -0.2072 -0.4612 -0.6378
14608TIP3    H265316   4.012   4.679  12.483 -0.3501 -0.8240 -0.6495
14609TIP3   OH265317   3.255   0.700  11.756 -0.3225 -0.8061  0.1116
14609TIP3    H165318   3.284   0.633  11.693  1.0286  0.7524 -0.9515
14609TIP3    H265319   3.163   0.714  11.735 -0.1972 -1.1970 -0.7131
14610TIP3   OH265320   1.835   5.820   3.977  0.1284 -0.2640 -0.0749
14610TIP3    H165321   1.797   5.877   3.911  2.8464 -1.2779 -2.6120
14610TIP3    H265322   1.917   5.863   4.002  0.0777 -0.8773  1.2268
14611TIP3   OH265323   3.120   1.655  14.825 -0.4880  0.1753  0.6391
14611TIP3    H165324   3.119   1.751  14.833  0.3010  0.1911  0.5848
14611TIP3    H265325   3.212   1.632  14.824 -0.6752 -0.6120  0.8798
14612TIP3   OH265326   3.104   1.062   1.588 -0.1832 -0.5372  0.1557
14612TIP3    H165327   3.103   0.968   1.568  1.2022 -0.9141  1.7229
14612TIP3    H265328   3.077   1.067   1.680  1.5557  0.4365  0.6336
14613TIP3   OH265329   6.784   5.293  16.068  0.3349  0.0257 -0.2310
14613TIP3    H165330   6.790   5.254  15.981  2.8444 -2.2735  0.8888
14613TIP3    H265331   6.752   5.382  16.052 -0.1985 -0.6656 -3.3994
14614TIP3   OH265332   6.622   0.061   4.351 -0.4253 -0.1620 -0.0401
14614TIP3    H165333   6.600   0.125   4.418 -1.1232 -0.4299 -0.0106
14614TIP3    H265334   6.549   0.066   4.289  1.3540  1.8406 -2.0826
14615TIP3   OH265335   5.711   4.731   3.191  0.4112  0.3555 -0.0993
14615TIP3    H165336   5.717   4.816   3.148  2.2849  0.5763  0.5796
14615TIP3    H265337   5.617   4.710   3.188  0.3439  0.8908 -3.2262
14616TIP3   OH265338   0.044   2.941  15.313 -0.2014  0.1372 -0.2698
14616TIP3    H165339   0.043   2.891  15.395  0.1276 -0.6558 -0.7453
14616TIP3    H265340   0.126   2.915  15.271 -0.9052 -0.3001 -1.3746
14617TIP3   OH265341   1.962   3.074   5.028  0.1612 -0.5081 -0.0782
14617TIP3    H165342   2.018   3.127   4.971 -0.7531  3.1930  2.3015
14617TIP3    H265343   1.900   3.032   4.968 -1.3866  4.0010 -1.8586
14618TIP3   OH265344   5.379   2.575   3.275  0.1867 -0.0755 -0.5608
14618TIP3    H165345   5.441   2.559   3.205  0.8363  0.3095 -0.0764
14618TIP3    H265346   5.293   2.575   3.232  0.4519 -1.3968 -1.1088
14619TIP3   OH265347   5.023   6.360  16.590 -0.4478  0.6265  0.1128
14619TIP3    H165348   5.086   6.291  16.568 -0.3978  0.0316  2.0102
14619TIP3    H265349   5.006   6.405  16.507 -1.1642 -2.2256 -1.3218
14620TIP3   OH265350   2.249   2.902  11.870  0.2506 -0.0275  0.1045
14620TIP3    H165351   2.338   2.891  11.902 -0.2952 -0.7020  1.4320
14620TIP3    H265352   2.222   2.814  11.842  0.7802  0.5743 -2.4491
14621TIP3   OH265353   6.805   0.514  15.652 -0.5355 -0.1935  0.2680
14621TIP3    H165354   6.868   0.446  15.629 -0.9788  0.0420 -1.6776
14621TIP3    H265355   6.811   0.520  15.748  1.1720 -1.3374  0.2591
14622TIP3   OH265356   2.430   6.425   0.458 -0.3482 -0.2427  0.1366
14622TIP3    H165357   2.336   6.440   0.458 -0.4761 -1.0332  0.7827
14622TIP3    H265358   2.466   6.495   0.512 -0.7353 -0.9600  1.3407
14623TIP3   OH265359   6.675   6.195  15.731  0.1490 -0.0384  0.2778
14623TIP3    H165360   6.653   6.177  15.822  0.8749 -2.3954  0.0207
14623TIP3    H265361   6.594   6.228  15.693 -0.8498 -1.3479  1.1972
14624TIP3   OH265362   1.864   1.251  14.310 -0.3881 -0.2560 -0.0298
14624TIP3    H165363   1.812   1.291  14.240  0.7259  1.2685 -0.0077
14624TIP3    H265364   1.798   1.216  14.371 -1.3702 -0.3878 -1.1372
14625TIP3   OH265365   5.765   2.796   5.049 -0.9273 -0.2909  0.6955
14625TIP3    H165366   5.781   2.869   4.989 -1.6879 -0.8690 -0.2135
14625TIP3    H265367   5.738   2.838   5.131  1.8915  0.5926  1.2547
14626TIP3   OH265368   6.300   1.430  14.043 -0.0261 -0.0606 -0.7066
14626TIP3    H165369   6.227   1.427  13.981  0.9957 -1.3122 -1.8811
14626TIP3    H265370   6.281   1.360  14.105 -0.8105  0.8929  0.1613
14627TIP3   OH265371   1.791   0.004  14.987  0.1356  0.0996 -0.0346
14627TIP3    H165372   1.851  -0.030  14.920  0.7204 -3.7059  2.2635
14627TIP3    H265373   1.704  -0.012  14.951  0.4567 -1.3840 -0.1960
14628TIP3   OH265374   6.435   6.246  13.806  0.3106 -0.4354  0.3938
14628TIP3    H165375   6.515   6.270  13.852  2.3733 -0.8486 -2.8268
14628TIP3    H265376   6.404   6.328  13.766  0.0788 -0.6173  0.1969
14629TIP3   OH265377   1.080   0.016  11.867  0.4243 -0.3091  0.0553
14629TIP3    H165378   1.032   0.098  11.870  0.1642 -0.4607  0.0450
14629TIP3    H265379   1.107   0.001  11.958 -0.0816 -0.5402  0.1666
14630TIP3   OH265380   2.447   2.044   1.927 -0.1267 -0.3750  0.3191
14630TIP3    H165381   2.515   2.109   1.910 -1.0695  0.9183  1.3994
14630TIP3    H265382   2.484   1.962   1.894  1.8890  0.3230  0.7613
14631TIP3   OH265383   5.793   4.680  11.705 -0.4986  0.1664 -0.0683
14631TIP3    H165384   5.717   4.622  11.700 -0.4625  0.1890 -0.8907
14631TIP3    H265385   5.777   4.734  11.782 -0.1894 -1.4206  1.1429
14632TIP3   OH265386   5.535   0.673   2.518  0.7027 -0.1736 -0.5492
14632TIP3    H165387   5.483   0.724   2.455  0.3550  0.1602  0.0078
14632TIP3    H265388   5.482   0.594   2.533  1.9322 -1.4471 -2.5680
14633TIP3   OH265389   3.639   4.728   0.274  0.3280  0.0853  0.2374
14633TIP3    H165390   3.713   4.701   0.328  0.4684  1.4688  0.7637
14633TIP3    H265391   3.610   4.648   0.230 -0.2117 -1.1860  2.8461
14634TIP3   OH265392   2.631   6.035  12.903  0.0155  0.1101 -0.1097
14634TIP3    H165393   2.652   6.125  12.926 -2.6657  0.2089  2.2108
14634TIP3    H265394   2.616   6.037  12.808  1.9260  1.6702 -0.4054
14635TIP3   OH265395   3.960   0.916   1.100  0.0240 -0.6201 -0.3275
14635TIP3    H165396   3.995   0.875   1.179 -0.1297  0.8060  0.4879
14635TIP3    H265397   3.873   0.946   1.124 -0.0030 -0.1180 -1.0237
14636TIP3   OH265398   4.292   0.179  15.906 -0.0213  0.6544  0.2540
14636TIP3    H165399   4.203   0.181  15.873 -0.0816 -1.6642  0.1282
14636TIP3    H265400   4.295   0.101  15.962  1.5782  1.3965  1.2544
14637TIP3   OH265401   4.379   2.756  15.086  0.2011  0.2676 -0.1331
14637TIP3    H165402   4.364   2.842  15.047  0.5919  0.7289  0.7127
14637TIP3    H265403   4.453   2.769  15.145  0.5623 -0.7617 -0.3421
14638TIP3   OH265404   2.658   4.119  11.606  0.2256 -0.0880 -0.1028
14638TIP3    H165405   2.741   4.071  11.608 -0.2333 -0.8808  0.3848
14638TIP3    H265406   2.621   4.097  11.520  0.3799  0.0052 -0.1927
14639TIP3   OH265407   5.345   4.862  15.258 -0.0561  0.1761 -0.1772
14639TIP3    H165408   5.376   4.881  15.169 -0.9985  1.3937 -0.2527
14639TIP3    H265409   5.267   4.808  15.246 -0.3171  0.5320 -0.1061
14640TIP3   OH265410   6.447   3.545   1.336 -0.7452  1.0272  0.0924
14640TIP3    H165411   6.439   3.639   1.317 -2.2526  0.5812 -1.6784
14640TIP3    H265412   6.508   3.512   1.270 -2.7279  0.2054 -1.3681
14641TIP3   OH265413   6.684   3.022  12.181  0.0687 -0.3009  0.0588
14641TIP3    H165414   6.621   3.094  12.193 -1.3611 -1.1212 -2.1858
14641TIP3    H265415   6.761   3.064  12.143 -0.3550  0.2157 -0.2374
14642TIP3   OH265416   2.594   1.602  12.533 -0.1900  0.0608 -0.3018
14642TIP3    H165417   2.570   1.644  12.615  0.5766 -0.9002  0.4287
14642TIP3    H265418   2.681   1.636  12.513  0.2855 -0.9069  0.1098
14643TIP3   OH265419   2.136   5.887   2.502 -0.4802  0.0409  0.2419
14643TIP3    H165420   2.134   5.897   2.406  0.0135  0.4909  0.2748
14643TIP3    H265421   2.074   5.817   2.520 -1.3420  0.6403 -0.3302
14644TIP3   OH265422   6.149   1.111  13.311  0.2899  0.1472  0.3378
14644TIP3    H165423   6.235   1.149  13.327 -0.9407  4.0578 -1.8569
14644TIP3    H265424   6.157   1.069  13.225 -0.5446  2.3262 -0.8210
14645TIP3   OH265425   6.120   1.526  12.945  0.0749  0.1714  0.3508
14645TIP3    H165426   6.186   1.508  13.012 -0.1823  1.3621  0.9237
14645TIP3    H265427   6.167   1.518  12.863  0.4617 -1.0107  0.6697
14646TIP3   OH265428   4.806   3.103  11.831 -0.7846 -0.1019 -1.0116
14646TIP3    H165429   4.851   3.110  11.747 -1.4179 -0.2460 -1.3649
14646TIP3    H265430   4.765   3.188  11.844  0.0329  0.2162 -0.4259
14647TIP3   OH265431   0.490   6.631   2.953 -0.0056 -0.5745  0.2224
14647TIP3    H165432   0.410   6.622   2.900  0.4484 -1.5082 -0.3176
14647TIP3    H265433   0.459   6.623   3.044 -1.0186  2.6965  0.2343
14648TIP3   OH265434   3.628   4.697  14.223 -0.2782 -0.3426  0.4289
14648TIP3    H165435   3.620   4.746  14.141  1.2969 -0.0193  0.4533
14648TIP3    H265436   3.715   4.719  14.256 -1.2866  0.3669  2.7467
14649TIP3   OH265437   3.230   4.484   5.992  0.3535  0.3208  0.7343
14649TIP3    H165438   3.149   4.484   6.044  0.6721  0.8150  1.2404
14649TIP3    H265439   3.212   4.425   5.919 -0.9415  1.4561  0.1130
14650TIP3   OH265440   5.543   2.402  12.385  0.8854 -0.4993  0.0388
14650TIP3    H165441   5.575   2.319  12.348  2.5256 -0.1333  0.6201
14650TIP3    H265442   5.618   2.461  12.380 -0.3712  1.0805 -0.6848
14651TIP3   OH265443   3.793   0.345  15.458 -0.3225 -0.4084  0.0855
14651TIP3    H165444   3.868   0.286  15.464 -0.5970 -0.8198 -0.5079
14651TIP3    H265445   3.717   0.288  15.471 -0.6098 -0.2590 -0.8961
14652TIP3   OH265446   5.242   2.570  14.626 -0.4257 -0.5539  0.0364
14652TIP3    H165447   5.228   2.478  14.647 -0.8755 -0.7927 -1.2935
14652TIP3    H265448   5.159   2.599  14.590  0.3797 -0.1801 -1.5420
14653TIP3   OH265449   3.452   6.122   3.575 -0.3881 -0.4372 -0.2615
14653TIP3    H165450   3.444   6.217   3.580 -1.7889 -0.4982 -1.1686
14653TIP3    H265451   3.385   6.089   3.635  1.0918 -0.8632  1.2160
14654TIP3   OH265452   3.389   3.647  12.981 -0.4943 -0.4776 -0.1769
14654TIP3    H165453   3.377   3.577  13.045  0.4192  0.5003  1.0968
14654TIP3    H265454   3.316   3.706  12.996  0.1590  0.1604  0.5147
14655TIP3   OH265455   5.815   0.476  13.540  0.2894  0.0576 -0.8273
14655TIP3    H165456   5.846   0.428  13.616 -0.0555 -2.6566 -2.3242
14655TIP3    H265457   5.727   0.441  13.524 -0.4324  2.0294 -1.2781
14656TIP3   OH265458   5.679   4.083   2.542  0.0337  0.2522  0.0796
14656TIP3    H165459   5.774   4.090   2.552  0.0165 -1.5516  1.9515
14656TIP3    H265460   5.653   4.022   2.611 -2.7156  2.1447  0.7804
14657TIP3   OH265461   3.160   2.357   3.229 -0.3254 -0.2107  0.3418
14657TIP3    H165462   3.135   2.364   3.137 -0.4228 -0.0988  0.3759
14657TIP3    H265463   3.131   2.440   3.268 -1.1924 -0.6632  0.6895
14658TIP3   OH265464   0.823   0.038  11.588  0.4279 -0.5175 -0.2562
14658TIP3    H165465   0.831  -0.056  11.572  1.4336 -0.5606  0.5007
14658TIP3    H265466   0.912   0.070  11.598  0.1097  0.5648 -0.6977
14659TIP3   OH265467   1.357   1.379   3.898  0.1818 -0.0946 -0.4327
14659TIP3    H165468   1.315   1.391   3.983 -1.2221  0.1959 -1.1525
14659TIP3    H265469   1.343   1.287   3.876  0.3321 -0.1117 -0.4625
14660TIP3   OH265470   0.194   1.293  13.262  0.0355  0.1586 -0.3889
14660TIP3    H165471   0.189   1.340  13.179  3.1560  0.8019 -0.2871
14660TIP3    H265472   0.141   1.345  13.323  0.7843  1.7815 -1.0893
14661TIP3   OH265473   3.552   1.569   5.199 -0.3630 -0.2541  0.2492
14661TIP3    H165474   3.456   1.573   5.200 -0.3609  0.7395 -1.1817
14661TIP3    H265475   3.573   1.492   5.252 -1.8743  0.4433  1.9218
14662TIP3   OH265476   3.793   5.816  16.339  0.0926  0.5032  0.0064
14662TIP3    H165477   3.833   5.790  16.422  2.5498  1.2115 -0.9024
14662TIP3    H265478   3.760   5.734  16.302  1.0503 -0.1834  0.6348
14663TIP3   OH265479   5.759   3.050   2.877 -1.1525  0.0177  0.0359
14663TIP3    H165480   5.788   3.139   2.895 -1.2080 -0.0913  0.6598
14663TIP3    H265481   5.840   3.001   2.859 -0.9236 -0.3008  1.8265
14664TIP3   OH265482   5.033   5.510   2.953  0.2541  0.0820  0.0906
14664TIP3    H165483   5.026   5.477   2.863 -1.7016  0.6451  0.0060
14664TIP3    H265484   5.018   5.434   3.008 -1.3951  0.2523 -0.0915
14665TIP3   OH265485   4.747   1.505   5.937  0.2737 -0.2652 -0.3955
14665TIP3    H165486   4.688   1.436   5.968 -0.9810  0.3339 -1.4120
14665TIP3    H265487   4.728   1.580   5.993 -0.0781 -0.0073 -0.8598
14666TIP3   OH265488   2.417   2.716   3.038  0.0542 -0.1727 -0.3971
14666TIP3    H165489   2.437   2.804   3.007  0.5670  0.5953  2.0095
14666TIP3    H265490   2.463   2.709   3.121 -0.3046 -2.5840 -0.3674
14667TIP3   OH265491   6.674   2.346  12.395  0.2005  0.4814 -0.5925
14667TIP3    H165492   6.583   2.317  12.394  0.3944 -0.1361 -0.8456
14667TIP3    H265493   6.676   2.416  12.460 -0.0541 -0.8129  0.8443
14668TIP3   OH265494   0.025   0.914  16.218 -0.0168 -0.4506 -0.3832
14668TIP3    H165495   0.047   1.006  16.201 -0.9733 -0.3490 -1.0921
14668TIP3    H265496   0.025   0.907  16.314  1.9531 -0.1795 -0.3354
14669TIP3   OH265497   3.885   2.004   0.091 -0.9108 -0.3346 -0.2569
14669TIP3    H165498   3.806   2.042   0.053 -0.0403  1.4375 -0.3359
14669TIP3    H265499   3.921   2.073   0.147 -0.4960 -1.8238  1.3504
14670TIP3   OH265500   4.014   2.877   2.172 -0.3118 -0.1478 -0.1528
14670TIP3    H165501   4.031   2.905   2.262 -1.0880 -0.4529  0.0886
14670TIP3    H265502   3.968   2.951   2.133 -0.7934 -0.3836 -0.0302
14671TIP3   OH265503   0.214   0.795   3.123  0.3722 -0.3393  0.1198
14671TIP3    H165504   0.207   0.700   3.113  0.6338 -0.2988 -0.4254
14671TIP3    H265505   0.136   0.829   3.080 -0.5658 -0.3912  1.7208
14672TIP3   OH265506   0.973   3.889   5.427  0.2041  0.4812 -0.0938
14672TIP3    H165507   1.021   3.966   5.457  2.2675 -0.0925 -1.8154
14672TIP3    H265508   1.010   3.869   5.341 -1.1890 -1.6628 -0.2405
14673TIP3   OH265509   1.653   2.065  16.641  0.2267  0.0454  0.3450
14673TIP3    H165510   1.594   2.085  16.568  0.6406  0.2483  0.0633
14673TIP3    H265511   1.600   2.082  16.719 -0.7670 -1.7989  0.1086
14674TIP3   OH265512   6.090   2.846  12.455  0.1908  0.1261 -0.0114
14674TIP3    H165513   6.055   2.870  12.541  1.1354  2.1324 -0.1604
14674TIP3    H265514   6.063   2.917  12.397  1.1500 -0.2680 -0.9755
14675TIP3   OH265515   2.639   0.207  15.536 -0.0688 -0.3377  0.4179
14675TIP3    H165516   2.716   0.247  15.575  0.0160  1.0967 -1.1911
14675TIP3    H265517   2.657   0.113  15.539  1.4581 -0.0505  0.6375
14676TIP3   OH265518   4.428   1.880  14.918 -0.0557 -0.0124 -0.3948
14676TIP3    H165519   4.357   1.860  14.857 -0.7301  0.1519  0.3238
14676TIP3    H265520   4.508   1.874  14.865 -0.4826 -1.6071 -0.8791
14677TIP3   OH265521   5.180   1.293   0.260  0.0884 -0.0982 -0.1321
14677TIP3    H165522   5.127   1.314   0.183  1.0881 -0.3309 -0.8911
14677TIP3    H265523   5.203   1.378   0.296  0.4840  0.0352 -0.6883
14678TIP3   OH265524   3.942   1.263  13.427  0.6185 -0.5609 -0.1887
14678TIP3    H165525   3.973   1.354  13.435 -0.4858 -0.4319  4.5506
14678TIP3    H265526   3.849   1.272  13.405  0.4937 -0.4994  0.3433
14679TIP3   OH265527   0.051   3.860   4.722  0.0525  0.0281  0.0050
14679TIP3    H165528   0.039   3.948   4.758 -1.7266 -0.6567  1.1548
14679TIP3    H265529   0.020   3.867   4.632 -0.6329  0.4651  0.2674
14680TIP3   OH265530   2.365   5.459   3.797  0.5599 -0.0149 -0.6247
14680TIP3    H165531   2.388   5.376   3.754 -0.8015 -0.1722 -1.0566
14680TIP3    H265532   2.407   5.526   3.743 -0.4188 -0.2710 -1.7189
14681TIP3   OH265533   2.299   2.967  14.090 -0.2052 -0.1394 -0.4443
14681TIP3    H165534   2.281   2.909  14.165 -1.3491  0.4211 -0.2692
14681TIP3    H265535   2.326   2.908  14.020  1.8337 -0.5954  0.6868
14682TIP3   OH265536   4.246   2.889  15.948  0.2417 -0.2318 -0.3218
14682TIP3    H165537   4.160   2.846  15.950 -0.4064  1.0805  2.0318
14682TIP3    H265538   4.228   2.978  15.918  0.6034  0.3724  1.2209
14683TIP3   OH265539   0.034   5.132  12.488 -0.0777 -0.1498 -0.0433
14683TIP3    H165540   0.062   5.215  12.527  1.6180 -0.8465  0.2590
14683TIP3    H265541   0.088   5.066  12.531 -1.4888 -1.4360 -0.2112
14684TIP3   OH265542   2.265   0.757  13.119  0.2718  0.7407  0.5888
14684TIP3    H165543   2.220   0.769  13.036  1.3939  0.2322 -0.1112
14684TIP3    H265544   2.350   0.720  13.095  0.5751  0.5051  1.9672
14685TIP3   OH265545   2.966   4.168   1.738 -0.0444  0.0828  0.0260
14685TIP3    H165546   2.934   4.148   1.826 -1.6391  1.0672 -0.3112
14685TIP3    H265547   3.016   4.091   1.712 -1.8130 -1.3070  0.7207
14686TIP3   OH265548   3.486   0.024   5.130  0.5751 -0.3706  0.3999
14686TIP3    H165549   3.491  -0.063   5.089  0.0235  0.1385 -0.7815
14686TIP3    H265550   3.493   0.007   5.224  2.3608 -1.5256  0.0855
14687TIP3   OH265551   5.949   0.598   4.321 -0.1185  0.2192 -0.2184
14687TIP3    H165552   5.988   0.665   4.377  0.4744 -1.5239  1.5124
14687TIP3    H265553   5.885   0.554   4.377  0.6318 -1.6907 -0.7970
14688TIP3   OH265554   4.706   3.966  15.958  0.4110 -0.3329  0.1688
14688TIP3    H165555   4.625   3.915  15.959  0.0257  0.2691  0.0652
14688TIP3    H265556   4.677   4.057  15.957  1.0950 -0.1038  0.6911
14689TIP3   OH265557   6.651   0.293   5.884  0.1054 -0.1029 -0.4412
14689TIP3    H165558   6.740   0.268   5.860  0.6924  2.5571 -1.2703
14689TIP3    H265559   6.662   0.345   5.964 -1.0221 -2.1104  1.0568
14690TIP3   OH265560   1.386   5.783  13.143  0.0418 -0.2661 -0.2736
14690TIP3    H165561   1.476   5.816  13.147 -0.1993  0.4692 -0.7101
14690TIP3    H265562   1.384   5.712  13.206  0.1667  1.6279  1.9440
14691TIP3   OH265563   1.311   2.977  15.064 -0.3620  0.4066 -0.1774
14691TIP3    H165564   1.219   2.997  15.076 -0.4557  0.3941 -0.8675
14691TIP3    H265565   1.312   2.898  15.010 -0.0006 -1.4267  2.4040
14692TIP3   OH265566   2.629   4.752   3.637 -0.2347 -0.1399  0.1738
14692TIP3    H165567   2.662   4.838   3.664  1.5371 -0.1791 -1.7044
14692TIP3    H265568   2.534   4.757   3.651  0.0723  1.4662  1.7967
14693TIP3   OH265569   2.316   1.961   6.715 -0.2527  0.3233  0.0525
14693TIP3    H165570   2.342   1.872   6.693  0.5951  0.8393 -1.0445
14693TIP3    H265571   2.346   2.014   6.642  1.5674  1.9023  1.8895
14694TIP3   OH265572   6.555   3.413   2.030 -0.1832 -0.5981 -0.2853
14694TIP3    H165573   6.546   3.505   2.008  2.3005 -0.0236  0.9453
14694TIP3    H265574   6.616   3.411   2.103  0.2898 -3.2662 -0.6791
14695TIP3   OH265575   3.423   1.064  12.557  0.1982 -0.1396  0.2541
14695TIP3    H165576   3.430   1.041  12.465 -0.7770 -0.9964  0.3870
14695TIP3    H265577   3.420   0.980  12.603  0.9002  0.2803  1.0797
14696TIP3   OH265578   1.886   0.450  16.934  0.5588  0.1744 -0.0920
14696TIP3    H165579   1.879   0.357  16.910 -0.1369  0.3127 -0.4362
14696TIP3    H265580   1.917   0.449  17.024  1.0432 -0.3861 -0.2624
14697TIP3   OH265581   0.094   2.148   0.613 -0.3627  0.3029  0.3499
14697TIP3    H165582   0.097   2.067   0.663  0.4787 -0.4689 -0.9065
14697TIP3    H265583   0.053   2.211   0.671  0.7137 -0.5299  2.0458
14698TIP3   OH265584   1.772   5.929   1.549  0.4032 -0.5184 -0.2704
14698TIP3    H165585   1.821   5.847   1.536 -0.3003 -1.0190  0.1658
14698TIP3    H265586   1.832   5.985   1.599  0.5775 -1.0953  0.1839
14699TIP3   OH265587   4.442   2.430  11.627  0.2058 -0.2648 -0.1022
14699TIP3    H165588   4.449   2.335  11.635  0.4946 -0.2098  0.3047
14699TIP3    H265589   4.355   2.451  11.662  0.1061 -0.3871 -0.2755
14700TIP3   OH265590   3.610   6.165   1.358  0.4748 -0.0399 -0.0044
14700TIP3    H165591   3.530   6.208   1.328 -0.8845 -1.8157  1.0079
14700TIP3    H265592   3.612   6.180   1.452  1.0583 -0.4738  0.0547
14701TIP3   OH265593   3.023   4.574  13.790  0.5074  0.0230 -0.4053
14701TIP3    H165594   3.029   4.531  13.875  0.2162  0.6541 -0.0610
14701TIP3    H265595   3.029   4.667  13.810  0.8104  0.1566 -1.1139
14702TIP3   OH265596   0.076   0.169   2.214  0.4015  0.0906 -0.2314
14702TIP3    H165597   0.060   0.122   2.132  1.2805  0.6654 -0.7440
14702TIP3    H265598   0.128   0.246   2.188  1.1751 -0.0195  0.9297
14703TIP3   OH265599   5.993   5.316  15.540  0.0293  0.0249 -0.2646
14703TIP3    H165600   5.924   5.382  15.538  0.2240  0.2289 -0.2330
14703TIP3    H265601   5.958   5.243  15.488 -0.3234  0.0130 -0.0102
14704TIP3   OH265602   6.469   2.922  10.880 -0.7235  0.1701  0.9048
14704TIP3    H165603   6.468   3.003  10.932  1.8304  0.5409  0.4553
14704TIP3    H265604   6.519   2.861  10.933  2.8759  0.8817 -1.5227
14705TIP3   OH265605   4.906   4.359   3.596  0.0476  0.2052 -0.2191
14705TIP3    H165606   4.991   4.314   3.592  0.4588  0.7560  1.5447
14705TIP3    H265607   4.925   4.442   3.640 -1.2334  0.7648 -0.6998
14706TIP3   OH265608   0.747   2.487   5.474 -0.4704 -0.1787 -0.2800
14706TIP3    H165609   0.820   2.438   5.436  1.9035  1.5958  1.7874
14706TIP3    H265610   0.714   2.431   5.544 -1.5914 -1.2692 -1.6335
14707TIP3   OH265611   3.256   0.303   5.403 -0.2871 -0.1645 -0.2356
14707TIP3    H165612   3.293   0.220   5.433 -2.8088 -0.5622  1.9103
14707TIP3    H265613   3.295   0.369   5.460  0.1435 -0.0974 -0.6014
14708TIP3   OH265614   0.832   0.507   5.418 -0.1946 -0.4471 -0.6591
14708TIP3    H165615   0.786   0.434   5.378 -0.0946 -0.3635 -0.9298
14708TIP3    H265616   0.923   0.477   5.427 -0.0472 -0.1753 -1.2294
14709TIP3   OH265617   0.082   5.892   4.024  0.0868 -0.3998 -0.2496
14709TIP3    H165618   0.082   5.982   3.992 -2.1267  0.1944  1.3748
14709TIP3    H265619   0.166   5.882   4.068 -0.2927  1.3853  0.9304
14710TIP3   OH265620   0.848   1.707   2.873 -0.4849 -0.1819  0.0688
14710TIP3    H165621   0.770   1.730   2.924  0.3513 -1.3436  1.9257
14710TIP3    H265622   0.863   1.782   2.817 -2.1427  0.6380  0.6865
14711TIP3   OH265623   3.580   5.849  17.087 -0.1109  0.4958  0.0195
14711TIP3    H165624   3.642   5.839  17.015  0.5164  0.9171  0.4988
14711TIP3    H265625   3.501   5.883  17.045  0.2211  0.6527 -0.4861
14712TIP3   OH265626   3.996   4.402  13.718  0.3506  0.3227  0.0671
14712TIP3    H165627   3.994   4.438  13.629  0.5811 -1.0935 -0.5223
14712TIP3    H265628   4.016   4.477  13.774 -0.0575  1.2765 -1.0423
14713TIP3   OH265629   1.963   2.606  14.931  0.1041 -0.6514 -0.2516
14713TIP3    H165630   1.923   2.519  14.939 -0.5680 -0.3438 -0.2301
14713TIP3    H265631   1.949   2.646  15.017  1.5619 -1.0050  0.1559
14714TIP3   OH265632   2.375   4.457   3.521  0.2898 -0.2907  0.1708
14714TIP3    H165633   2.344   4.541   3.555 -0.0937 -0.0649 -0.7229
14714TIP3    H265634   2.354   4.394   3.590 -0.7942  0.1049  0.2088
14715TIP3   OH265635   3.720   5.295   0.399 -0.3264 -0.2524 -0.5024
14715TIP3    H165636   3.664   5.343   0.461  1.3842  0.1955  0.7545
14715TIP3    H265637   3.693   5.204   0.408 -1.6224  0.0924 -0.7530
14716TIP3   OH265638   6.607   2.289   1.331 -0.3205 -0.1967  0.5020
14716TIP3    H165639   6.695   2.323   1.343  0.5698 -2.0293 -0.5788
14716TIP3    H265640   6.620   2.196   1.313 -2.3065 -0.0015 -2.1421
14717TIP3   OH265641   1.353   0.687   4.247 -0.0339 -0.3747  0.6245
14717TIP3    H165642   1.305   0.732   4.178 -0.1727 -0.6287  0.5510
14717TIP3    H265643   1.306   0.604   4.257  1.1143 -1.1463 -0.2826
14718TIP3   OH265644   2.630   1.451  14.754 -0.1873  0.2038  0.2509
14718TIP3    H165645   2.615   1.528  14.700 -0.7380  0.5694  0.9195
14718TIP3    H265646   2.679   1.484  14.829  1.0021 -0.3869 -0.2540
14719TIP3   OH265647   4.657   2.772   0.659  0.1036  0.0716 -0.0157
14719TIP3    H165648   4.664   2.754   0.753  1.0009  0.3291 -0.0321
14719TIP3    H265649   4.740   2.740   0.623  0.4797  1.5542 -0.4770
14720TIP3   OH265650   4.879   0.687   5.693 -0.2985  0.3261  0.5059
14720TIP3    H165651   4.963   0.723   5.666 -1.4564  0.7784 -2.7944
14720TIP3    H265652   4.901   0.613   5.749  2.4530 -1.9051 -3.2748
14721TIP3   OH265653   5.786   1.093   2.161  0.1198  0.0868 -0.0349
14721TIP3    H165654   5.724   1.043   2.214  1.0304 -2.0393 -0.9069
14721TIP3    H265655   5.848   1.129   2.224 -1.6572  1.7467  0.7843
14722TIP3   OH265656   4.750   4.895   3.516 -0.0443  0.1024 -0.4364
14722TIP3    H165657   4.660   4.862   3.520 -0.1662  0.2274 -1.9733
14722TIP3    H265658   4.746   4.979   3.563 -0.5189 -0.3234  0.3020
14723TIP3   OH265659   1.392   3.121  10.774 -0.2632 -0.0483  0.1449
14723TIP3    H165660   1.462   3.062  10.800  0.2312  0.2666 -0.4631
14723TIP3    H265661   1.393   3.120  10.678  0.8525  2.1970  0.0840
14724TIP3   OH265662   3.884   6.012  13.049  0.2303 -0.0601 -0.3577
14724TIP3    H165663   3.972   5.977  13.036  0.6438  1.2355 -1.1114
14724TIP3    H265664   3.826   5.941  13.020  1.0301 -0.6746 -0.4819
14725TIP3   OH265665   3.102   1.281   2.812 -0.1132 -0.4898 -0.2408
14725TIP3    H165666   3.008   1.275   2.825 -0.4347  1.5262 -1.3880
14725TIP3    H265667   3.138   1.284   2.901 -1.5159  3.3535  0.2985
14726TIP3   OH265668   0.336   0.302   0.238 -0.2738  0.0837 -0.1911
14726TIP3    H165669   0.393   0.247   0.291  0.2880  0.3365 -0.5283
14726TIP3    H265670   0.375   0.300   0.150  0.5669  2.1692  0.1158
14727TIP3   OH265671   2.309   2.803  14.318 -0.4062  0.0625 -0.0472
14727TIP3    H165672   2.369   2.730  14.304  1.8554  1.9108 -0.1041
14727TIP3    H265673   2.228   2.761  14.349  0.4798 -2.5395 -1.0985
14728TIP3   OH265674   4.675   5.488  13.664 -0.3584 -0.4651 -0.1611
14728TIP3    H165675   4.748   5.532  13.621 -0.1387 -0.3802  0.2946
14728TIP3    H265676   4.716   5.431  13.729 -0.7396  0.6171  1.0571
14729TIP3   OH265677   4.676   6.303   2.880  0.5042  0.0287  0.0886
14729TIP3    H165678   4.703   6.226   2.931 -3.0137 -1.6768 -0.4891
14729TIP3    H265679   4.624   6.355   2.941  2.2005  1.5688  0.2386
14730TIP3   OH265680   3.500   2.409   1.068 -0.6222 -0.0805  0.0407
14730TIP3    H165681   3.491   2.451   0.983  0.5452  0.9244  0.3989
14730TIP3    H265682   3.504   2.482   1.130 -0.6629 -0.7794  0.8720
14731TIP3   OH265683   3.314   1.137   2.483  0.8116  0.1121  0.4100
14731TIP3    H165684   3.223   1.150   2.509  1.4527  2.1632  1.7138
14731TIP3    H265685   3.357   1.101   2.560  1.4162  0.5082  0.2635
14732TIP3   OH265686   5.482   1.923   3.073  0.4355  0.5994 -0.3770
14732TIP3    H165687   5.518   1.835   3.070 -1.6658 -0.3118  0.1026
14732TIP3    H265688   5.423   1.928   2.998 -0.5502  1.0872  0.4183
14733TIP3   OH265689   6.507   1.619  11.515 -0.4353  0.3130  0.1076
14733TIP3    H165690   6.584   1.668  11.488  1.6231 -1.5045  2.4788
14733TIP3    H265691   6.438   1.685  11.523  1.4804  2.3433  0.2497
14734TIP3   OH265692   2.168   1.985  15.032 -0.0733  0.4717 -0.0442
14734TIP3    H165693   2.169   2.075  15.063  0.1568  0.4214  0.0965
14734TIP3    H265694   2.079   1.972  15.000 -0.4599  0.3768  1.0432
14735TIP3   OH265695   3.764   3.842   2.085  0.0277 -0.2618  0.0654
14735TIP3    H165696   3.714   3.823   2.005  0.2069 -0.3098 -0.0338
14735TIP3    H265697   3.802   3.928   2.069  1.2787 -0.9133 -0.4979
14736TIP3   OH265698   0.449   2.321   3.052  0.1168  0.1299  0.3202
14736TIP3    H165699   0.542   2.332   3.071  0.3717 -0.4939 -0.5751
14736TIP3    H265700   0.416   2.267   3.124 -0.1979  2.8473  2.2859
14737TIP3   OH265701   4.604   2.305   5.146 -0.1864 -0.1555 -0.2962
14737TIP3    H165702   4.615   2.269   5.233 -1.5178  1.6133  0.6527
14737TIP3    H265703   4.630   2.235   5.087 -1.7864 -2.3166  1.4657
14738TIP3   OH265704   1.685   3.319   5.327  0.6093 -0.8821 -0.0390
14738TIP3    H165705   1.770   3.315   5.372  0.8997  0.5598 -0.4088
14738TIP3    H265706   1.627   3.363   5.389  0.2572 -1.4380  0.0256
14739TIP3   OH265707   3.312   2.817   2.184 -0.2736 -0.4181 -0.5939
14739TIP3    H165708   3.402   2.790   2.169 -0.7401 -0.6451 -3.0631
14739TIP3    H265709   3.277   2.751   2.244  1.3557  0.0167  0.8704
14740TIP3   OH265710   0.222   6.097   6.016 -0.7631 -0.0740 -0.2456
14740TIP3    H165711   0.278   6.051   6.079  0.4761  0.5663 -0.8560
14740TIP3    H265712   0.134   6.090   6.053 -0.1443 -0.2439  1.2437
14741TIP3   OH265713   3.901   3.212   3.587 -0.2421  0.2548  0.0668
14741TIP3    H165714   3.851   3.143   3.631  1.3290 -0.4069  0.8610
14741TIP3    H265715   3.878   3.292   3.635 -0.6519 -0.0255  0.3402
14742TIP3   OH265716   4.940   2.173  14.522 -0.7974 -0.6509  0.0514
14742TIP3    H165717   4.878   2.239  14.494 -0.1081  0.2912  0.7264
14742TIP3    H265718   4.970   2.133  14.440  1.2054  2.0778 -0.6303
14743TIP3   OH265719   6.647   1.303  14.771  0.0300  0.0964  0.1995
14743TIP3    H165720   6.672   1.387  14.809  0.2905  0.2803 -0.3649
14743TIP3    H265721   6.661   1.314  14.677  0.6310 -0.7696  0.1767
14744TIP3   OH265722   3.913   4.704  13.356 -0.2301 -0.7142  0.0646
14744TIP3    H165723   3.827   4.727  13.322  0.2795  0.5094 -0.4218
14744TIP3    H265724   3.951   4.787  13.384  1.8324 -0.8774 -2.1303
14745TIP3   OH265725   2.129   5.858  10.831  0.2932 -0.4268 -1.0186
14745TIP3    H165726   2.192   5.787  10.820  1.6002  0.3725  1.0557
14745TIP3    H265727   2.045   5.814  10.847  1.2974 -1.5413  1.4368
14746TIP3   OH265728   2.154   2.408   3.910 -0.0843 -0.2881 -0.4097
14746TIP3    H165729   2.070   2.399   3.954  0.1173  1.2248  0.3307
14746TIP3    H265730   2.188   2.319   3.902 -1.3837 -0.8223  0.0209
14747TIP3   OH265731   3.715   0.201  11.623  0.2550 -0.7120 -0.0020
14747TIP3    H165732   3.725   0.226  11.531  0.9316 -1.3604 -0.1048
14747TIP3    H265733   3.652   0.264  11.658  0.8174  0.2183 -0.6396
14748TIP3   OH265734   5.335   4.971  14.160 -0.2825  0.3043 -1.0079
14748TIP3    H165735   5.387   5.007  14.232 -1.2496  2.1798 -1.2269
14748TIP3    H265736   5.245   4.971  14.193 -0.3435 -1.6845 -1.1165
14749TIP3   OH265737   3.222   0.422  11.389  0.0294  0.0516  0.0460
14749TIP3    H165738   3.236   0.517  11.390  0.9611 -0.0756 -0.1469
14749TIP3    H265739   3.145   0.410  11.334  1.5133  0.5174 -2.2300
14750TIP3   OH265740   1.689   5.703   3.255  0.3151  0.1518 -0.3765
14750TIP3    H165741   1.753   5.641   3.290  0.7579  1.7336  1.7036
14750TIP3    H265742   1.606   5.657   3.260  1.0535 -1.3985 -1.7533
14751TIP3   OH265743   4.072   3.997  10.863 -0.3135  0.0247 -0.2346
14751TIP3    H165744   4.042   3.908  10.846 -0.4956  0.3053 -1.4333
14751TIP3    H265745   4.153   4.005  10.812  0.8827 -0.1632  1.6061
14752TIP3   OH265746   2.469   4.687  16.938 -0.0947  0.2690 -0.1152
14752TIP3    H165747   2.479   4.774  16.975 -1.3445  0.7099 -0.7726
14752TIP3    H265748   2.470   4.701  16.843  1.9236 -0.7067 -0.2674
14753TIP3   OH265749   5.624   0.060   4.801  0.2881  0.3114  0.2204
14753TIP3    H165750   5.682   0.094   4.732 -0.6764 -0.6919 -1.1075
14753TIP3    H265751   5.593  -0.024   4.767 -0.3110 -0.1268  1.8324
14754TIP3   OH265752   0.639   0.104   5.472  0.0152 -0.2689  0.1591
14754TIP3    H165753   0.643   0.189   5.517 -0.0176 -0.2458  0.1188
14754TIP3    H265754   0.692   0.046   5.526 -0.1681 -0.2833  0.3240
14755TIP3   OH265755   3.020   4.527  14.051  0.5420 -0.3596 -0.2893
14755TIP3    H165756   3.000   4.434  14.049  0.5191 -0.3368 -2.4150
14755TIP3    H265757   3.043   4.545  14.143 -1.6829 -1.9590  0.6131
14756TIP3   OH265758   4.819   3.738  10.630  0.3531 -0.4120 -0.3858
14756TIP3    H165759   4.875   3.814  10.644  2.6997 -1.8012 -1.7840
14756TIP3    H265760   4.750   3.770  10.572  0.8395  0.8623 -0.2838
14757TIP3   OH265761   6.633   4.274   3.192  0.0281 -0.0145  0.2076
14757TIP3    H165762   6.597   4.235   3.272 -1.0985  1.5764  0.5047
14757TIP3    H265763   6.630   4.368   3.208 -1.4551  0.3949 -2.1870
14758TIP3   OH265764   3.102   4.630   0.835  0.1055 -0.8740  0.1998
14758TIP3    H165765   3.141   4.544   0.820  0.3232 -0.5544 -1.1191
14758TIP3    H265766   3.043   4.644   0.761 -0.8745 -0.4172  1.0531
14759TIP3   OH265767   6.739   0.008  12.708 -0.1051 -0.2286  0.0684
14759TIP3    H165768   6.806  -0.035  12.655  1.6606  0.2489  1.8444
14759TIP3    H265769   6.781   0.088  12.740 -2.7292  1.9060 -1.6635
14760TIP3   OH265770   6.583   3.969  13.888 -0.4067 -0.0406 -0.1128
14760TIP3    H165771   6.540   4.054  13.875 -0.8848 -0.4444 -1.1877
14760TIP3    H265772   6.583   3.957  13.983  0.8975  1.7951  0.1629
14761TIP3   OH265773   6.753   1.202  17.128 -0.0408  0.2495 -0.2197
14761TIP3    H165774   6.816   1.155  17.182 -0.2894 -0.0677 -0.2057
14761TIP3    H265775   6.712   1.265  17.188 -2.3944 -2.0738  0.6753
14762TIP3   OH265776   3.857   2.001  14.174 -0.4076  0.1018  0.4533
14762TIP3    H165777   3.944   2.038  14.164 -0.8307  1.0939  0.3621
14762TIP3    H265778   3.823   1.997  14.084 -1.6033  2.5840  0.7531
14763TIP3   OH265779   2.757   3.875  12.835 -0.0419  0.0618  0.0999
14763TIP3    H165780   2.797   3.934  12.771 -1.3273  1.1895  0.2907
14763TIP3    H265781   2.753   3.927  12.916 -2.2203  0.1630 -0.0292
14764TIP3   OH265782   1.015   2.126   3.192 -0.5057 -0.1970 -0.6273
14764TIP3    H165783   1.060   2.042   3.179  0.9277  0.4857 -0.1359
14764TIP3    H265784   0.928   2.101   3.224  0.4523 -1.4883  1.0990
14765TIP3   OH265785   3.726   1.158  11.352 -0.0313 -0.1097 -0.5797
14765TIP3    H165786   3.731   1.249  11.324  1.5613 -0.2869 -0.8753
14765TIP3    H265787   3.790   1.112  11.298 -0.6210 -1.3650 -0.2337
14766TIP3   OH265788   2.987   3.134  11.598  0.0535  0.0301 -0.0148
14766TIP3    H165789   2.959   3.062  11.654  1.0093 -0.2578  0.1031
14766TIP3    H265790   2.967   3.213  11.648  1.1917 -0.2318  0.8896
14767TIP3   OH265791   3.265   2.641  14.243 -0.5235  0.7864 -0.0065
14767TIP3    H165792   3.212   2.597  14.309 -0.7252  1.0250 -0.0089
14767TIP3    H265793   3.231   2.608  14.160  0.3454 -0.2209  0.0246
14768TIP3   OH265794   1.431   6.195  14.038  0.0992 -0.2831 -0.3915
14768TIP3    H165795   1.506   6.250  14.018 -0.0203 -0.5487 -1.5877
14768TIP3    H265796   1.427   6.193  14.134  0.5885  1.1086 -0.3422
14769TIP3   OH265797   0.958   1.376   4.214 -0.1639  0.9260 -0.1338
14769TIP3    H165798   0.956   1.468   4.187 -1.7352 -0.2852 -4.6858
14769TIP3    H265799   0.878   1.363   4.265 -0.2893  1.9345 -0.0760
14770TIP3   OH265800   3.065   2.644  16.313  0.3521 -0.4942 -0.4634
14770TIP3    H165801   2.999   2.623  16.380 -1.1244  0.9112 -1.4455
14770TIP3    H265802   3.133   2.692  16.360 -1.1791  1.4086 -0.1370
14771TIP3   OH265803   3.406   2.065  13.134  0.0427  0.2808 -0.1996
14771TIP3    H165804   3.499   2.076  13.152  0.1720 -1.8284  0.6453
14771TIP3    H265805   3.401   2.054  13.039  0.5637  1.2042 -0.3328
14772TIP3   OH265806   4.538   4.388   5.671 -0.2469 -0.1783 -0.2814
14772TIP3    H165807   4.513   4.336   5.748 -0.8177  0.0381 -0.3129
14772TIP3    H265808   4.458   4.393   5.619 -0.3420  1.1774 -0.0204
14773TIP3   OH265809   0.020   3.687  16.560  0.4652 -0.1051  0.3270
14773TIP3    H165810  -0.031   3.670  16.481  1.7127  0.8508 -0.6928
14773TIP3    H265811   0.014   3.605  16.610  0.2708 -0.9652 -1.0788
14774TIP3   OH265812   5.651   5.297  13.528 -0.0578  0.0537 -0.1028
14774TIP3    H165813   5.693   5.347  13.459  0.3974 -0.3756 -0.1427
14774TIP3    H265814   5.703   5.316  13.606 -1.3251  1.5380  0.4042
14775TIP3   OH265815   4.768   2.960  13.709 -0.3761 -0.1523 -0.1009
14775TIP3    H165816   4.758   2.987  13.618  1.3788 -0.5061 -0.4230
14775TIP3    H265817   4.692   2.996  13.754 -1.1017  0.2764 -1.6465
14776TIP3   OH265818   2.556   1.736  14.775 -0.9626  0.0543 -0.4147
14776TIP3    H165819   2.608   1.734  14.855 -0.1323  0.1803 -0.9426
14776TIP3    H265820   2.482   1.678  14.792  0.0926 -1.2288 -0.1605
14777TIP3   OH265821   3.759   3.013   4.510 -0.5287 -0.2865 -0.5099
14777TIP3    H165822   3.747   2.979   4.598 -2.1898  1.2766 -0.1063
14777TIP3    H265823   3.849   3.044   4.508 -1.0302  1.3446  1.2369
14778TIP3   OH265824   3.699   1.094   2.619 -0.0528 -0.2703 -0.0271
14778TIP3    H165825   3.605   1.094   2.599  0.2387  1.9106 -1.5643
14778TIP3    H265826   3.714   1.177   2.664  1.0377 -0.9003  0.8055
14779TIP3   OH265827   3.570   3.475  16.231  0.4770  0.4891  0.0385
14779TIP3    H165828   3.557   3.452  16.139  0.9917 -2.9198  0.7721
14779TIP3    H265829   3.663   3.461  16.247 -0.0095 -1.1109  1.6113
14780TIP3   OH265830   4.789   3.792   4.665 -0.0114 -0.1929  0.1546
14780TIP3    H165831   4.704   3.814   4.702  0.5690  0.1528  1.3290
14780TIP3    H265832   4.782   3.816   4.573 -0.3859  2.2294  0.7600
14781TIP3   OH265833   4.913   1.498  14.254 -0.3105  0.1628  0.0990
14781TIP3    H165834   4.867   1.498  14.338 -1.6828  0.7062 -0.6331
14781TIP3    H265835   4.993   1.547  14.271  0.5857 -1.7963  1.6943
14782TIP3   OH265836   2.456   2.357  14.052  0.8121  0.0888 -0.0218
14782TIP3    H165837   2.543   2.385  14.021 -0.1071  2.5515 -0.4513
14782TIP3    H265838   2.475   2.295  14.122  2.9174 -1.6232 -2.0119
14783TIP3   OH265839   4.484   2.042   5.820 -0.0130 -0.1920 -0.6812
14783TIP3    H165840   4.413   2.025   5.758  0.9213 -0.6560 -1.6435
14783TIP3    H265841   4.495   1.959   5.867 -0.8932  0.2368  0.2965
14784TIP3   OH265842   5.284   0.788  15.149  0.6414 -0.8018 -0.2469
14784TIP3    H165843   5.288   0.814  15.241 -0.2850 -0.3844 -0.3272
14784TIP3    H265844   5.298   0.869  15.100 -0.6831 -0.7103 -0.4857
14785TIP3   OH265845   0.812   2.645   2.473 -0.2280  0.3427 -0.0728
14785TIP3    H165846   0.853   2.646   2.387  0.2360  1.0741  0.1505
14785TIP3    H265847   0.872   2.696   2.529 -1.0573  0.7834  0.4285
14786TIP3   OH265848   4.913   0.458   1.171 -0.2446  0.4042  0.4638
14786TIP3    H165849   5.001   0.483   1.200  0.2028 -2.4827  1.8290
14786TIP3    H265850   4.861   0.538   1.182  1.5140  1.3298  2.6764
14787TIP3   OH265851   4.036   0.108   3.396  0.1005  0.2436  0.5981
14787TIP3    H165852   4.047   0.051   3.472 -0.9763 -0.9373 -0.1189
14787TIP3    H265853   3.961   0.072   3.349 -0.7859  2.4254  0.2701
14788TIP3   OH265854   1.345   5.218   1.961  0.1181 -0.6382  0.0639
14788TIP3    H165855   1.348   5.205   1.866  1.8742  2.0507 -0.3015
14788TIP3    H265856   1.299   5.301   1.972  1.3950 -0.1002  1.4587
14789TIP3   OH265857   1.993   6.133  14.659  0.0397  0.3260  0.4759
14789TIP3    H165858   2.030   6.221  14.667  0.3589  0.3416 -1.0189
14789TIP3    H265859   1.938   6.137  14.580  0.5529 -0.9755  0.0398
14790TIP3   OH265860   4.539   3.185  13.155 -0.3338 -0.0686  0.4068
14790TIP3    H165861   4.617   3.214  13.203  0.2434 -0.7677 -0.1045
14790TIP3    H265862   4.506   3.265  13.113  0.3613  0.1510  0.2692
14791TIP3   OH265863   1.635   5.263   2.009  0.8007 -0.3692 -0.3863
14791TIP3    H165864   1.622   5.356   2.027 -0.1129 -0.7709  1.1825
14791TIP3    H265865   1.550   5.223   2.031  1.0970 -1.5315 -1.3236
14792TIP3   OH265866   6.380   3.828   3.008 -0.1427 -0.3427 -0.5375
14792TIP3    H165867   6.365   3.836   2.914 -0.1350 -0.8057 -0.5829
14792TIP3    H265868   6.421   3.910   3.034  0.3679 -0.4376 -1.0436
14793TIP3   OH265869   0.954   2.056  11.444 -0.1790  0.2038 -0.1380
14793TIP3    H165870   1.012   2.065  11.368  0.0156 -0.0331 -0.0156
14793TIP3    H265871   0.953   2.143  11.484  0.7576 -0.0113  0.3510
14794TIP3   OH265872   4.889   5.576  15.098 -0.1129  0.0835  0.3308
14794TIP3    H165873   4.796   5.571  15.118  0.1192  0.1936  1.5260
14794TIP3    H265874   4.922   5.487  15.114 -0.1826 -0.1741 -0.9715
14795TIP3   OH265875   2.749   4.400  12.131 -0.0755 -0.0448 -0.1089
14795TIP3    H165876   2.667   4.353  12.115  0.3984 -0.7026 -0.6352
14795TIP3    H265877   2.729   4.457  12.205 -0.8065 -0.6994  0.2115
14796TIP3   OH265878   6.777   4.366  16.284 -0.1316 -0.0854  0.4784
14796TIP3    H165879   6.868   4.337  16.296 -0.0514 -0.0286  0.0067
14796TIP3    H265880   6.725   4.300  16.330  0.0750 -0.8043 -0.3003
14797TIP3   OH265881   3.466   3.716  10.536  0.4618  0.7563 -0.4861
14797TIP3    H165882   3.421   3.801  10.532  0.6100  0.8972  0.7636
14797TIP3    H265883   3.516   3.719  10.617  0.4143 -0.5696 -0.4062
14798TIP3   OH265884   0.950   2.097   2.526  0.4891  0.4426  0.1338
14798TIP3    H165885   0.869   2.060   2.490  1.1115 -1.2546  0.4424
14798TIP3    H265886   0.930   2.190   2.538 -1.1148  0.2238 -0.6393
14799TIP3   OH265887   1.183   6.574   3.291  0.0339 -0.1498  0.4756
14799TIP3    H165888   1.267   6.614   3.314 -1.4539  0.8937  4.4939
14799TIP3    H265889   1.170   6.505   3.356 -1.5128 -1.4151 -1.0969
14800TIP3   OH265890   1.760   0.409  11.573 -0.0345 -0.3854 -0.8618
14800TIP3    H165891   1.839   0.383  11.620 -1.2048 -1.6825  0.4307
14800TIP3    H265892   1.749   0.342  11.506 -1.8178 -2.0919  1.0537
14801TIP3   OH265893   6.633   0.118   1.091 -0.2344 -0.3847  0.0448
14801TIP3    H165894   6.695   0.091   1.160 -1.5985 -1.7295  0.7701
14801TIP3    H265895   6.684   0.177   1.036  1.8388 -1.7455  0.4045
14802TIP3   OH265896   0.445   6.272   5.961  0.3433 -0.2629 -0.1748
14802TIP3    H165897   0.508   6.230   6.020  0.8924  1.9408  0.8522
14802TIP3    H265898   0.361   6.235   5.987  0.5964  0.5810  1.9343
14803TIP3   OH265899   6.626   2.919   6.238  0.3154 -0.0982 -0.1305
14803TIP3    H165900   6.693   2.855   6.263  0.0383 -0.2035  0.3383
14803TIP3    H265901   6.570   2.928   6.315 -0.7400 -0.6817 -0.8112
14804TIP3   OH265902   5.822   0.460  15.224 -0.2034 -0.0188  0.3262
14804TIP3    H165903   5.794   0.374  15.192  1.2024 -0.5496  0.4731
14804TIP3    H265904   5.888   0.440  15.291  0.2343  1.1729  0.2595
14805TIP3   OH265905   3.711   0.339  13.520 -0.9439 -0.0905  0.1916
14805TIP3    H165906   3.657   0.311  13.446  0.5570 -2.4625 -0.0594
14805TIP3    H265907   3.648   0.364  13.588 -2.3311 -1.1863 -0.6781
14806TIP3   OH265908   6.453   6.274  14.462 -0.6984 -0.1257 -0.1574
14806TIP3    H165909   6.417   6.202  14.515 -0.7232  0.5668  0.7683
14806TIP3    H265910   6.414   6.353  14.499  2.0545  0.6812  1.1090
14807TIP3   OH265911   4.642   4.427  16.932 -0.2077 -0.1287  0.3441
14807TIP3    H165912   4.606   4.493  16.990  0.3567 -1.3629  2.1434
14807TIP3    H265913   4.567   4.372  16.908 -0.0621 -0.9536  1.7353
14808TIP3   OH265914   4.658   0.124  11.429  0.5858  0.3585 -1.0431
14808TIP3    H165915   4.593   0.193  11.439  0.6842  0.2220  0.5540
14808TIP3    H265916   4.684   0.130  11.337  0.1981  2.0829 -1.0660
14809TIP3   OH265917   4.901   4.243  15.225  0.3853 -0.8284  0.6850
14809TIP3    H165918   4.807   4.234  15.212  0.3157  0.6944 -0.0195
14809TIP3    H265919   4.919   4.199  15.308 -0.4999 -3.4856 -0.4957
14810TIP3   OH265920   6.431   6.369   6.538 -0.2607 -0.5468  0.2020
14810TIP3    H165921   6.401   6.310   6.469 -0.2671 -1.3839  0.9119
14810TIP3    H265922   6.368   6.357   6.609  0.1183 -0.1796  0.6035
14811TIP3   OH265923   5.269   5.697   4.577 -0.8822  0.1130  0.0048
14811TIP3    H165924   5.247   5.737   4.493 -1.5044 -0.2467 -0.0090
14811TIP3    H265925   5.287   5.605   4.555  1.6064  0.5734 -0.1343
14812TIP3   OH265926   5.580   1.761   2.619 -0.4531  0.4473 -0.3958
14812TIP3    H165927   5.589   1.701   2.545  1.3895  2.0652 -1.5276
14812TIP3    H265928   5.586   1.705   2.696  1.5591 -0.7886 -1.4165
14813TIP3   OH265929   3.843   2.036  11.009 -0.6482 -0.0251 -0.3758
14813TIP3    H165930   3.776   1.967  11.008 -2.6335  1.8292  0.6600
14813TIP3    H265931   3.850   2.063  10.917 -0.7386 -0.7776 -0.6075
14814TIP3   OH265932   1.563   4.773   0.741  0.4621 -0.1113 -0.6002
14814TIP3    H165933   1.492   4.738   0.794  0.9541 -0.0882  0.0866
14814TIP3    H265934   1.640   4.769   0.798  0.8502  0.6010 -1.0602
14815TIP3   OH265935   4.198   3.157   5.260  0.2782 -0.3642  0.6902
14815TIP3    H165936   4.208   3.123   5.171  0.3532 -1.1229  0.9860
14815TIP3    H265937   4.205   3.252   5.250 -1.6752 -0.3188 -0.3833
14816TIP3   OH265938   1.702   5.465   0.464 -0.3585 -0.1078 -1.0897
14816TIP3    H165939   1.656   5.413   0.397  1.0644 -2.1798 -0.5096
14816TIP3    H265940   1.636   5.525   0.497 -2.8377 -3.3232  0.0400
14817TIP3   OH265941   4.978   1.550   3.495  0.3094  0.4075  0.0000
14817TIP3    H165942   4.981   1.483   3.564 -0.6159  1.3142  0.9358
14817TIP3    H265943   5.056   1.532   3.442 -0.6797 -2.2841 -0.5981
14818TIP3   OH265944   2.803   2.206   2.423 -0.1027 -0.0355 -0.2385
14818TIP3    H165945   2.864   2.192   2.350  1.1872 -1.7173  1.1221
14818TIP3    H265946   2.727   2.152   2.401  0.6896 -1.3228  0.1106
14819TIP3   OH265947   2.880   5.128  14.831  0.4007 -0.0682  0.0232
14819TIP3    H165948   2.943   5.137  14.902 -0.4801  1.7199  0.5939
14819TIP3    H265949   2.831   5.048  14.853  0.9142 -0.1810  0.7872
14820TIP3   OH265950   2.299   3.741   4.164 -0.0644 -0.2522  0.4429
14820TIP3    H165951   2.370   3.681   4.186 -0.1824 -1.4885 -2.2451
14820TIP3    H265952   2.225   3.709   4.216  0.8834 -0.0308  1.9494
14821TIP3   OH265953   1.055   5.248   4.467 -0.4355  0.0319  0.2208
14821TIP3    H165954   1.069   5.237   4.561  0.2830 -0.7580  0.0292
14821TIP3    H265955   1.136   5.216   4.427 -0.3156  1.3777 -0.6191
14822TIP3   OH265956   4.227   2.681  14.743 -0.5541  0.1937  0.2263
14822TIP3    H165957   4.297   2.651  14.686  1.0076 -1.1726  2.7915
14822TIP3    H265958   4.254   2.769  14.770 -1.9833  1.4237 -2.1701
14823TIP3   OH265959   1.398   1.066   1.197  0.4239  0.0889  0.1617
14823TIP3    H165960   1.336   1.107   1.136  1.2165 -0.4618 -1.0107
14823TIP3    H265961   1.395   1.122   1.275 -1.5901  0.0489  0.1478
14824TIP3   OH265962   6.728   3.669  16.321 -0.0555  0.1697 -0.2327
14824TIP3    H165963   6.662   3.706  16.262  0.7087  1.0089 -0.5704
14824TIP3    H265964   6.766   3.597  16.273 -0.8388 -0.4368  0.0347
14825TIP3   OH265965   0.243   5.855   5.546  0.6501 -0.3615  0.1755
14825TIP3    H165966   0.170   5.798   5.569  1.6127 -1.6974  0.0589
14825TIP3    H265967   0.243   5.924   5.611 -0.1371 -0.8849  0.7312
14826TIP3   OH265968   0.032   1.615   0.744  0.4733 -0.0242  0.3683
14826TIP3    H165969   0.126   1.608   0.756  0.6167  0.9811 -0.1709
14826TIP3    H265970   0.010   1.550   0.678  0.9628  0.5861 -0.3925
14827TIP3   OH265971   4.116   6.340  13.706 -0.5747  0.1247  0.0773
14827TIP3    H165972   4.128   6.274  13.774  1.6129 -0.2660 -0.6523
14827TIP3    H265973   4.114   6.290  13.624 -3.6181  0.5432 -0.1913
14828TIP3   OH265974   2.908   6.012  13.555 -0.1125  0.1899 -0.5408
14828TIP3    H165975   2.823   6.030  13.596  0.5571 -0.5305  1.2327
14828TIP3    H265976   2.966   5.994  13.629  1.2870 -0.5791 -1.8099
14829TIP3   OH265977   5.527   3.415  12.724 -0.1749  0.0842 -0.0556
14829TIP3    H165978   5.431   3.417  12.725 -0.1459  1.5403  0.7189
14829TIP3    H265979   5.552   3.498  12.685  0.7816  0.2550  0.9129
14830TIP3   OH265980   6.811   3.867   6.088 -0.0612  0.4923  0.3314
14830TIP3    H165981   6.897   3.862   6.047  0.4714  1.2428  1.3585
14830TIP3    H265982   6.761   3.927   6.032 -0.6048 -1.5176 -1.4432
14831TIP3   OH265983   2.663   5.849  13.788  0.4230 -0.1307  0.3133
14831TIP3    H165984   2.727   5.901  13.837  1.5182 -0.8407 -0.3332
14831TIP3    H265985   2.689   5.758  13.803  1.4851 -0.3329 -2.4551
14832TIP3   OH265986   0.901   4.639  15.569  0.0288  0.4589  0.2756
14832TIP3    H165987   0.914   4.723  15.612 -0.8954 -0.2317  1.9634
14832TIP3    H265988   0.930   4.574  15.633  3.1880 -0.4590 -1.9627
14833TIP3   OH265989   6.253   0.984   0.752 -0.4632  0.0516 -1.0166
14833TIP3    H165990   6.191   1.001   0.823  1.6623 -0.2091  0.9626
14833TIP3    H265991   6.233   0.896   0.723  2.4838 -2.2718  3.4182
14834TIP3   OH265992   1.506   1.775   1.542 -0.9240 -0.0127  0.3829
14834TIP3    H165993   1.499   1.739   1.454  0.6462  1.5973 -0.4255
14834TIP3    H265994   1.544   1.705   1.594  0.2528 -0.1959 -0.7235
14835TIP3   OH265995   2.139   2.833   4.311  0.0074 -1.0617  0.0155
14835TIP3    H165996   2.058   2.811   4.357  0.2097 -0.3967  0.7004
14835TIP3    H265997   2.205   2.776   4.351  0.0798 -0.8601  0.1841
14836TIP3   OH265998   4.165   6.459  11.427 -0.3147  0.2728 -0.5560
14836TIP3    H165999   4.112   6.438  11.504  1.5996 -1.8736  0.2408
14836TIP3    H266000   4.148   6.388  11.365  1.7457 -0.5535 -0.2030
14837TIP3   OH266001   2.006   6.287  15.054 -0.5049  0.0155  0.1456
14837TIP3    H166002   1.947   6.217  15.028 -0.1356 -1.1144  2.2001
14837TIP3    H266003   2.039   6.322  14.972 -1.6926 -1.3647 -0.9519
14838TIP3   OH266004   6.668   3.155   0.816  0.3873 -0.4402  0.1840
14838TIP3    H166005   6.588   3.205   0.802 -0.7985 -2.0856  0.9946
14838TIP3    H266006   6.737   3.221   0.817 -1.0566  1.1029  0.4653
14839TIP3   OH266007   3.073   3.756  15.903  0.2230 -0.3056 -0.6091
14839TIP3    H166008   3.094   3.663  15.895  1.2782 -0.0656 -0.7053
14839TIP3    H266009   3.158   3.799  15.908 -0.2373  0.7233 -1.3937
14840TIP3   OH266010   1.802   1.714   0.616  0.1752  0.1084 -0.0448
14840TIP3    H166011   1.809   1.634   0.668 -2.3191  0.0105  0.2278
14840TIP3    H266012   1.821   1.785   0.677 -0.8776 -0.1119  0.5527
14841TIP3   OH266013   4.858   0.618  12.518 -0.4159 -0.0282 -0.1938
14841TIP3    H166014   4.882   0.539  12.566 -0.5705  0.4950  0.7769
14841TIP3    H266015   4.790   0.659  12.572 -1.5433 -0.0976 -1.5404
14842TIP3   OH266016   2.702   3.568   5.888 -0.1137  0.4178 -0.8051
14842TIP3    H166017   2.716   3.648   5.837  0.7950  1.9150  1.7070
14842TIP3    H266018   2.765   3.574   5.959 -1.3182 -1.6269  0.4772
14843TIP3   OH266019   3.156   0.240   3.510  0.1237  0.2212 -0.0722
14843TIP3    H166020   3.071   0.282   3.517  0.8428  1.4955  1.2971
14843TIP3    H266021   3.218   0.312   3.496  1.1154 -0.5791  0.1250
14844TIP3   OH266022   6.690   5.291   5.811 -0.0503  0.4777 -0.4520
14844TIP3    H166023   6.644   5.370   5.840  0.4821  0.4240  0.5484
14844TIP3    H266024   6.781   5.305   5.837 -0.0308 -0.6341  0.1048
14845TIP3   OH266025   1.994   2.532  12.383  0.3014  0.2751 -0.4535
14845TIP3    H166026   1.929   2.512  12.316  1.2047 -1.5823 -0.8064
14845TIP3    H266027   2.078   2.517  12.340  0.8879 -2.2476  1.4641
14846TIP3   OH266028   4.215   3.107   0.998  0.1552  0.6142  0.0697
14846TIP3    H166029   4.304   3.074   0.994  0.3371  1.1246 -0.2276
14846TIP3    H266030   4.185   3.106   0.907 -0.0005  0.8154  0.1174
14847TIP3   OH266031   3.852   5.077  15.802 -0.2827 -0.3766  0.2647
14847TIP3    H166032   3.856   5.164  15.763  1.6939 -0.3566  0.4676
14847TIP3    H266033   3.775   5.079  15.859  0.1816  1.4881  0.8465
14848TIP3   OH266034   4.471   0.551  11.954  0.1630  0.1585  0.3440
14848TIP3    H166035   4.516   0.629  11.922 -0.4505 -0.2085 -1.4838
14848TIP3    H266036   4.441   0.575  12.042  2.1473  1.0995  0.7802
14849TIP3   OH266037   2.525   0.063  15.110 -0.1065 -0.0947  0.2027
14849TIP3    H166038   2.613   0.089  15.138 -0.2582  0.2214  0.3855
14849TIP3    H266039   2.476   0.052  15.191 -0.3882  0.2619  0.0793
14850TIP3   OH266040   3.205   4.562  16.863  0.0547 -0.4951 -0.3006
14850TIP3    H166041   3.171   4.571  16.774  0.3186 -0.9181 -0.4421
14850TIP3    H266042   3.240   4.649  16.883 -0.5062 -0.2391 -0.4005
14851TIP3   OH266043   3.684   6.431  14.231 -0.0360 -0.4609 -0.2894
14851TIP3    H166044   3.770   6.418  14.271 -0.1845 -0.9638 -0.1201
14851TIP3    H266045   3.671   6.525  14.231  0.8041 -0.3290 -0.9224
14852TIP3   OH266046   1.891   2.648   4.485  0.3201  0.3483 -0.0485
14852TIP3    H166047   1.850   2.724   4.526  0.0981 -0.1933  0.7465
14852TIP3    H266048   1.959   2.620   4.548 -0.4830 -0.9032  0.2850
14853TIP3   OH266049   6.258   3.133   4.262 -0.5656 -0.3494  0.8193
14853TIP3    H166050   6.208   3.133   4.344 -1.1322 -0.4986  0.4697
14853TIP3    H266051   6.297   3.046   4.258 -2.1813 -1.0365 -0.0830
14854TIP3   OH266052   1.443   4.073   3.001  0.1095 -0.1844 -0.2819
14854TIP3    H166053   1.381   4.138   2.968 -0.6645 -0.9574 -0.3668
14854TIP3    H266054   1.409   3.989   2.970 -0.2981 -0.8838  1.9570
14855TIP3   OH266055   4.669   4.000   3.631  0.0871 -0.6883  0.1927
14855TIP3    H166056   4.754   3.965   3.604  0.8883  1.2398  0.1184
14855TIP3    H266057   4.636   4.046   3.554 -0.9906 -1.3532  0.2503
14856TIP3   OH266058   1.653   2.595  13.192  0.2920  0.3874  0.2803
14856TIP3    H166059   1.641   2.620  13.100  0.7330 -0.6509 -0.0667
14856TIP3    H266060   1.742   2.621  13.212  0.0730  0.9547  0.5313
14857TIP3   OH266061   1.445   2.151  16.469  0.5763  0.7067  0.2101
14857TIP3    H166062   1.429   2.227  16.412 -0.6330  1.8204  1.9786
14857TIP3    H266063   1.379   2.159  16.538  4.3989  1.5832  3.9712
14858TIP3   OH266064   4.460   1.091   1.061  0.2699 -0.8102 -0.4884
14858TIP3    H166065   4.420   1.011   1.096 -2.9742  1.0842  0.3366
14858TIP3    H266066   4.387   1.152   1.051  2.9391  2.8418  1.0825
14859TIP3   OH266067   6.499   3.129  15.699  0.6548 -0.3575 -0.1227
14859TIP3    H166068   6.583   3.098  15.667  1.1356  1.3229 -0.5279
14859TIP3    H266069   6.520   3.181  15.776  0.1447  1.1961 -0.9999
14860TIP3   OH266070   0.736   5.912  16.522  0.5057 -0.4879  0.3001
14860TIP3    H166071   0.723   5.822  16.553  1.0513 -0.7063 -0.0911
14860TIP3    H266072   0.814   5.907  16.467 -0.8071 -0.2580 -1.6409
14861TIP3   OH266073   3.480   4.644   1.391 -0.2058 -0.1134  0.2963
14861TIP3    H166074   3.422   4.720   1.386 -0.1447  0.0156  1.4013
14861TIP3    H266075   3.467   4.610   1.479 -0.2618 -1.4119 -0.1990
14862TIP3   OH266076   0.233   2.134   0.978 -0.1371 -0.0574  0.6716
14862TIP3    H166077   0.273   2.050   0.955 -1.3797 -0.9054  1.5651
14862TIP3    H266078   0.274   2.158   1.061 -0.6839 -0.3926  1.0398
14863TIP3   OH266079   6.577   0.752   3.570 -0.5847 -0.3483  0.3002
14863TIP3    H166080   6.501   0.794   3.611 -0.0312 -0.2872  1.2927
14863TIP3    H266081   6.543   0.711   3.491 -1.1107  2.2616 -0.9049
14864TIP3   OH266082   2.694   3.842   1.732 -0.3528  0.0103  0.1639
14864TIP3    H166083   2.656   3.906   1.793 -1.8119 -1.2003  0.5586
14864TIP3    H266084   2.765   3.801   1.782 -0.2742  0.3974  0.3712
14865TIP3   OH266085   3.438   3.025   5.921 -0.5820 -0.3959  0.2301
14865TIP3    H166086   3.362   3.044   5.974  0.5089  1.3924  1.1835
14865TIP3    H266087   3.511   3.065   5.968  0.5482  0.3316 -2.0614
14866TIP3   OH266088   1.201   5.247   5.838 -0.2582  0.4699  0.3555
14866TIP3    H166089   1.277   5.302   5.814  0.6149 -0.6100  0.6105
14866TIP3    H266090   1.203   5.244   5.933 -0.8686  0.7776  0.3762
14867TIP3   OH266091   5.022   0.958  14.912  0.2822 -0.0019 -0.0882
14867TIP3    H166092   5.024   1.048  14.879 -0.9450  0.3146  0.6599
14867TIP3    H266093   4.944   0.955  14.968 -0.1756 -1.7817 -0.7923
14868TIP3   OH266094   0.309   3.943   4.954 -0.1422 -0.0501 -0.5098
14868TIP3    H166095   0.364   3.967   5.028 -2.2153 -0.5449  1.2059
14868TIP3    H266096   0.347   3.861   4.921  1.6065  0.8845 -0.9098
14869TIP3   OH266097   5.814   0.498  12.553  0.1740 -0.2595  0.5866
14869TIP3    H166098   5.782   0.567  12.611 -3.1765 -0.3207 -1.0896
14869TIP3    H266099   5.744   0.432  12.553  0.9792 -1.1605 -1.9756
14870TIP3   OH266100   0.499   0.860  16.164 -0.0932 -0.1719 -0.2705
14870TIP3    H166101   0.533   0.816  16.087  1.4016  0.7820 -0.1712
14870TIP3    H266102   0.571   0.915  16.194 -1.3574  1.0377  0.5987
14871TIP3   OH266103   3.360   0.139  11.438 -0.3442 -0.1896  0.2807
14871TIP3    H166104   3.304   0.169  11.509  0.9732  0.1192  1.2135
14871TIP3    H266105   3.404   0.219  11.407  1.2993 -0.7448  1.1038
14872TIP3   OH266106   1.459   1.932   6.377 -0.3181  0.4079 -0.0473
14872TIP3    H166107   1.366   1.955   6.381 -0.4396 -0.2772  3.0242
14872TIP3    H266108   1.460   1.840   6.351 -0.3835  0.8794 -1.7751
14873TIP3   OH266109   0.615   5.050  15.164 -0.0110  0.2595  0.4397
14873TIP3    H166110   0.657   4.972  15.129  1.5271  1.3118 -0.0845
14873TIP3    H266111   0.590   5.025  15.253  2.3708 -0.1786  1.0283
14874TIP3   OH266112   0.601   5.683  14.671 -0.1559  0.0682  0.1019
14874TIP3    H166113   0.522   5.667  14.620  0.5672  1.6018 -1.5256
14874TIP3    H266114   0.673   5.680  14.608  0.5986  3.5373  0.6868
14875TIP3   OH266115   1.764   4.843  13.227 -0.4252  0.4530 -0.0926
14875TIP3    H166116   1.669   4.838  13.228 -0.4456  0.8603  1.3437
14875TIP3    H266117   1.792   4.783  13.295  0.4264 -0.8363 -1.5525
14876TIP3   OH266118   6.617   2.742   2.096  0.4919 -0.0111 -0.1175
14876TIP3    H166119   6.622   2.837   2.101 -3.4859  0.2579  0.8258
14876TIP3    H266120   6.637   2.713   2.185 -1.8399  0.2177  0.5057
14877TIP3   OH266121   4.785   5.098  15.103  0.0561 -0.0687  0.6269
14877TIP3    H166122   4.772   5.009  15.073 -1.0026  0.2208  0.2158
14877TIP3    H266123   4.716   5.149  15.060  2.0174  1.3664 -0.9519
14878TIP3   OH266124   2.037   3.660  15.298 -0.2298  0.1124  0.0441
14878TIP3    H166125   2.083   3.582  15.270 -0.3741  0.0873 -0.1216
14878TIP3    H266126   2.070   3.678  15.386 -0.4243 -0.3137  0.2047
14879TIP3   OH266127   4.962   5.577   3.517 -0.0113  0.5795  0.1881
14879TIP3    H166128   4.908   5.654   3.535 -1.8081 -0.7330  0.4883
14879TIP3    H266129   5.051   5.605   3.538 -0.6213  2.6049  0.1900
14880TIP3   OH266130   6.480   1.817   3.261 -0.2761 -0.1817  0.0117
14880TIP3    H166131   6.568   1.799   3.294  0.8838  1.5052 -2.0104
14880TIP3    H266132   6.461   1.745   3.202  0.6007  0.4402 -1.0642
14881TIP3   OH266133   2.703   6.625  14.540  0.0241 -0.2419 -0.2345
14881TIP3    H166134   2.656   6.692  14.590  0.9706  1.5402 -1.6924
14881TIP3    H266135   2.763   6.586  14.604 -0.4518  0.3916  0.6120
14882TIP3   OH266136   0.360   1.785  16.220 -0.0343 -0.6687 -0.4447
14882TIP3    H166137   0.390   1.694  16.219  0.6786 -0.4259 -1.9617
14882TIP3    H266138   0.346   1.807  16.128 -1.1543  0.4593 -0.0302
14883TIP3   OH266139   0.518   5.930  13.377  0.3463  0.2878 -0.5589
14883TIP3    H166140   0.460   6.001  13.402  0.2578  0.6387 -1.7079
14883TIP3    H266141   0.475   5.851  13.409 -0.2651  0.6368 -0.5111
14884TIP3   OH266142   6.784   4.032   4.494 -0.5255 -0.1046 -0.4389
14884TIP3    H166143   6.865   4.072   4.463 -0.7285  0.4328 -0.2821
14884TIP3    H266144   6.717   4.100   4.481 -0.7569 -0.1591  0.4311
14885TIP3   OH266145   3.535   2.871   4.491 -0.6667 -0.3301 -0.1168
14885TIP3    H166146   3.595   2.944   4.508 -0.1422 -0.5965 -0.7876
14885TIP3    H266147   3.593   2.797   4.472 -1.2067 -0.3343 -1.8248
14886TIP3   OH266148   1.084   3.302  11.480  0.5292 -0.1696  0.0485
14886TIP3    H166149   1.109   3.392  11.458  0.6830 -0.0940  0.5242
14886TIP3    H266150   1.161   3.266  11.524  1.5680 -1.4793 -2.7392
14887TIP3   OH266151   1.587   3.440  11.397  0.5827  0.1695  0.4800
14887TIP3    H166152   1.505   3.452  11.349  0.1828  1.7927  1.5022
14887TIP3    H266153   1.564   3.385  11.471  0.8715 -1.0708 -0.3409
14888TIP3   OH266154   2.850   4.755  14.975 -0.5142  0.3573  0.2939
14888TIP3    H166155   2.782   4.798  14.922 -1.4390 -1.3214  0.0775
14888TIP3    H266156   2.808   4.740  15.060 -0.1781 -0.0570  0.3856
14889TIP3   OH266157   3.663   6.118   2.122  0.0905 -0.2465  0.0739
14889TIP3    H166158   3.595   6.142   2.186  0.2600 -1.1668  0.6131
14889TIP3    H266159   3.721   6.059   2.171  0.6603 -0.3344 -0.7110
14890TIP3   OH266160   2.869   2.643   0.570 -0.1315  0.5380 -1.5468
14890TIP3    H166161   2.859   2.633   0.475  0.7468  1.0140 -1.6968
14890TIP3    H266162   2.962   2.628   0.586 -0.3651 -0.0024 -0.6961
14891TIP3   OH266163   3.641   3.625   3.575 -0.2032  0.2636  0.3121
14891TIP3    H166164   3.618   3.573   3.498  1.8020 -0.5055  0.1952
14891TIP3    H266165   3.566   3.618   3.633 -1.3156 -0.0052 -1.1290
14892TIP3   OH266166   5.500   1.605  12.442 -0.4759 -0.0068 -0.1077
14892TIP3    H166167   5.480   1.550  12.518 -2.3518 -0.8895 -1.1946
14892TIP3    H266168   5.414   1.628  12.406  0.3720  0.8909 -1.6212
14893TIP3   OH266169   6.659   0.704  12.306 -0.6127  0.3114 -0.0298
14893TIP3    H166170   6.635   0.743  12.222 -0.6282  0.6324  0.1224
14893TIP3    H266171   6.704   0.774  12.353 -2.1947  0.6914  0.9490
14894TIP3   OH266172   2.419   1.258   4.857 -0.5072  0.2327 -0.2458
14894TIP3    H166173   2.335   1.275   4.900 -0.0599  0.8077  0.4209
14894TIP3    H266174   2.455   1.183   4.905 -0.7851 -0.2115 -0.7361
14895TIP3   OH266175   5.698   5.643  14.395  0.1154 -0.3680 -0.1986
14895TIP3    H166176   5.616   5.653  14.347  0.8052  0.1142 -1.2912
14895TIP3    H266177   5.730   5.732  14.407  0.6062 -0.5715  0.0080
14896TIP3   OH266178   0.342   5.181  13.733  0.0693 -0.1471  0.2735
14896TIP3    H166179   0.320   5.187  13.826  0.4555 -0.5122  0.3883
14896TIP3    H266180   0.366   5.089  13.720 -1.5918 -0.4704 -0.5421
14897TIP3   OH266181   0.802   0.362   4.991  0.1142  0.0089  0.1099
14897TIP3    H166182   0.772   0.271   4.987  0.9948 -0.3477  1.2230
14897TIP3    H266183   0.839   0.379   4.904  1.2226 -1.1605  0.3445
14898TIP3   OH266184   5.172   4.968  14.477 -0.3039 -0.1658  0.5266
14898TIP3    H166185   5.097   4.914  14.503  0.2222  0.4647  3.5550
14898TIP3    H266186   5.248   4.919  14.509  0.3023  1.2459  1.2750
14899TIP3   OH266187   4.095   4.629  15.860  0.7786  0.5757 -0.5088
14899TIP3    H166188   4.187   4.637  15.885  1.2121 -0.1950 -1.8302
14899TIP3    H266189   4.067   4.545  15.896  0.9882  0.1613 -1.3020
14900TIP3   OH266190   0.785   2.446  14.014  1.0502  0.1277 -1.0091
14900TIP3    H166191   0.801   2.353  14.032 -0.2079  0.1118  0.1280
14900TIP3    H266192   0.694   2.448  13.984 -0.5975  1.5530  3.6647
14901TIP3   OH266193   1.492   6.229  12.603  0.2096  0.3560 -0.2923
14901TIP3    H166194   1.528   6.286  12.535  0.0959  0.6977 -0.0689
14901TIP3    H266195   1.552   6.240  12.677  1.3534 -1.3882 -0.9424
14902TIP3   OH266196   6.097   0.383  10.521 -0.6560 -0.1582  0.6288
14902TIP3    H166197   6.127   0.292  10.514  1.0222  0.3937  0.4084
14902TIP3    H266198   6.177   0.433  10.539 -1.6196  1.2325  1.1251
14903TIP3   OH266199   4.039   0.049   5.162  0.1270 -0.1089 -0.6112
14903TIP3    H166200   3.944   0.057   5.166  0.3327  2.0381  1.8821
14903TIP3    H266201   4.060  -0.015   5.230  0.4186 -1.2551 -1.7688
14904TIP3   OH266202   3.019   5.708   1.898  0.3717 -0.1844  0.2785
14904TIP3    H166203   3.059   5.791   1.925 -0.4372  0.0274  0.8627
14904TIP3    H266204   2.955   5.689   1.966 -0.1642 -0.7735 -0.3755
14905TIP3   OH266205   0.211   5.845  15.709 -0.0381 -0.1228  0.3510
14905TIP3    H166206   0.202   5.760  15.666 -0.9000  0.3293 -0.3742
14905TIP3    H266207   0.121   5.877  15.718  0.2800  0.7128  0.6330
14906TIP3   OH266208   2.564   0.707  14.070  0.2074  0.0961  0.2747
14906TIP3    H166209   2.521   0.622  14.062  0.7250 -0.2493  1.1557
14906TIP3    H266210   2.640   0.702  14.012 -0.6539  0.5396 -0.9174
14907TIP3   OH266211   2.621   1.452   4.474 -0.4284 -0.4037  0.0275
14907TIP3    H166212   2.537   1.408   4.487 -0.0467 -1.2971 -0.4998
14907TIP3    H266213   2.661   1.407   4.400 -0.0821  0.9269 -0.6224
14908TIP3   OH266214   5.414   3.155   0.431  0.0641 -0.4697 -0.2071
14908TIP3    H166215   5.497   3.188   0.465 -1.0179  0.4424  1.6305
14908TIP3    H266216   5.390   3.216   0.362  1.3884 -1.3010 -1.4418
14909TIP3   OH266217   2.516   6.711  16.417  0.1007  0.3549  0.0526
14909TIP3    H166218   2.483   6.766  16.488  0.4824 -0.0427  0.5383
14909TIP3    H266219   2.489   6.756  16.337 -0.7800  0.5293  0.4486
14910TIP3   OH266220   0.215   6.763   2.343 -0.3598  0.0155 -0.2442
14910TIP3    H166221   0.221   6.820   2.266 -2.2508  0.1207 -0.3432
14910TIP3    H266222   0.171   6.817   2.409 -1.3811 -1.0145 -0.0559
14911TIP3   OH266223   3.641   0.618  13.603  0.7685 -0.1133 -0.5299
14911TIP3    H166224   3.596   0.563  13.668  2.0910 -0.0554  0.4713
14911TIP3    H266225   3.656   0.560  13.529  0.5913 -0.6199 -0.1776
14912TIP3   OH266226   3.280   2.773  14.616  0.0041 -0.1335 -0.2232
14912TIP3    H166227   3.362   2.822  14.618 -0.0824 -0.0200  0.9350
14912TIP3    H266228   3.213   2.839  14.597 -0.1982  0.3683  2.0088
14913TIP3   OH266229   1.879   6.619  15.649  0.1333  0.2026 -0.1236
14913TIP3    H166230   1.868   6.708  15.617 -0.6321  1.2224  2.8559
14913TIP3    H266231   1.949   6.624  15.714  0.1188 -1.3501  0.0341
14914TIP3   OH266232   1.161   2.062   4.687  0.3550 -0.3933  0.2301
14914TIP3    H166233   1.101   2.089   4.618 -0.5564 -0.6538  0.9125
14914TIP3    H266234   1.175   1.969   4.672 -1.4791 -0.9250  1.5944
14915TIP3   OH266235   4.036   6.318  13.232  0.1128  0.0567 -0.2858
14915TIP3    H166236   4.092   6.242  13.213 -0.6667 -1.2983  2.5282
14915TIP3    H266237   3.948   6.290  13.208 -0.1054  0.2578  0.2732
14916TIP3   OH266238   4.463   3.002   4.839 -0.5577 -0.1834  0.0357
14916TIP3    H166239   4.470   2.911   4.809 -0.2560 -0.2605  0.3408
14916TIP3    H266240   4.552   3.026   4.864 -0.4437  0.5447 -1.0264
14917TIP3   OH266241   6.657   5.026   6.142 -0.6380  0.3489 -0.1465
14917TIP3    H166242   6.680   5.088   6.210  0.5792  0.0025 -0.2246
14917TIP3    H266243   6.656   4.941   6.186 -0.5915  0.2190 -0.3925
14918TIP3   OH266244   4.508   2.312  14.070 -0.1222  0.1536  0.0450
14918TIP3    H166245   4.516   2.297  13.976  0.5977 -0.0225  0.1333
14918TIP3    H266246   4.563   2.245  14.110 -1.1313 -0.3486  0.6318
14919TIP3   OH266247   5.141   2.412   0.344 -0.2868  0.1459  0.0275
14919TIP3    H166248   5.200   2.386   0.274 -0.3478 -0.5170  0.2239
14919TIP3    H266249   5.188   2.480   0.391  0.6565 -0.9610  0.6921
14920TIP3   OH266250   1.979   5.060  16.218 -0.4954  0.4802  0.2592
14920TIP3    H166251   2.065   5.097  16.233 -0.9743  1.9311 -0.5025
14920TIP3    H266252   1.923   5.135  16.200 -1.8937 -0.4547  0.6255
14921TIP3   OH266253   2.446   1.550  16.210 -0.2801 -0.1681 -0.0569
14921TIP3    H166254   2.354   1.545  16.237 -1.6301  0.9321 -4.0938
14921TIP3    H266255   2.462   1.467  16.166  0.1935  0.2820 -0.7275
14922TIP3   OH266256   2.252   0.091   1.295  0.3513  0.1404 -0.5015
14922TIP3    H166257   2.259   0.006   1.252  1.1604  0.2739 -0.6466
14922TIP3    H266258   2.265   0.155   1.224  0.5961  0.3703 -0.2506
14923TIP3   OH266259   1.410   3.336   0.129 -0.1170  0.2193 -0.2925
14923TIP3    H166260   1.344   3.305   0.068  0.4327 -0.4011 -0.5818
14923TIP3    H266261   1.392   3.289   0.210  0.8643 -1.0680 -0.8012
14924TIP3   OH266262   5.214   6.118   4.959 -0.1220 -0.1909 -0.1590
14924TIP3    H166263   5.223   6.107   4.865  1.0280 -2.1123  0.1339
14924TIP3    H266264   5.272   6.191   4.981 -0.1444  0.0450 -0.9042
14925TIP3   OH266265   1.156   3.052   5.263  0.8212  0.4954 -0.4758
14925TIP3    H166266   1.190   3.141   5.268 -2.8176  1.9538 -0.2859
14925TIP3    H266267   1.129   3.031   5.353 -1.5481  0.5876 -1.1270
14926TIP3   OH266268   4.834   0.647  14.896 -0.4313 -0.6278  0.1475
14926TIP3    H166269   4.832   0.717  14.830  0.2610 -1.6734 -1.0030
14926TIP3    H266270   4.919   0.605  14.884 -0.0627 -0.4852  2.0976
14927TIP3   OH266271   4.538   0.482   0.853 -0.3665 -0.2443 -0.6900
14927TIP3    H166272   4.619   0.527   0.829  1.0170 -1.7347  0.9726
14927TIP3    H266273   4.526   0.416   0.784 -0.8278  0.7716 -1.5840
14928TIP3   OH266274   0.868   1.456   0.249  0.1728  0.3363  0.3833
14928TIP3    H166275   0.778   1.476   0.221  0.1615  0.2258  0.3407
14928TIP3    H266276   0.919   1.532   0.223  0.5136 -0.5374 -1.6212
14929TIP3   OH266277   5.569   5.795   1.867 -0.5994 -0.5370  0.7071
14929TIP3    H166278   5.505   5.863   1.890  2.0584  2.0818  0.6698
14929TIP3    H266279   5.599   5.819   1.780  1.4557 -0.8772  1.2920
14930TIP3   OH266280   6.662   5.961   1.944 -0.0990 -0.0506 -0.5038
14930TIP3    H166281   6.621   5.881   1.911 -1.1183  1.1152 -2.1231
14930TIP3    H266282   6.619   5.979   2.027 -0.8745 -0.3939 -0.8328
14931TIP3   OH266283   5.540   2.369  16.536 -0.5073 -0.3751 -0.7246
14931TIP3    H166284   5.563   2.410  16.452 -1.5659  0.2111 -0.7324
14931TIP3    H266285   5.623   2.369  16.585 -0.0827  0.0993 -1.4273
14932TIP3   OH266286   1.188   1.617   4.914  0.3028 -0.5846  0.0517
14932TIP3    H166287   1.275   1.595   4.879  0.3066 -0.4678 -0.0132
14932TIP3    H266288   1.128   1.559   4.869  0.1969  0.2015 -0.8250
14933TIP3   OH266289   6.406   0.497  11.459 -0.4647 -0.0368 -0.0562
14933TIP3    H166290   6.487   0.546  11.471 -0.8246  0.7219 -0.6801
14933TIP3    H266291   6.366   0.494  11.545  0.4449 -0.8230  0.3561
14934TIP3   OH266292   2.782   0.673   3.147  0.3234  0.1047  0.2297
14934TIP3    H166293   2.765   0.758   3.188  0.8401  0.8806 -1.1438
14934TIP3    H266294   2.739   0.610   3.205  0.7785  1.1977  1.8034
14935TIP3   OH266295   4.485   2.772  12.999 -0.0047 -0.0353  0.2046
14935TIP3    H166296   4.452   2.683  13.013  0.0599 -0.2689 -1.0381
14935TIP3    H266297   4.570   2.761  12.958  0.0808  0.5968  0.1963
14936TIP3   OH266298   1.025   3.433   1.777  0.3118 -0.0668  0.7213
14936TIP3    H166299   1.016   3.520   1.739 -0.3726  0.2246  1.5334
14936TIP3    H266300   1.065   3.380   1.708 -1.1454  0.3986 -0.4891
14937TIP3   OH266301   0.188   4.805  14.482  0.4765  0.4995 -0.7384
14937TIP3    H166302   0.274   4.827  14.449  0.6743  2.2515  0.8734
14937TIP3    H266303   0.151   4.888  14.513 -1.2370 -0.4353 -0.1574
14938TIP3   OH266304   4.894   2.705   3.281  0.3510  0.4835  0.1970
14938TIP3    H166305   4.900   2.772   3.214  1.5808  0.0104 -0.1751
14938TIP3    H266306   4.978   2.708   3.327  1.2030 -2.0787 -1.0814
14939TIP3   OH266307   1.836   3.135  15.588  0.5521  0.2337 -0.2767
14939TIP3    H166308   1.859   3.070  15.655  2.5042 -2.0271 -2.9890
14939TIP3    H266309   1.747   3.113  15.562  1.4193 -1.8338 -1.6115
14940TIP3   OH266310   4.137   6.143   2.095  0.0942  0.3097 -0.8403
14940TIP3    H166311   4.096   6.178   2.016  2.7477 -1.3220 -2.9928
14940TIP3    H266312   4.138   6.048   2.082 -0.2711 -0.0777  1.5935
14941TIP3   OH266313   6.127   1.558   0.910 -0.1509  0.2323 -0.4265
14941TIP3    H166314   6.184   1.631   0.886  0.4631  0.6238  2.0684
14941TIP3    H266315   6.176   1.480   0.884  1.2074  0.5924  0.9778
14942TIP3   OH266316   3.145   5.618  12.426  0.3206  0.1002  0.2489
14942TIP3    H166317   3.211   5.686  12.416  0.4755 -0.0165  0.4806
14942TIP3    H266318   3.177   5.544  12.374  0.6537 -0.1598  0.8139
14943TIP3   OH266319   4.270   0.960  14.231 -0.8029 -0.2178 -0.3710
14943TIP3    H166320   4.175   0.958  14.219 -1.0084 -0.7062  1.2226
14943TIP3    H266321   4.306   0.953  14.142 -2.2564 -0.2856 -0.9580
14944TIP3   OH266322   5.560   1.305   5.771  0.4737  0.3154 -0.2775
14944TIP3    H166323   5.531   1.257   5.848  1.1721  0.1742 -0.0963
14944TIP3    H266324   5.625   1.367   5.804  2.0204 -0.8890 -0.9722
14945TIP3   OH266325   2.127   4.743  12.976 -0.3972 -0.1242  0.1897
14945TIP3    H166326   2.136   4.666  13.032 -0.1056  0.0885  0.4337
14945TIP3    H266327   2.138   4.817  13.036  0.7480  0.1011 -0.2922
14946TIP3   OH266328   3.777   5.218  12.080  0.2928  0.0527 -0.0196
14946TIP3    H166329   3.733   5.214  11.995 -0.0629 -1.8991  0.2377
14946TIP3    H266330   3.755   5.305  12.114 -1.9362 -0.2336 -0.6424
14947TIP3   OH266331   2.821   5.633   2.113 -0.0023 -0.1067 -0.7659
14947TIP3    H166332   2.785   5.586   2.188  0.9083 -1.4421 -1.1486
14947TIP3    H266333   2.785   5.588   2.037  1.3409 -0.5763 -1.1391
14948TIP3   OH266334   0.221   0.773   5.472 -0.6051  0.0207 -0.6355
14948TIP3    H166335   0.254   0.692   5.434 -0.5473  0.6497 -1.9255
14948TIP3    H266336   0.282   0.793   5.543  1.3396  0.7528 -2.4983
14949TIP3   OH266337   1.272   0.135  14.784  0.4127 -0.4973 -0.2910
14949TIP3    H166338   1.199   0.196  14.796  0.3608 -0.4265 -0.9381
14949TIP3    H266339   1.276   0.120  14.689  1.4063 -0.2979 -0.2884
14950TIP3   OH266340   0.297   2.791   4.461  0.3492  0.1383  0.1700
14950TIP3    H166341   0.275   2.881   4.486  1.8546  0.3035  0.9796
14950TIP3    H266342   0.382   2.798   4.418  1.9909 -1.2218  2.9905
14951TIP3   OH266343   4.203   6.612  13.070  0.0417 -0.1321 -0.0743
14951TIP3    H166344   4.274   6.661  13.111  0.0711  0.5916 -0.9716
14951TIP3    H266345   4.125   6.637  13.120  0.3416 -0.5500  0.6037
14952TIP3   OH266346   5.544   2.093  12.003 -0.2032 -0.1431 -0.2462
14952TIP3    H166347   5.455   2.127  11.994 -0.1947 -0.4273 -1.5320
14952TIP3    H266348   5.583   2.105  11.917  0.3599 -1.7906 -0.2376
14953TIP3   OH266349   5.985   3.912   1.923  0.7117 -0.0704  0.0545
14953TIP3    H166350   6.001   3.829   1.969 -1.8019 -0.4535  0.2925
14953TIP3    H266351   5.973   3.886   1.831 -1.1411 -0.1362  0.2912
14954TIP3   OH266352   2.332   3.482  17.024 -0.3600 -0.7795 -0.0065
14954TIP3    H166353   2.258   3.535  17.053  1.1171  1.8377 -0.7686
14954TIP3    H266354   2.298   3.431  16.951 -0.9058  2.0058 -1.7635
14955TIP3   OH266355   6.324   3.481   0.004 -0.4652  0.0556 -0.2917
14955TIP3    H166356   6.413   3.508  -0.020 -0.0641  0.1319  1.1864
14955TIP3    H266357   6.267   3.541  -0.044  0.3571  1.7733  0.8122
14956TIP3   OH266358   0.750   0.852  11.646  0.6857 -0.0208 -0.1490
14956TIP3    H166359   0.710   0.808  11.571 -1.9631  0.9750  0.6356
14956TIP3    H266360   0.754   0.784  11.714 -3.4455  0.7974  1.0794
14957TIP3   OH266361   2.691   4.983  15.185  0.3478  0.4921  0.5950
14957TIP3    H166362   2.748   4.969  15.261  2.0632  2.2195 -0.3449
14957TIP3    H266363   2.714   5.071  15.153 -0.6214 -0.0489 -1.6885
14958TIP3   OH266364   2.611   0.701  13.341 -0.0411 -0.4467  0.1504
14958TIP3    H166365   2.556   0.779  13.333 -0.1648 -0.7198 -1.8395
14958TIP3    H266366   2.608   0.680  13.435 -2.3416  0.2655  0.2825
14959TIP3   OH266367   6.770   6.064   5.215 -0.5539 -0.1899  0.1713
14959TIP3    H166368   6.858   6.033   5.235 -0.9889 -0.6879  1.3638
14959TIP3    H266369   6.713   6.013   5.272 -1.4536  1.4510  0.7737
14960TIP3   OH266370   5.239   3.512  13.117  0.7542  0.1201  0.2401
14960TIP3    H166371   5.254   3.606  13.107  0.8852  0.2997  1.9169
14960TIP3    H266372   5.203   3.484  13.033  1.9258  1.4180 -0.7104
14961TIP3   OH266373   4.324   4.363   3.575  0.4353 -0.0686 -0.2744
14961TIP3    H166374   4.335   4.339   3.483  1.2941 -0.7767  0.0012
14961TIP3    H266375   4.384   4.436   3.588  0.0297  0.2824 -0.3704
14962TIP3   OH266376   0.584   4.334   2.183 -0.2417 -0.2205 -0.6165
14962TIP3    H166377   0.519   4.399   2.158  1.4960  1.3579 -1.2109
14962TIP3    H266378   0.651   4.384   2.230  1.5146 -1.4122 -1.7799
14963TIP3   OH266379   0.103   6.344   5.289  0.2922  0.3973  0.2743
14963TIP3    H166380   0.065   6.428   5.314 -0.1348  0.0425  0.8213
14963TIP3    H266381   0.029   6.283   5.288  0.6360 -0.0240  0.1002
14964TIP3   OH266382   0.890   2.348  12.135  0.4015  0.3711 -1.0093
14964TIP3    H166383   0.857   2.258  12.134  0.4241  0.3299  0.6461
14964TIP3    H266384   0.985   2.339  12.124  0.3559  0.2293 -1.2973
14965TIP3   OH266385   0.230   1.934  17.025 -0.3690 -1.0046 -0.1567
14965TIP3    H166386   0.217   1.902  16.936  0.0850 -1.6456  0.0001
14965TIP3    H266387   0.286   2.011  17.015 -0.8019 -0.7277 -0.4720
14966TIP3   OH266388   4.150   4.831  15.176  0.2356  0.1531 -0.1173
14966TIP3    H166389   4.086   4.766  15.205  1.2104 -0.1662  1.4135
14966TIP3    H266390   4.110   4.915  15.195 -0.3999 -0.0230 -0.6816
14967TIP3   OH266391   3.673   6.625  12.326 -0.0134  0.1069 -1.0759
14967TIP3    H166392   3.617   6.549  12.338 -0.5221  0.8048  1.1183
14967TIP3    H266393   3.759   6.588  12.304 -0.5130 -1.0651 -1.0784
14968TIP3   OH266394   2.543   2.534   0.574  0.2464  0.3302 -0.8294
14968TIP3    H166395   2.531   2.477   0.498 -2.2654  0.4251 -0.5432
14968TIP3    H266396   2.600   2.485   0.632 -1.3546 -1.6533 -0.8806
14969TIP3   OH266397   2.148   0.362   5.672  0.4906 -0.9659 -0.2547
14969TIP3    H166398   2.070   0.335   5.623  0.4060 -2.5318  0.7217
14969TIP3    H266399   2.205   0.401   5.605 -1.0704  0.1200 -0.9973
14970TIP3   OH266400   6.635   1.806  11.099  0.2085  0.0457 -0.3883
14970TIP3    H166401   6.618   1.892  11.059 -0.8810 -0.3153 -0.7039
14970TIP3    H266402   6.730   1.804  11.109  0.2338  1.3722 -0.2042
14971TIP3   OH266403   6.428   4.838  12.348  0.3023 -0.0022  0.8549
14971TIP3    H166404   6.465   4.774  12.409  1.9131  0.5085  0.4397
14971TIP3    H266405   6.426   4.920  12.398  0.4467  0.1361  0.6346
14972TIP3   OH266406   0.882   5.521   0.487  0.6195  0.3479 -0.0430
14972TIP3    H166407   0.873   5.437   0.442 -0.7580  0.0265  0.8069
14972TIP3    H266408   0.972   5.521   0.520  1.1256 -0.1052 -1.4064
14973TIP3   OH266409   2.647   6.799   2.100 -0.7593 -0.3567  0.2374
14973TIP3    H166410   2.725   6.850   2.079 -0.3831 -2.2626 -3.5507
14973TIP3    H266411   2.574   6.853   2.070 -0.9529  1.2090  3.3269
14974TIP3   OH266412   4.032   1.004  10.847 -0.4447  0.5214 -0.4837
14974TIP3    H166413   4.046   1.010  10.752 -0.8488  2.3574 -0.4340
14974TIP3    H266414   4.023   1.094  10.876  0.8946  0.0436  1.5101
14975TIP3   OH266415   2.234   4.969   2.724 -0.1390 -0.1969  0.0724
14975TIP3    H166416   2.325   4.970   2.754 -0.1661 -0.4097  0.1614
14975TIP3    H266417   2.231   5.035   2.654  0.1341 -0.3486 -0.0826
14976TIP3   OH266418   4.502   4.370   3.801 -0.0337 -0.5430 -0.0141
14976TIP3    H166419   4.537   4.293   3.757  0.3881  0.2552 -1.0771
14976TIP3    H266420   4.407   4.358   3.798  0.0367 -1.0970 -0.0385
14977TIP3   OH266421   5.067   6.244  15.997 -1.0079 -0.0386  0.0715
14977TIP3    H166422   5.034   6.156  16.016 -0.3076 -0.2484  0.3217
14977TIP3    H266423   5.162   6.237  16.004 -0.9376  0.7140 -0.0166
14978TIP3   OH266424   2.824   1.445   5.055  0.2943  0.1739  0.1696
14978TIP3    H166425   2.784   1.521   5.097 -1.1874 -0.3777 -0.1950
14978TIP3    H266426   2.845   1.474   4.966 -0.1972  0.2029  0.0566
14979TIP3   OH266427   1.934   4.677   2.954  0.4142  0.1966 -0.1377
14979TIP3    H166428   2.017   4.631   2.967  0.5361  0.0928 -1.2980
14979TIP3    H266429   1.957   4.757   2.908 -0.0217  0.5912  0.3236
14980TIP3   OH266430   3.633   4.474  15.954  0.4235 -0.0520 -0.0155
14980TIP3    H166431   3.616   4.527  15.876  1.2576  2.3671  1.3952
14980TIP3    H266432   3.717   4.506  15.987  1.2296 -2.6548  0.5805
14981TIP3   OH266433   2.607   2.876  15.518  0.3498 -0.0462  0.4987
14981TIP3    H166434   2.646   2.893  15.432  0.2639  1.0167  0.6624
14981TIP3    H266435   2.514   2.861  15.500  0.5296 -0.9101  0.2882
14982TIP3   OH266436   2.906   2.369  12.337 -0.4797  0.6432 -0.2533
14982TIP3    H166437   2.974   2.391  12.272  0.6315 -0.9454  0.3363
14982TIP3    H266438   2.872   2.284  12.308 -0.8131  0.4897  0.5798
14983TIP3   OH266439   3.947   5.321   1.818  0.9842 -0.4612  0.5698
14983TIP3    H166440   3.990   5.266   1.883 -0.6514  0.9634  2.9515
14983TIP3    H266441   3.983   5.408   1.833  0.2037 -0.0154 -0.0733
14984TIP3   OH266442   2.698   1.291   6.552  0.7479 -0.7199  0.4096
14984TIP3    H166443   2.748   1.278   6.472  1.0484 -0.4467  0.5511
14984TIP3    H266444   2.738   1.367   6.594 -0.5145  0.2103 -0.0434
14985TIP3   OH266445   0.360   2.964   2.559  0.4181  0.2156  0.0617
14985TIP3    H166446   0.423   3.036   2.557  0.8002 -0.0768  1.4312
14985TIP3    H266447   0.391   2.904   2.491  1.6489  0.0566  0.7525
14986TIP3   OH266448   0.309   6.560  12.078 -0.5409 -0.4649 -0.4341
14986TIP3    H166449   0.375   6.523  12.137  0.3138  0.7992 -0.5889
14986TIP3    H266450   0.329   6.521  11.993  0.2295  0.1859 -0.5543
14987TIP3   OH266451   4.210   4.870   5.392 -0.2343 -0.4698  0.0869
14987TIP3    H166452   4.260   4.943   5.356  0.8869 -2.0306 -1.6466
14987TIP3    H266453   4.130   4.867   5.339  1.0952 -2.3227 -1.9438
14988TIP3   OH266454   1.224   1.060   3.444 -0.1809  0.1957 -0.1536
14988TIP3    H166455   1.147   1.068   3.387 -1.2319  0.3470  1.2764
14988TIP3    H266456   1.289   1.014   3.390 -0.3038  2.4130 -2.3165
14989TIP3   OH266457   4.318   4.732  13.509  0.2144  0.0263 -0.2529
14989TIP3    H166458   4.316   4.638  13.487  0.0676  0.1011 -0.5727
14989TIP3    H266459   4.239   4.767  13.469 -0.5729 -0.0060  1.2506
14990TIP3   OH266460   1.581   1.243  15.024 -0.6575  0.1120  0.4854
14990TIP3    H166461   1.541   1.205  15.102 -2.3796 -0.8581 -0.8336
14990TIP3    H266462   1.579   1.173  14.959 -0.2710  1.2450 -0.7717
14991TIP3   OH266463   3.640   2.645  12.521 -0.0605  0.1729 -0.1382
14991TIP3    H166464   3.704   2.610  12.459  0.2154 -0.1977  0.3574
14991TIP3    H266465   3.684   2.719  12.563  0.6010 -1.0062  1.2908
14992TIP3   OH266466   4.990   4.468   4.962 -0.4079 -0.5979  0.3170
14992TIP3    H166467   4.997   4.387   4.911  2.7959  0.2562 -0.7504
14992TIP3    H266468   4.988   4.538   4.896 -0.2453  0.3304  1.2836
14993TIP3   OH266469   6.591   1.757   2.539  0.1871 -0.6540  0.7259
14993TIP3    H166470   6.563   1.727   2.452  0.8004  1.6371 -0.3082
14993TIP3    H266471   6.677   1.715   2.552  1.6938  1.6706 -1.3116
14994TIP3   OH266472   4.637   0.983   1.547  0.4575  0.5125  0.3375
14994TIP3    H166473   4.637   1.060   1.604  0.2172  0.4099  0.4761
14994TIP3    H266474   4.610   1.018   1.461  1.2536  0.7432  0.1777
14995TIP3   OH266475   2.642   5.503   3.096 -0.6999 -0.3625  0.3466
14995TIP3    H166476   2.547   5.500   3.106 -0.6693 -0.8203  0.5100
14995TIP3    H266477   2.673   5.422   3.136 -0.0898  0.6618  1.9722
14996TIP3   OH266478   5.630   6.535  13.977  0.2391  0.0484 -0.1741
14996TIP3    H166479   5.566   6.570  14.039 -1.4739 -0.6125 -1.5313
14996TIP3    H266480   5.697   6.603  13.971 -0.5771  0.9588  0.9222
14997TIP3   OH266481   3.470   0.008  15.753 -0.2543 -0.4420  0.1843
14997TIP3    H166482   3.410   0.068  15.709  0.3952  0.0254 -0.0869
14997TIP3    H266483   3.416  -0.041  15.815 -0.9008 -0.0117 -0.0410
14998TIP3   OH266484   0.778   4.834   1.233 -0.8366  0.1429  0.3775
14998TIP3    H166485   0.728   4.901   1.185  0.6620  0.7657 -0.3662
14998TIP3    H266486   0.760   4.852   1.325 -1.1565  1.0261  0.1528
14999TIP3   OH266487   0.041   6.703   4.061  0.2812 -0.1270 -0.3954
14999TIP3    H166488  -0.047   6.668   4.063  0.1326  0.2722  0.1641
14999TIP3    H266489   0.031   6.793   4.028  0.3049  0.3911  0.9549
15000TIP3   OH266490   5.078   1.656  13.496  0.1348  0.5491 -0.7054
15000TIP3    H166491   5.173   1.665  13.482  0.0205  0.0301 -1.8553
15000TIP3    H266492   5.060   1.563  13.483 -0.2381  0.3024  1.4699
15001TIP3   OH266493   0.992   2.218   4.989 -0.1681  0.1477 -0.0621
15001TIP3    H166494   1.023   2.128   5.000 -0.5204  0.0537  0.1734
15001TIP3    H266495   1.046   2.254   4.919 -0.6207 -0.5295 -0.7573
15002TIP3   OH266496   0.658   1.276  17.218  0.3249  0.4298 -0.2169
15002TIP3    H166497   0.750   1.301  17.226  0.3709  0.0423  0.4784
15002TIP3    H266498   0.618   1.306  17.299 -0.1966  0.7286 -0.5801
15003TIP3   OH266499   0.741   6.409   1.400  0.2320  0.4666  0.0189
15003TIP3    H166500   0.770   6.328   1.357 -1.0558  0.3792 -0.7125
15003TIP3    H266501   0.777   6.403   1.489  0.0293 -0.9848  0.0166
15004TIP3   OH266502   0.000   6.423   3.436 -0.1951 -0.0184  0.1657
15004TIP3    H166503   0.036   6.380   3.514  1.5532 -0.6371 -0.9597
15004TIP3    H266504  -0.088   6.450   3.462  1.1699  1.8322  3.1116
15005TIP3   OH266505   2.387   2.315  13.488 -0.3880 -0.5535  0.3117
15005TIP3    H166506   2.369   2.244  13.426  1.8375 -0.6629 -0.2281
15005TIP3    H266507   2.387   2.271  13.574 -1.8342 -0.6811  0.2691
15006TIP3   OH266508   0.613   3.801  15.186 -0.1679 -0.1769  0.2250
15006TIP3    H166509   0.562   3.853  15.248 -3.6548 -2.1133 -0.8974
15006TIP3    H266510   0.621   3.856  15.109 -1.1436 -0.0828  0.1807
15007TIP3   OH266511   2.734   0.197   3.457  0.3488 -0.8497  0.3920
15007TIP3    H166512   2.806   0.251   3.424 -0.1966 -0.8870 -0.8930
15007TIP3    H266513   2.776   0.133   3.514  1.9335 -3.5324 -3.5351
15008TIP3   OH266514   1.366   1.428  15.229 -0.1371  0.2684  0.8730
15008TIP3    H166515   1.285   1.384  15.255 -0.9254  1.4615  0.5107
15008TIP3    H266516   1.435   1.385  15.280 -0.9114 -1.1992  0.6961
15009TIP3   OH266517   2.408   6.797   4.251  0.0988 -0.2187  0.0841
15009TIP3    H166518   2.412   6.701   4.247  0.4526 -0.2009 -0.0539
15009TIP3    H266519   2.318   6.818   4.228  0.2697 -0.4738 -0.8525
15010TIP3   OH266520   6.150   2.021  13.788 -0.5092  0.3811 -0.7076
15010TIP3    H166521   6.220   2.075  13.750  0.0213 -0.4726 -0.9446
15010TIP3    H266522   6.169   1.932  13.758 -0.4737 -0.1995  0.9778
15011TIP3   OH266523   5.088   1.969  15.663  0.5525  0.4946  0.1619
15011TIP3    H166524   5.154   1.906  15.691  0.0629 -0.2744 -0.4076
15011TIP3    H266525   5.007   1.918  15.656 -0.4879  1.7263  2.3959
15012TIP3   OH266526   2.164   1.463  17.169 -0.0159  0.1920  0.5868
15012TIP3    H166527   2.102   1.443  17.099  1.1500  0.3674 -0.5283
15012TIP3    H266528   2.215   1.537  17.135  0.6980  0.1518  1.5489
15013TIP3   OH266529   0.864   5.044   4.587  0.1901  0.2287 -0.2312
15013TIP3    H166530   0.918   5.106   4.637  0.1991  0.0781 -0.0550
15013TIP3    H266531   0.798   5.100   4.545 -0.6070  0.2270  0.9753
15014TIP3   OH266532   4.828   4.395   2.736 -0.0580  1.3924 -0.4490
15014TIP3    H166533   4.739   4.368   2.713 -0.6498  2.7028  0.2111
15014TIP3    H266534   4.853   4.455   2.665  0.0651  1.4907 -0.3206
15015TIP3   OH266535   5.424   4.809   2.439 -0.3922 -0.4023 -0.3803
15015TIP3    H166536   5.475   4.889   2.432  0.4422 -0.7884  1.1605
15015TIP3    H266537   5.363   4.824   2.511 -0.9643 -0.7580 -0.7802
15016TIP3   OH266538   2.436   4.539  12.950 -0.4299 -0.2806  0.5358
15016TIP3    H166539   2.374   4.471  12.974 -0.5274  0.2893  1.9646
15016TIP3    H266540   2.432   4.602  13.023  1.1796  0.1891  0.2410
15017TIP3   OH266541   3.103   1.300  12.446 -0.5210  0.2063 -0.2369
15017TIP3    H166542   3.141   1.270  12.529  0.7598  1.4599 -0.3531
15017TIP3    H266543   3.178   1.333  12.396 -0.9930 -2.3177 -2.7003
15018TIP3   OH266544   5.618   6.105  14.584  0.1196 -0.4607 -0.5011
15018TIP3    H166545   5.679   6.053  14.531 -0.8758 -0.4659 -1.6548
15018TIP3    H266546   5.596   6.048  14.658 -2.2575 -2.3818 -2.6049
15019TIP3   OH266547   0.105   6.112   1.333  0.7976  0.5577  0.0589
15019TIP3    H166548   0.110   6.146   1.422  1.4023 -2.0767  1.1047
15019TIP3    H266549   0.188   6.066   1.320 -0.6695 -2.0652 -0.5520
15020TIP3   OH266550   1.666   4.487   3.821 -0.0433 -0.1068  0.0640
15020TIP3    H166551   1.590   4.459   3.872  0.0092  2.2481  1.5095
15020TIP3    H266552   1.635   4.564   3.772  0.9845 -0.0350 -0.4880
15021TIP3   OH266553   1.393   1.057   6.467 -0.3549  0.5358  0.2979
15021TIP3    H166554   1.310   1.019   6.437 -0.4977  0.7907  0.3578
15021TIP3    H266555   1.432   1.094   6.387 -1.2453  2.1562  0.5895
15022TIP3   OH266556   5.958   1.354  16.864 -0.3099  0.2694 -0.2106
15022TIP3    H166557   5.875   1.308  16.854 -0.5973  0.6461  0.3848
15022TIP3    H266558   5.934   1.436  16.909  0.4307  0.2271  0.2582
15023TIP3   OH266559   3.700   1.185  12.197 -0.6534  0.4373  0.2127
15023TIP3    H166560   3.664   1.267  12.163  0.4488  1.4837  1.5084
15023TIP3    H266561   3.691   1.193  12.292 -0.1182 -0.7473  0.3688
15024TIP3   OH266562   5.475   4.039   4.555  0.0825 -0.0039  0.7810
15024TIP3    H166563   5.485   4.040   4.650 -4.8978 -2.5059  1.4694
15024TIP3    H266564   5.488   3.948   4.530  0.4587  0.4826 -0.8457
15025TIP3   OH266565   5.429   4.616   1.789 -0.1850  0.2455  0.1750
15025TIP3    H166566   5.370   4.692   1.795 -0.2040  0.2456 -0.0261
15025TIP3    H266567   5.468   4.622   1.702 -0.2569 -0.0283  0.1235
15026TIP3   OH266568   2.884   5.734  13.545 -0.2771  0.4880 -0.4454
15026TIP3    H166569   2.963   5.703  13.589  0.6821  0.9338 -1.8198
15026TIP3    H266570   2.882   5.828  13.562 -0.6609  0.4337 -0.1856
15027TIP3   OH266571   0.524   1.521   3.127  0.4830  0.0427 -0.0537
15027TIP3    H166572   0.431   1.518   3.104  0.3595  2.2760  0.0563
15027TIP3    H266573   0.569   1.483   3.051 -0.4228  0.0971 -0.6242
15028TIP3   OH266574   6.779   4.623   0.104  0.4173  0.6467  0.0201
15028TIP3    H166575   6.702   4.680   0.108  1.0191  1.4013  1.4791
15028TIP3    H266576   6.818   4.642   0.019 -0.9952  0.2550 -0.7349
15029TIP3   OH266577   1.403   1.437  13.223  0.1003  0.2596 -0.3982
15029TIP3    H166578   1.351   1.501  13.175 -0.7951 -0.0672  0.1218
15029TIP3    H266579   1.351   1.356  13.218  0.8463 -0.2233 -0.3885
15030TIP3   OH266580   5.158   5.052   4.789 -0.4726 -0.2217  0.6873
15030TIP3    H166581   5.218   5.111   4.833  0.5016 -1.4306  1.0232
15030TIP3    H266582   5.133   4.989   4.858 -0.6507 -0.8246  0.0760
15031TIP3   OH266583   3.333   5.730   1.721  0.1409 -0.5079 -0.1925
15031TIP3    H166584   3.298   5.759   1.805  0.3638 -0.9301  0.0509
15031TIP3    H266585   3.388   5.802   1.691  0.4627 -0.5603  0.2691
15032TIP3   OH266586   4.377   5.412   4.964  0.0412  0.0646 -0.3861
15032TIP3    H166587   4.366   5.370   5.049  0.6579 -2.7158 -1.6122
15032TIP3    H266588   4.289   5.440   4.939 -0.0673  1.3336  1.3551
15033TIP3   OH266589   2.408   2.938  12.922 -0.0796 -0.4025  0.0224
15033TIP3    H166590   2.428   3.002  12.854 -0.2022 -0.5279 -0.1309
15033TIP3    H266591   2.341   2.981  12.976 -0.0127 -0.3204  0.0402
15034TIP3   OH266592   4.212   0.196   1.045 -0.6695  0.1842  0.2979
15034TIP3    H166593   4.236   0.286   1.065  0.9473 -0.5280  1.6705
15034TIP3    H266594   4.134   0.203   0.991 -0.4682  2.4093  0.2791
15035TIP3   OH266595   4.201   6.536  14.178  0.2086 -0.4422  0.0972
15035TIP3    H166596   4.127   6.535  14.238  0.5027  1.9311  0.5569
15035TIP3    H266597   4.275   6.505  14.231  0.1911  0.3337  0.5867
15036TIP3   OH266598   5.359   6.570   3.245 -0.2069 -0.0357 -0.5185
15036TIP3    H166599   5.427   6.605   3.188  0.9834 -2.8549 -0.9076
15036TIP3    H266600   5.279   6.617   3.219  1.5893  3.5795  0.2097
15037TIP3   OH266601   0.831   1.636  14.943 -0.1265  0.0209 -0.2531
15037TIP3    H166602   0.766   1.707  14.937  0.8328  0.8107 -1.5433
15037TIP3    H266603   0.834   1.598  14.855 -1.6933 -2.6218  0.7717
15038TIP3   OH266604   4.449   2.772   2.585  0.1328 -0.4229 -0.3176
15038TIP3    H166605   4.474   2.857   2.623  0.9944  0.6086 -3.0872
15038TIP3    H266606   4.529   2.720   2.589  0.3880 -0.1031 -1.2846
15039TIP3   OH266607   3.741   3.866   3.552  0.4065 -0.5729  0.3981
15039TIP3    H166608   3.713   3.775   3.542 -1.4029  0.0852 -0.7762
15039TIP3    H266609   3.680   3.916   3.498  0.8120  1.4341  1.7368
15040TIP3   OH266610   0.269   4.227  13.078 -0.2858 -0.6593 -0.0505
15040TIP3    H166611   0.353   4.210  13.035 -0.1875  0.1540 -0.1827
15040TIP3    H266612   0.204   4.218  13.009 -0.1178  0.7591 -0.4109
15041TIP3   OH266613   4.327   5.165   2.967 -0.0940  0.0191  0.0794
15041TIP3    H166614   4.381   5.124   3.034 -0.5763 -0.8032 -0.0262
15041TIP3    H266615   4.388   5.185   2.896  0.2892  0.2278  0.4642
15042TIP3   OH266616   3.854   3.489   3.637  0.5468  0.1912  0.1842
15042TIP3    H166617   3.791   3.532   3.579  0.9558 -1.0158 -1.2090
15042TIP3    H266618   3.900   3.560   3.681 -1.9200  1.0948  1.3900
15043TIP3   OH266619   5.786   0.298  11.544  0.3645 -0.5195  0.5599
15043TIP3    H166620   5.760   0.383  11.580  0.2098 -0.7611  1.0200
15043TIP3    H266621   5.757   0.301  11.453  0.3585 -0.0795  0.5745
15044TIP3   OH266622   3.038   4.185   2.900 -0.0034  0.0014 -0.3425
15044TIP3    H166623   3.007   4.229   2.821 -1.7501  0.1301  0.3836
15044TIP3    H266624   3.130   4.167   2.883 -0.3647 -0.0056 -2.4136
15045TIP3   OH266625   0.892   3.383   3.747 -0.3238  0.2418  0.3431
15045TIP3    H166626   0.927   3.467   3.775 -0.0942  0.4145 -0.4603
15045TIP3    H266627   0.817   3.368   3.805 -2.1207  2.3397 -1.3593
15046TIP3   OH266628   2.144   5.963   6.077 -0.0818 -0.6522  0.1627
15046TIP3    H166629   2.200   5.992   6.150  0.1179  2.4576 -1.1643
15046TIP3    H266630   2.206   5.930   6.012 -0.0555 -0.7276  0.2256
15047TIP3   OH266631   0.701   4.669   2.368  0.3183  0.0718 -0.3816
15047TIP3    H166632   0.643   4.724   2.315  1.0608  0.4696 -0.7926
15047TIP3    H266633   0.672   4.683   2.458  0.2032  0.7861 -0.5244
15048TIP3   OH266634   3.900   2.488  13.228  0.3756 -0.5784 -0.0695
15048TIP3    H166635   3.856   2.568  13.198  0.8432 -0.2244  0.1854
15048TIP3    H266636   3.872   2.421  13.165 -0.5225 -0.3609  0.0852
15049TIP3   OH266637   3.576   6.645  13.578  0.2095  0.2907 -0.1655
15049TIP3    H166638   3.487   6.666  13.606 -0.3418 -0.3488 -1.3929
15049TIP3    H266639   3.566   6.568  13.522  1.1352  2.1513 -2.9894
15050TIP3   OH266640   5.303   4.552  11.605  0.0511  0.0892 -0.2195
15050TIP3    H166641   5.226   4.577  11.552 -0.2912 -1.2987 -0.3981
15050TIP3    H266642   5.266   4.500  11.677  0.9409 -1.7933 -1.0923
15051TIP3   OH266643   3.993   6.236   0.496  0.3116  0.1165  0.3316
15051TIP3    H166644   4.054   6.257   0.425  0.1832 -2.9354 -0.7886
15051TIP3    H266645   3.923   6.301   0.487 -0.0482 -0.6120 -2.8383
15052TIP3   OH266646   6.166   2.883   0.904  0.2227  0.3294  0.6235
15052TIP3    H166647   6.149   2.873   0.810 -1.5963  0.7963  0.8762
15052TIP3    H266648   6.092   2.936   0.936 -0.4985 -1.8645  2.7618
15053TIP3   OH266649   1.579   6.056   4.571 -0.2882  0.3389  0.0678
15053TIP3    H166650   1.614   6.000   4.501  2.1932  1.1714  0.5677
15053TIP3    H266651   1.599   6.145   4.543 -0.5799  0.7607  1.1517
15054TIP3   OH266652   6.030   4.505  11.169 -0.8174 -0.2229 -0.8981
15054TIP3    H166653   6.023   4.456  11.251 -1.6956  0.5347 -0.5091
15054TIP3    H266654   6.003   4.442  11.102  0.2686 -0.9596 -0.6521
15055TIP3   OH266655   1.863   0.343   0.870 -0.1551 -0.7421  0.4170
15055TIP3    H166656   1.800   0.373   0.804 -0.2939 -1.7270  0.0833
15055TIP3    H266657   1.944   0.387   0.848 -0.4357 -0.3629  0.1362
15056TIP3   OH266658   6.184   2.634  15.865  0.0468 -0.2189  0.5086
15056TIP3    H166659   6.101   2.605  15.903 -0.6531 -0.1682 -0.9266
15056TIP3    H266660   6.158   2.691  15.793  1.3604  0.9754  0.9540
15057TIP3   OH266661   4.866   3.144   1.117 -0.1396 -0.1791 -0.5734
15057TIP3    H166662   4.817   3.067   1.089 -3.7447  2.1403 -0.9705
15057TIP3    H266663   4.872   3.135   1.212 -0.8534 -0.8063 -0.5817
15058TIP3   OH266664   2.091   1.445  14.604  0.1590 -0.9219  0.2012
15058TIP3    H166665   2.115   1.520  14.550  0.3502 -1.9374 -1.1456
15058TIP3    H266666   1.996   1.436  14.592  0.1845 -1.0791  0.1051
15059TIP3   OH266667   3.194   1.701  12.683 -0.8244  0.2794  0.9109
15059TIP3    H166668   3.228   1.616  12.656  2.2193  1.6377  0.1790
15059TIP3    H266669   3.110   1.709  12.639  0.7982 -0.5642 -2.4734
15060TIP3   OH266670   4.692   6.281   5.552  0.3558 -0.6787 -0.0914
15060TIP3    H166671   4.776   6.308   5.591 -0.6765  2.2796  0.2478
15060TIP3    H266672   4.709   6.281   5.457  0.0631  2.6708 -0.2024
15061TIP3   OH266673   6.793   2.391   1.527 -0.1728 -0.3620  0.1697
15061TIP3    H166674   6.871   2.442   1.503 -0.7409  0.4616  0.0468
15061TIP3    H266675   6.815   2.301   1.503  0.7390 -0.1374  0.1252
15062TIP3   OH266676   4.253   3.229  12.636 -0.1665 -0.3175  0.1120
15062TIP3    H166677   4.211   3.256  12.718  0.6952 -0.3211  0.5658
15062TIP3    H266678   4.301   3.307  12.608  0.4874 -0.6758  0.2297
15063TIP3   OH266679   1.257   0.550  17.032 -0.2321 -0.4301  0.1920
15063TIP3    H166680   1.341   0.518  17.065  0.2733 -1.5252 -2.0348
15063TIP3    H266681   1.270   0.643  17.017  0.2899 -0.4140  0.7544
15064TIP3   OH266682   4.039   0.310   0.306  0.7028  0.1900  0.2427
15064TIP3    H166683   4.073   0.398   0.293 -1.7838  1.2259  0.6110
15064TIP3    H266684   3.991   0.291   0.226  1.4348 -0.9452  0.0608
15065TIP3   OH266685   6.637   3.085   1.120 -0.2546  0.2063 -0.5133
15065TIP3    H166686   6.623   3.111   1.211  3.0051 -1.5424  0.5882
15065TIP3    H266687   6.579   3.011   1.107 -1.1696  0.8346 -0.0382
15066TIP3   OH266688   5.687   0.926   0.969 -0.5764 -0.2732  0.3157
15066TIP3    H166689   5.668   0.844   1.014 -1.5523 -0.3793 -0.2608
15066TIP3    H266690   5.739   0.899   0.893 -1.5300 -0.4685 -0.2889
15067TIP3   OH266691   6.505   1.840  15.884 -0.4449 -0.0729 -0.2612
15067TIP3    H166692   6.560   1.761  15.887 -2.2007 -1.3627 -1.4397
15067TIP3    H266693   6.485   1.858  15.976  0.1704 -0.8478  0.0310
15068TIP3   OH266694   4.075   5.397   1.218 -0.1202 -0.1957  0.1743
15068TIP3    H166695   4.084   5.476   1.164  0.5836 -0.3944 -0.0064
15068TIP3    H266696   3.991   5.360   1.191 -0.1866  0.1828 -0.1544
15069TIP3   OH266697   5.127   4.616   4.086 -0.0446  0.3343  0.0169
15069TIP3    H166698   5.140   4.699   4.040  1.3914  0.7772  1.2020
15069TIP3    H266699   5.183   4.554   4.040  0.8345  0.6125  0.6988
15070TIP3   OH266700   4.362   2.633   3.174  0.5308  0.5899 -0.0882
15070TIP3    H166701   4.306   2.636   3.252  0.3341  0.5255 -0.2275
15070TIP3    H266702   4.440   2.586   3.203 -0.1447 -0.6782 -0.3171
15071TIP3   OH266703   1.885   3.832  16.810  0.3792  0.1840  0.3794
15071TIP3    H166704   1.887   3.750  16.859 -1.7252  0.5795  1.1803
15071TIP3    H266705   1.823   3.816  16.739  1.6743  0.3652 -0.8125
15072TIP3   OH266706   5.778   0.769  11.599 -0.2765 -0.4083 -0.1928
15072TIP3    H166707   5.745   0.806  11.517 -1.0133  1.7891  1.0394
15072TIP3    H266708   5.762   0.675  11.591 -0.6692 -0.1831 -2.4062
15073TIP3   OH266709   2.940   6.738   4.111 -0.1520 -0.3919 -0.1707
15073TIP3    H166710   2.849   6.710   4.117 -1.1518  2.8396  0.9263
15073TIP3    H266711   2.981   6.705   4.191 -1.0167  0.3065  0.5693
15074TIP3   OH266712   2.314   2.031  16.733 -0.9096 -0.4152 -0.1609
15074TIP3    H166713   2.301   2.085  16.812 -0.7469  0.3117 -0.6292
15074TIP3    H266714   2.249   2.064  16.671 -0.4552 -0.4087 -0.6334
15075TIP3   OH266715   3.699   0.456   1.707 -0.1334 -0.4780  0.4644
15075TIP3    H166716   3.609   0.459   1.674 -0.1762 -2.5890  0.3404
15075TIP3    H266717   3.740   0.384   1.659  1.7120  0.6250  0.3451
15076TIP3   OH266718   6.681   4.746   6.203  0.0030  0.4050 -0.4057
15076TIP3    H166719   6.620   4.773   6.271  1.7133  0.4831  1.1313
15076TIP3    H266720   6.648   4.660   6.175 -1.3170  0.8422 -0.2572
15077TIP3   OH266721   1.073   0.528   4.521  0.2842 -0.5012 -0.3680
15077TIP3    H166722   1.119   0.489   4.446 -0.1968 -0.2172 -0.8182
15077TIP3    H266723   1.054   0.617   4.493  0.3306 -0.3173  0.1957
15078TIP3   OH266724   2.853   5.429   5.110  0.3972  0.9172  0.1823
15078TIP3    H166725   2.916   5.357   5.113 -1.7786 -1.0877  0.2408
15078TIP3    H266726   2.860   5.471   5.196  0.9617  0.0665  0.5630
15079TIP3   OH266727   6.261   0.203  12.153 -0.4173  0.4055 -0.3966
15079TIP3    H166728   6.280   0.297  12.156 -1.4462  0.6087 -0.1569
15079TIP3    H266729   6.172   0.195  12.187  0.2856 -0.8382  1.1783
15080TIP3   OH266730   4.457   5.493   4.437  0.5969  0.1476 -0.4115
15080TIP3    H166731   4.385   5.441   4.475  0.6403  0.1373 -0.3421
15080TIP3    H266732   4.414   5.556   4.380  0.5166  0.2910 -0.1949
15081TIP3   OH266733   0.137   4.692   6.320  0.3469  0.7212  0.2283
15081TIP3    H166734   0.168   4.622   6.262  0.9822  0.7974  0.4734
15081TIP3    H266735   0.046   4.705   6.295  0.0565 -0.5799  0.5570
15082TIP3   OH266736   2.472   6.683   2.445 -0.1315  0.6021 -0.2493
15082TIP3    H166737   2.453   6.734   2.524  0.1917  0.8319 -0.3177
15082TIP3    H266738   2.390   6.684   2.396 -0.8520 -0.9968  0.8904
15083TIP3   OH266739   5.200   6.773  17.152 -0.1665 -0.0131 -0.2189
15083TIP3    H166740   5.162   6.861  17.159  2.7263  1.4965 -2.2695
15083TIP3    H266741   5.179   6.745  17.063  0.2884 -0.7281 -0.1081
15084TIP3   OH266742   0.924   1.722  15.797  0.5339  0.3396  0.5247
15084TIP3    H166743   1.019   1.709  15.797  0.5632  0.5484  0.5244
15084TIP3    H266744   0.912   1.808  15.757  0.4992  1.4255  2.7791
15085TIP3   OH266745   4.619   0.486  10.203 -0.1837 -0.3918  0.2172
15085TIP3    H166746   4.591   0.531  10.282 -5.0914 -2.7611  0.0522
15085TIP3    H266747   4.559   0.516  10.135  0.9731 -1.8374 -1.5140
15086TIP3   OH266748   6.645   4.993  14.883 -0.0872  0.0312 -0.0979
15086TIP3    H166749   6.621   4.933  14.954 -0.4554  0.2243 -0.0615
15086TIP3    H266750   6.597   4.959  14.807 -0.9430  0.7529  0.1059
15087TIP3   OH266751   3.598   6.617  16.964  0.0534 -0.2834  1.0758
15087TIP3    H166752   3.618   6.643  17.054  0.6377  1.5931  0.4308
15087TIP3    H266753   3.683   6.601  16.924 -0.2282 -1.5219  0.9573
15088TIP3   OH266754   6.220   1.585   6.234  0.0062  0.0324 -0.8045
15088TIP3    H166755   6.314   1.584   6.252  0.2097 -0.4064 -1.8711
15088TIP3    H266756   6.179   1.582   6.321  0.9672 -0.7414 -0.3682
15089TIP3   OH266757   1.835   6.219   4.615 -0.1411  0.0995 -0.0656
15089TIP3    H166758   1.768   6.252   4.556 -0.6103  0.9147  0.9085
15089TIP3    H266759   1.788   6.204   4.698  0.9870  1.2143  0.7900
15090TIP3   OH266760   0.786   1.871   6.069  0.2177 -0.1249  0.1136
15090TIP3    H166761   0.806   1.964   6.061 -0.9924  0.0111 -1.6479
15090TIP3    H266762   0.818   1.832   5.987  1.2393 -1.3796  1.0677
15091TIP3   OH266763   2.115   0.111   3.629  0.4987 -0.7467 -0.3217
15091TIP3    H166764   2.117   0.188   3.572 -0.6802 -0.8451 -0.4989
15091TIP3    H266765   2.023   0.085   3.632  0.7658 -1.6412  0.4264
15092TIP3   OH266766   4.614   3.612  11.937  0.2079 -0.5020  0.5924
15092TIP3    H166767   4.590   3.551  11.867 -0.2084  1.0921 -0.6612
15092TIP3    H266768   4.619   3.557  12.015  1.3969 -2.4442 -0.7974
15093TIP3   OH266769   4.410   0.206  12.055  0.3522 -0.3297 -0.7614
15093TIP3    H166770   4.361   0.267  12.110  0.6817 -1.0072  0.2991
15093TIP3    H266771   4.346   0.172  11.993 -0.2444 -0.2643 -0.1825
15094TIP3   OH266772   3.794   1.386   3.540  0.3812  0.6826  0.2533
15094TIP3    H166773   3.827   1.323   3.476 -0.0007  1.8437 -1.1071
15094TIP3    H266774   3.836   1.361   3.623  0.6721 -0.9900 -0.3825
15095TIP3   OH266775   0.480   5.562  15.181  0.0293 -0.4651  0.0210
15095TIP3    H166776   0.448   5.652  15.186 -0.3284 -0.6427  1.1508
15095TIP3    H266777   0.545   5.563  15.111 -1.0959  0.3286 -1.0299
15096TIP3   OH266778   1.710   5.925   3.077 -0.1656  0.0552 -0.2028
15096TIP3    H166779   1.748   6.004   3.114 -1.2186  0.6178 -0.2782
15096TIP3    H266780   1.672   5.879   3.152 -1.4738  0.7282 -0.4307
15097TIP3   OH266781   5.711   2.473   5.354 -0.0986  0.5469  0.3504
15097TIP3    H166782   5.774   2.414   5.396 -1.5175 -1.6663 -0.5259
15097TIP3    H266783   5.765   2.537   5.307  1.4833 -0.1378  1.2019
15098TIP3   OH266784   2.021   1.748  12.255  0.0537  0.5180 -0.6784
15098TIP3    H166785   2.045   1.707  12.338 -2.4009 -1.0689 -0.6791
15098TIP3    H266786   2.104   1.768  12.213  1.3384 -0.7234  1.1909
15099TIP3   OH266787   6.755   1.655   6.269  0.0131 -0.4083  0.1571
15099TIP3    H166788   6.739   1.590   6.338  0.8253 -0.1566  0.5931
15099TIP3    H266789   6.777   1.603   6.192  0.1541 -0.6708  0.3739
15100TIP3   OH266790   6.111   1.740   4.411 -0.0168 -0.0737  0.0918
15100TIP3    H166791   6.150   1.805   4.353  0.2187 -1.1129 -0.9223
15100TIP3    H266792   6.182   1.716   4.471 -0.3266  1.1678  0.9758
15101TIP3   OH266793   2.459   2.929  13.605  0.1331 -0.1115 -0.3935
15101TIP3    H166794   2.439   2.972  13.688  0.6094  1.5190 -1.1146
15101TIP3    H266795   2.444   2.836  13.623  1.8279  0.0340  2.0067
15102TIP3   OH266796   5.787   1.840   2.160 -0.0841 -0.1842 -0.3735
15102TIP3    H166797   5.837   1.876   2.233 -1.0499  1.1978 -0.3747
15102TIP3    H266798   5.702   1.818   2.197 -1.0246  1.7276 -1.3292
15103TIP3   OH266799   2.189   6.596  13.131  0.0537 -0.4645  0.2911
15103TIP3    H166800   2.129   6.669  13.147  2.2159  1.8764 -1.8561
15103TIP3    H266801   2.178   6.576  13.038  0.4414 -2.0486  0.5732
15104TIP3   OH266802   6.591   4.794   0.229  0.0025 -0.5353  0.4611
15104TIP3    H166803   6.513   4.808   0.283 -0.4719 -1.4552  0.0315
15104TIP3    H266804   6.620   4.882   0.205 -0.8946 -0.1866  0.6346
15105TIP3   OH266805   3.398   3.379  15.627  0.3168  0.2878  0.9853
15105TIP3    H166806   3.359   3.464  15.652 -1.0989 -0.0221 -0.0834
15105TIP3    H266807   3.372   3.320  15.698  0.2085  0.4596  1.0922
15106TIP3   OH266808   3.005   6.042  14.351  0.2014 -0.0778 -0.0726
15106TIP3    H166809   2.918   6.048  14.310  0.2394 -1.3727 -0.3505
15106TIP3    H266810   2.989   6.062  14.443 -0.5289 -1.1186  0.0355
15107TIP3   OH266811   5.085   4.211  10.225 -0.9339 -0.1217 -0.7009
15107TIP3    H166812   5.040   4.155  10.162 -1.0326  2.4079 -2.9403
15107TIP3    H266813   5.165   4.163  10.247 -1.7488 -1.8336 -1.4003
15108TIP3   OH266814   3.288   4.047  16.576  0.4885  0.1467  0.1104
15108TIP3    H166815   3.375   4.042  16.536  1.4821  1.6977  2.0193
15108TIP3    H266816   3.275   4.140  16.594 -0.6058 -0.3315  1.8960
15109TIP3   OH266817   5.864   1.842   0.522 -0.1217 -0.4073  0.2908
15109TIP3    H166818   5.864   1.938   0.523  0.6896 -0.4034  0.0708
15109TIP3    H266819   5.880   1.817   0.613  0.0902 -0.3344  0.2730
15110TIP3   OH266820   2.555   0.126   0.419 -0.3666 -0.0188  0.1128
15110TIP3    H166821   2.600   0.102   0.500 -0.2148  0.7290  0.2499
15110TIP3    H266822   2.625   0.151   0.359 -0.4709 -0.6812 -0.2904
15111TIP3   OH266823   0.079   5.322  12.686  0.2850 -0.2731 -0.0321
15111TIP3    H166824   0.064   5.417  12.685 -0.4170 -0.3807 -2.2816
15111TIP3    H266825   0.141   5.309  12.758 -1.3628  1.5947  1.8380
15112TIP3   OH266826   0.729   4.372   4.393 -0.6901 -0.7160  0.2067
15112TIP3    H166827   0.683   4.304   4.442 -0.9207 -0.7659 -0.0755
15112TIP3    H266828   0.748   4.440   4.458 -1.7898 -0.3812  0.1769
15113TIP3   OH266829   1.663   1.497   1.440 -0.4142  0.1020  0.0089
15113TIP3    H166830   1.731   1.525   1.501 -0.8439 -1.2458  1.1448
15113TIP3    H266831   1.684   1.540   1.358 -0.0839  2.3369  1.2419
15114TIP3   OH266832   0.692   6.812  12.876  0.2657 -0.3940  0.7606
15114TIP3    H166833   0.761   6.783  12.816 -0.4620 -0.7513  0.0852
15114TIP3    H266834   0.610   6.794  12.829 -0.2444  1.6840  0.7947
15115TIP3   OH266835   0.162   0.346   4.924  0.1663  0.4418  0.2849
15115TIP3    H166836   0.245   0.311   4.957  0.5409  2.1781  1.2439
15115TIP3    H266837   0.127   0.276   4.868  2.0177 -0.5095  0.2741
15116TIP3   OH266838   0.330   0.906   4.203 -0.4510  0.2317 -0.4622
15116TIP3    H166839   0.335   0.813   4.181  0.3221  0.2067 -0.1860
15116TIP3    H266840   0.303   0.907   4.295 -0.1108  0.2694 -0.3609
15117TIP3   OH266841   0.682   1.120   6.100 -0.6378  0.3289  0.2018
15117TIP3    H166842   0.640   1.096   6.182 -0.0697 -1.2529  0.0464
15117TIP3    H266843   0.748   1.185   6.124  1.1443 -1.8340  1.3612
15118TIP3   OH266844   6.462   2.138  16.297 -0.5691  0.6417  0.0097
15118TIP3    H166845   6.445   2.186  16.216  0.0613 -0.5552 -0.8499
15118TIP3    H266846   6.555   2.118  16.294 -0.9387 -1.1818  0.0182
15119TIP3   OH266847   3.451   1.521  12.920  0.0343  0.0334 -0.0846
15119TIP3    H166848   3.546   1.529  12.910  0.1066  0.8409  1.0988
15119TIP3    H266849   3.418   1.610  12.907 -0.8873 -0.7711 -3.5986
15120TIP3   OH266850   3.790   4.404   5.686  0.3127  0.0055  0.2262
15120TIP3    H166851   3.826   4.402   5.597  0.8241  0.7852  0.4076
15120TIP3    H266852   3.770   4.313   5.706  0.9305 -0.2733 -0.3911
15121TIP3   OH266853   1.879   2.417   6.476  0.1589 -0.4106  0.2523
15121TIP3    H166854   1.796   2.463   6.461  0.7560  0.2965 -0.9522
15121TIP3    H266855   1.908   2.448   6.563 -0.2645  0.2400  0.1675
15122TIP3   OH266856   3.501   2.096   0.590  0.0796 -0.1133  0.0319
15122TIP3    H166857   3.564   2.111   0.520  0.8203 -1.4646  0.4087
15122TIP3    H266858   3.536   2.144   0.665  1.3373 -1.8911  0.6103
15123TIP3   OH266859   4.002   4.909   2.007  0.3649 -0.2058  0.9286
15123TIP3    H166860   3.984   4.890   1.915  0.8958 -0.6899  0.9222
15123TIP3    H266861   4.046   4.995   2.006  0.0516 -0.0454  0.7653
15124TIP3   OH266862   3.701   1.621  16.910 -0.3496  0.3376 -0.5806
15124TIP3    H166863   3.646   1.617  16.988  2.5972  1.4086  1.6805
15124TIP3    H266864   3.757   1.543  16.917  0.7921  1.1153 -0.9470
15125TIP3   OH266865   5.958   5.975  15.089  0.0983  0.6359  0.0071
15125TIP3    H166866   5.868   5.964  15.119  0.0880  0.3353 -0.1346
15125TIP3    H266867   5.953   5.970  14.994  0.1951  1.1291 -0.0248
15126TIP3   OH266868   6.221   3.987  15.162  0.2577 -0.3231 -0.4951
15126TIP3    H166869   6.203   4.012  15.252  1.0978 -0.6774 -0.2244
15126TIP3    H266870   6.317   3.984  15.156  0.2110 -0.3244 -1.3898
15127TIP3   OH266871   4.020   2.571   0.046  0.0277  0.1938  0.0410
15127TIP3    H166872   4.000   2.627  -0.029  2.3603 -1.1522 -1.6912
15127TIP3    H266873   3.940   2.569   0.097 -2.2682 -0.2959 -3.4002
15128TIP3   OH266874   5.290   0.516  15.675 -0.0463 -0.5777  0.3250
15128TIP3    H166875   5.334   0.447  15.724  1.2520  0.6983  1.0068
15128TIP3    H266876   5.328   0.510  15.587  0.8815 -0.0457  0.6777
15129TIP3   OH266877   5.222   4.887   2.596 -0.1049  0.0285  0.4070
15129TIP3    H166878   5.227   4.869   2.690 -1.8547  0.1875  0.5423
15129TIP3    H266879   5.202   4.980   2.591 -1.2036 -0.2346 -0.1048
15130TIP3   OH266880   1.827   4.441   2.188  0.0799  0.0942  0.2636
15130TIP3    H166881   1.866   4.509   2.242 -2.4113  1.7002  0.1265
15130TIP3    H266882   1.739   4.474   2.168 -0.7591 -2.6416 -0.7632
15131TIP3   OH266883   0.963   5.359   5.662  0.3293  0.0319  0.0115
15131TIP3    H166884   1.024   5.334   5.731  0.0034 -1.1824 -0.1229
15131TIP3    H266885   1.011   5.424   5.610  0.4882  1.1425  1.4982
15132TIP3   OH266886   1.565   3.578   2.745  0.0535  0.0951 -0.1143
15132TIP3    H166887   1.587   3.665   2.713 -1.5473  0.4527 -0.2755
15132TIP3    H266888   1.481   3.558   2.704 -0.1405 -1.0463  0.8248
15133TIP3   OH266889   1.435   0.802  15.876 -0.4218  1.0069  0.3127
15133TIP3    H166890   1.400   0.800  15.787  1.1198  0.3228 -0.3057
15133TIP3    H266891   1.404   0.721  15.917 -0.5300  0.9693  0.1530
15134TIP3   OH266892   4.766   5.199   0.294 -0.2140  0.5447 -0.8010
15134TIP3    H166893   4.693   5.170   0.241 -0.7786  0.8478 -0.1942
15134TIP3    H266894   4.775   5.293   0.273 -0.2757  0.6065 -0.5483
15135TIP3   OH266895   3.669   4.844  12.986  0.0097  0.5258  0.3340
15135TIP3    H166896   3.759   4.828  13.013  1.1225  0.6996 -3.1151
15135TIP3    H266897   3.664   4.812  12.896 -3.4816  0.2043  0.5743
15136TIP3   OH266898   1.381   2.436  11.438  0.1152 -0.3470  0.1919
15136TIP3    H166899   1.417   2.512  11.393 -0.9066  0.1915  0.2556
15136TIP3    H266900   1.350   2.379  11.368  1.6114 -1.0821  0.1209
15137TIP3   OH266901   3.493   6.308  14.435  0.2773  0.4352  0.4999
15137TIP3    H166902   3.400   6.288  14.427  0.2709  0.5710  0.2320
15137TIP3    H266903   3.536   6.252  14.370  0.3662  0.4892  0.5117
15138TIP3   OH266904   2.150   1.306  12.079  0.3740 -0.2148  0.3539
15138TIP3    H166905   2.077   1.368  12.082  0.9997  0.5073  1.0745
15138TIP3    H266906   2.219   1.352  12.030  0.4768 -0.7352  0.0114
15139TIP3   OH266907   3.608   3.264   0.384  0.7822  0.2647  0.7186
15139TIP3    H166908   3.692   3.223   0.405  1.0701  0.9941  1.0206
15139TIP3    H266909   3.543   3.215   0.434  0.8874 -1.0472 -0.4214
15140TIP3   OH266910   0.822   1.524  13.097 -0.1400  0.2364  0.2154
15140TIP3    H166911   0.862   1.607  13.073  1.3887  0.5406  3.6542
15140TIP3    H266912   0.728   1.543  13.101  0.0264  1.3322 -0.7097
15141TIP3   OH266913   5.235   1.212  16.623 -0.4138  0.0274 -0.3121
15141TIP3    H166914   5.164   1.208  16.686 -0.0730 -2.3242 -0.0402
15141TIP3    H266915   5.299   1.271  16.662 -0.6920 -0.5680  1.0474
15142TIP3   OH266916   2.497   5.713   2.777 -0.2765  0.0087  0.1399
15142TIP3    H166917   2.455   5.758   2.704  0.2333  0.8504  0.3578
15142TIP3    H266918   2.445   5.737   2.854 -0.4576 -0.3967  0.1476
15143TIP3   OH266919   6.602   2.784   3.409  0.2398  0.2776  0.9648
15143TIP3    H166920   6.524   2.765   3.357  1.5888 -1.9100 -0.3252
15143TIP3    H266921   6.571   2.841   3.480 -2.4466 -0.3370  0.3045
15144TIP3   OH266922   0.287   6.225   5.564 -0.4239  0.4152 -0.2363
15144TIP3    H166923   0.197   6.192   5.566 -0.8437  1.5665  0.9835
15144TIP3    H266924   0.337   6.164   5.617 -0.5587 -0.0108 -0.5950
15145TIP3   OH266925   6.760   0.338   5.492  0.1482  0.0082  0.2229
15145TIP3    H166926   6.715   0.272   5.545  1.6022 -1.9207 -0.9019
15145TIP3    H266927   6.689   0.381   5.443 -0.7493 -1.1752  0.4600
15146TIP3   OH266928   2.582   3.088  13.819 -0.3825 -0.1252 -0.7097
15146TIP3    H166929   2.652   3.024  13.808 -0.3175  0.0123 -1.1012
15146TIP3    H266930   2.586   3.112  13.911  1.4778  1.4721 -1.1777
15147TIP3   OH266931   1.325   3.596  11.886  0.0803 -0.3052  0.4377
15147TIP3    H166932   1.250   3.604  11.945  0.7797  2.0695  1.0626
15147TIP3    H266933   1.376   3.676  11.902  2.2978 -1.4923 -0.5871
15148TIP3   OH266934   1.857   5.491  12.872  0.1685 -0.1692  0.0109
15148TIP3    H166935   1.833   5.409  12.830 -1.0497 -0.1763  0.7071
15148TIP3    H266936   1.890   5.464  12.958 -0.7598  0.1131  0.4546
15149TIP3   OH266937   5.571   2.440  16.848  0.2989  0.2865  0.1834
15149TIP3    H166938   5.573   2.491  16.929 -0.4114 -1.2289  1.1822
15149TIP3    H266939   5.546   2.352  16.875  0.2070 -0.2924 -1.6658
15150TIP3   OH266940   4.382   1.919   3.761  0.6029 -0.3353  0.5029
15150TIP3    H166941   4.297   1.929   3.803  0.6706  0.9226  0.3545
15150TIP3    H266942   4.445   1.952   3.825  0.8460  0.0772  0.0569
15151TIP3   OH266943   6.789   5.993  15.046 -0.1855  0.0898  0.4477
15151TIP3    H166944   6.871   5.959  15.009 -0.7312 -0.4111 -0.3255
15151TIP3    H266945   6.779   6.080  15.007 -0.3197 -0.0913  0.0666
15152TIP3   OH266946   6.620   4.958  12.848 -0.1000  0.0053  0.2362
15152TIP3    H166947   6.709   4.984  12.824 -0.0392 -1.9353 -1.7783
15152TIP3    H266948   6.632   4.877  12.898 -0.6278  0.8896  1.8359
15153TIP3   OH266949   0.811   1.222  15.272  0.2164  0.3009 -0.2331
15153TIP3    H166950   0.860   1.145  15.301 -1.0190  0.9981  4.0697
15153TIP3    H266951   0.743   1.187  15.214  0.4478 -1.7088  0.6776
15154TIP3   OH266952   0.484   6.736  16.687  0.2142  0.3313  0.2518
15154TIP3    H166953   0.540   6.734  16.765  0.0223  0.9674  0.4097
15154TIP3    H266954   0.443   6.650  16.684 -0.4888  0.6245  1.3718
15155TIP3   OH266955   0.656   0.236   3.729  0.7605  0.0610  0.4133
15155TIP3    H166956   0.748   0.216   3.711  0.5502  0.8469 -1.7250
15155TIP3    H266957   0.608   0.163   3.689  0.4138 -0.2182  1.3121
15156TIP3   OH266958   5.289   6.195  14.793  0.2939  0.1581  0.2504
15156TIP3    H166959   5.342   6.270  14.819 -0.3943  0.5240  0.6066
15156TIP3    H266960   5.253   6.162  14.875 -2.8076  1.9959 -0.2888
15157TIP3   OH266961   5.229   2.281   0.626 -0.2429 -0.0343  0.3859
15157TIP3    H166962   5.210   2.325   0.543 -1.0334 -0.7417  0.1782
15157TIP3    H266963   5.178   2.200   0.622 -0.7128  0.1774  1.8054
15158TIP3   OH266964   1.330   2.249  15.998 -0.2565  0.1846  0.0070
15158TIP3    H166965   1.268   2.201  15.943  0.4746 -0.1362 -0.5378
15158TIP3    H266966   1.411   2.200  15.992 -0.5424 -0.6478  2.5144
15159TIP3   OH266967   3.505   4.587  11.805 -0.1931 -0.1005 -0.1875
15159TIP3    H166968   3.480   4.541  11.725  2.6584 -0.6140 -0.8495
15159TIP3    H266969   3.483   4.678  11.788  3.6635  0.4492 -3.1234
15160TIP3   OH266970   0.417   0.226   6.311  0.4661 -0.2359 -0.5342
15160TIP3    H166971   0.362   0.304   6.318 -1.5939 -1.8843  2.3761
15160TIP3    H266972   0.387   0.168   6.380  3.3753 -2.7972 -1.2796
15161TIP3   OH266973   3.303   6.052   4.215 -0.1425 -0.0712 -0.0922
15161TIP3    H166974   3.280   5.990   4.283 -0.4676 -0.9337 -0.9750
15161TIP3    H266975   3.394   6.076   4.233 -0.5588  0.5290  1.2508
15162TIP3   OH266976   0.341   3.027   4.616 -0.1887 -0.3177  0.1084
15162TIP3    H166977   0.354   2.979   4.698  1.9558 -0.1742 -0.1356
15162TIP3    H266978   0.429   3.047   4.585 -0.9816 -0.1379 -2.1139
15163TIP3   OH266979   2.127   6.301   0.786 -0.1832 -0.4943  0.2651
15163TIP3    H166980   2.098   6.282   0.697  0.8295 -1.0299  0.0342
15163TIP3    H266981   2.147   6.214   0.823  0.8975 -0.1670  0.4750
15164TIP3   OH266982   6.565   0.180  11.431  0.1661  0.2141  0.2688
15164TIP3    H166983   6.505   0.208  11.500  1.0176  0.3140  0.9717
15164TIP3    H266984   6.510   0.175  11.352 -0.5112  1.5074  0.6405
15165TIP3   OH266985   2.254   1.184  12.565 -0.1438  0.1869  0.1053
15165TIP3    H166986   2.187   1.162  12.501 -2.0984  1.0490  1.7868
15165TIP3    H266987   2.216   1.158  12.649  2.2221 -0.6073  0.9734
15166TIP3   OH266988   5.019   5.152  11.831 -0.3165  0.0249  0.4235
15166TIP3    H166989   5.096   5.123  11.782  0.1183  0.6652  0.7149
15166TIP3    H266990   5.049   5.228  11.881 -0.8088 -0.5167  1.5583
15167TIP3   OH266991   0.948   0.985  16.143 -0.5635  0.1168  0.3185
15167TIP3    H166992   0.871   0.932  16.162  0.2783 -1.4893 -0.6713
15167TIP3    H266993   1.016   0.950  16.200  0.2454 -0.5155 -1.0030
15168TIP3   OH266994   2.337   0.548   2.602  0.5017 -0.4551  0.2761
15168TIP3    H166995   2.414   0.518   2.650 -0.4300 -2.6165  0.4901
15168TIP3    H266996   2.348   0.511   2.514 -0.2777 -0.7307  0.2971
15169TIP3   OH266997   5.756   2.431   2.763 -0.2680 -0.0011 -0.1912
15169TIP3    H166998   5.731   2.488   2.691 -0.6068 -1.1708 -1.0194
15169TIP3    H266999   5.847   2.407   2.744  0.9510  2.7111  1.8031
15170TIP3   OH267000   0.658   5.404   5.230 -0.1066 -0.1146 -0.1281
15170TIP3    H167001   0.696   5.466   5.292  0.4191  0.6370 -1.1822
15170TIP3    H267002   0.581   5.368   5.275  0.3002  0.3753  0.9671
15171TIP3   OH267003   2.600   2.353  11.474 -0.1136 -0.1583 -0.2462
15171TIP3    H167004   2.532   2.365  11.408  0.0489 -0.4054 -0.4592
15171TIP3    H267005   2.590   2.263  11.504 -0.9139  0.2955  0.8819
15172TIP3   OH267006   4.878   3.138  14.185  0.4984  0.3930 -0.1143
15172TIP3    H167007   4.911   3.163  14.099  0.9119 -3.7179 -1.2378
15172TIP3    H267008   4.955   3.109  14.233 -0.0367  0.6852  0.9449
15173TIP3   OH267009   0.357   4.908  15.957 -0.3065 -0.0217  0.0127
15173TIP3    H167010   0.299   4.832  15.957 -1.9349  1.1982  0.8641
15173TIP3    H267011   0.326   4.963  16.029  1.9880  0.6038  0.5693
15174TIP3   OH267012   2.580   4.505   0.720 -0.0585 -0.0571  0.0777
15174TIP3    H167013   2.584   4.471   0.631  0.2485  0.9709 -0.3055
15174TIP3    H267014   2.501   4.560   0.722  0.4946  0.7548  0.1304
15175TIP3   OH267015   5.959   2.219  12.296 -0.1795 -0.3045 -0.3342
15175TIP3    H167016   5.875   2.264  12.281 -0.3041 -0.5645 -0.4225
15175TIP3    H267017   5.964   2.155  12.226 -0.1702 -0.6723 -0.0000
15176TIP3   OH267018   0.694   3.515   2.304  0.3678  0.6973  0.3791
15176TIP3    H167019   0.730   3.586   2.357  1.5444 -0.4669  1.1681
15176TIP3    H267020   0.691   3.549   2.215 -0.5918  2.2938  1.0128
15177TIP3   OH267021   0.413   5.238   5.271 -0.1232  0.5784  0.7774
15177TIP3    H167022   0.463   5.234   5.353 -0.2544  0.6296  0.8608
15177TIP3    H267023   0.395   5.147   5.249 -2.5933  0.6536  2.3441
15178TIP3   OH267024   2.759   1.599   1.986 -0.3262 -0.9458 -0.6040
15178TIP3    H167025   2.853   1.616   1.989 -0.1158 -2.3203  1.0640
15178TIP3    H267026   2.718   1.684   1.998  0.6838 -0.2602 -1.8397
15179TIP3   OH267027   3.993   1.423   3.086  0.0641  0.5150 -0.7774
15179TIP3    H167028   4.002   1.517   3.071  0.3867  0.8486  1.3573
15179TIP3    H267029   3.912   1.414   3.137  2.1421  0.0798  2.5793
15180TIP3   OH267030   4.282   5.617   2.257 -0.1219  0.2741  0.0834
15180TIP3    H167031   4.320   5.586   2.339 -0.2271  1.6826  0.6668
15180TIP3    H267032   4.271   5.711   2.269 -0.8373  0.3765 -1.2690
15181TIP3   OH267033   4.782   5.413  12.268  0.0625  0.6234 -0.1628
15181TIP3    H167034   4.768   5.418  12.363  1.4727  0.3022  0.0814
15181TIP3    H267035   4.714   5.353  12.237  0.0202  0.1874  0.7430
15182TIP3   OH267036   3.396   4.388   4.342 -0.1315  0.4632  0.7571
15182TIP3    H167037   3.473   4.370   4.287  0.9965  2.2934  1.6932
15182TIP3    H267038   3.331   4.423   4.282  0.0757 -0.2612  0.1022
15183TIP3   OH267039   6.231   0.176   1.205 -0.6752 -0.3770  0.0489
15183TIP3    H167040   6.276   0.127   1.136  1.7728 -0.0177  1.3374
15183TIP3    H267041   6.298   0.233   1.242 -1.5983 -1.4563  3.6056
15184TIP3   OH267042   6.690   5.688  13.706  0.6439  0.1693 -0.0284
15184TIP3    H167043   6.638   5.658  13.631  2.2209 -2.2315 -0.2252
15184TIP3    H267044   6.695   5.612  13.763  0.2984  1.6890  2.0652
15185TIP3   OH267045   4.681   0.044  13.115 -0.4323 -0.2056  0.1265
15185TIP3    H167046   4.752  -0.019  13.126 -2.4774 -2.6637 -0.1910
15185TIP3    H267047   4.604  -0.000  13.151 -2.0121  1.9703 -0.4562
15186TIP3   OH267048   1.553   6.211  16.171 -0.4221  0.1687 -0.1272
15186TIP3    H167049   1.622   6.148  16.193 -0.5097  0.1806  0.1801
15186TIP3    H267050   1.600   6.292  16.150 -0.2695 -0.1795 -1.1651
15187TIP3   OH267051   4.633   6.121  16.932 -0.2585  0.3382  0.7279
15187TIP3    H167052   4.700   6.115  16.864 -1.0347 -1.3964  0.0845
15187TIP3    H267053   4.643   6.210  16.967  0.7325  0.9604 -1.0365
15188TIP3   OH267054   0.664   4.071  14.657  0.5151  0.1491 -0.5458
15188TIP3    H167055   0.673   4.051  14.563  2.5253  2.6473 -0.9177
15188TIP3    H267056   0.754   4.072  14.690 -0.1369  0.0278  1.2870
15189TIP3   OH267057   6.418   5.311  15.922 -0.1484 -0.3779  0.3707
15189TIP3    H167058   6.499   5.325  15.872 -0.4135 -0.7550 -0.1688
15189TIP3    H267059   6.351   5.361  15.875 -0.0474  0.7173  1.3545
15190TIP3   OH267060   1.523   2.636  15.045  0.4767 -0.4967 -0.0440
15190TIP3    H167061   1.479   2.564  15.090  3.0672 -2.2309 -0.1547
15190TIP3    H267062   1.474   2.648  14.964 -1.8338 -0.0178  1.3795
15191TIP3   OH267063   1.431   0.856   3.980 -0.3952 -0.2361 -0.3100
15191TIP3    H167064   1.497   0.862   4.049 -0.8425 -1.7797  0.2846
15191TIP3    H267065   1.351   0.889   4.021 -0.2774  0.4497 -0.6303
15192TIP3   OH267066   4.145   2.166  11.516 -0.2626 -0.1350 -0.3561
15192TIP3    H167067   4.235   2.156  11.487  0.7872  0.7031  2.5091
15192TIP3    H267068   4.111   2.238  11.463  2.0205  2.2368  1.2633
15193TIP3   OH267069   5.421   6.072  12.815 -0.0852  0.1984 -0.5670
15193TIP3    H167070   5.382   6.092  12.729 -0.3192 -1.4678 -0.8664
15193TIP3    H267071   5.514   6.056  12.796 -0.4755 -1.8940 -0.7898
15194TIP3   OH267072   0.892   4.573  13.619  0.3005 -0.0244 -0.1327
15194TIP3    H167073   0.851   4.602  13.538 -1.0475 -1.2925  0.0953
15194TIP3    H267074   0.897   4.652  13.673  2.2575  1.0832 -1.8626
15195TIP3   OH267075   3.198   0.450   0.933  0.4445 -0.0295  0.2543
15195TIP3    H167076   3.173   0.430   1.023  0.2992 -0.9301  0.0119
15195TIP3    H267077   3.258   0.379   0.908  1.4695  0.8806  0.0610
15196TIP3   OH267078   1.439   0.421  15.788 -0.2960  0.3230  0.1139
15196TIP3    H167079   1.355   0.377  15.778 -0.5255  0.3731  1.7010
15196TIP3    H267080   1.424   0.488  15.854  0.4814  1.7182 -1.0985
15197TIP3   OH267081   1.122   5.864   4.528 -0.0473  0.0600 -0.2146
15197TIP3    H167082   1.064   5.864   4.452  0.0567 -0.1476 -0.2920
15197TIP3    H267083   1.153   5.954   4.534 -1.1307  0.4085  0.3992
15198TIP3   OH267084   6.775   5.766   0.816  0.0974 -0.1043  0.1704
15198TIP3    H167085   6.733   5.681   0.806  1.1378 -0.9213  2.4317
15198TIP3    H267086   6.792   5.774   0.910  1.4341  1.9151 -0.2031
15199TIP3   OH267087   5.061   0.987   3.212 -0.2979  0.3654 -0.4943
15199TIP3    H167088   5.059   0.957   3.303  1.5693  2.1226  0.1730
15199TIP3    H267089   4.979   1.034   3.201 -0.1578  0.8800  0.5634
15200TIP3   OH267090   4.885   5.027  11.013  0.0781 -0.3138 -0.2277
15200TIP3    H167091   4.811   5.015  11.072  1.1244  1.8617  1.5583
15200TIP3    H267092   4.901   4.939  10.978 -1.4200 -1.3772  1.6469
15201TIP3   OH267093   2.166   4.371  14.560 -0.2352 -0.0681  0.7733
15201TIP3    H167094   2.168   4.373  14.464  0.1593  0.5512  0.7882
15201TIP3    H267095   2.159   4.463  14.585  1.1664 -0.1140  1.3590
15202TIP3   OH267096   5.609   1.370  13.127 -0.6543 -0.0778 -0.3325
15202TIP3    H167097   5.598   1.283  13.088  0.3180 -0.9683  1.3265
15202TIP3    H267098   5.694   1.400  13.095 -1.7616  1.0310 -2.3063
15203TIP3   OH267099   4.608   2.869   4.031  0.0363 -0.0355  0.2818
15203TIP3    H167100   4.621   2.780   4.065  0.8497  0.8468  2.3781
15203TIP3    H267101   4.565   2.915   4.103 -1.5734  0.9356 -1.2872
15204TIP3   OH267102   4.661   4.854   0.526  0.8514 -0.6527  0.0971
15204TIP3    H167103   4.615   4.826   0.605 -0.5391 -1.7413 -1.0607
15204TIP3    H267104   4.632   4.944   0.511  1.9273 -0.0737  1.3817
15205TIP3   OH267105   1.319   1.792  11.727 -0.3003  0.9044 -0.0820
15205TIP3    H167106   1.339   1.861  11.664 -3.0554  2.1329  0.3091
15205TIP3    H267107   1.260   1.732  11.681 -0.4945  0.5631  0.5891
15206TIP3   OH267108   4.249   0.504  11.276  0.5016  0.6125  0.0650
15206TIP3    H167109   4.336   0.469  11.254  1.3886  2.0851  1.0675
15206TIP3    H267110   4.219   0.449  11.348  0.3868 -0.1985 -0.5893
15207TIP3   OH267111   2.407   2.099   3.237 -0.1431 -0.2536 -0.2562
15207TIP3    H167112   2.379   2.136   3.320 -0.0563 -2.3923  0.7419
15207TIP3    H267113   2.450   2.172   3.192  0.6170  0.6946  1.9480
15208TIP3   OH267114   0.918   2.940   0.052  0.3217  0.4072  0.3371
15208TIP3    H167115   0.972   2.952   0.131 -1.1758 -2.8897  1.9832
15208TIP3    H267116   0.973   2.889  -0.007 -0.3935 -1.7394  1.4548
15209TIP3   OH267117   3.763   2.794   5.117  0.4490  0.1636  0.0986
15209TIP3    H167118   3.817   2.866   5.083 -0.2291  0.6097 -0.0400
15209TIP3    H267119   3.707   2.836   5.182  0.3510 -0.3277  0.3327
15210TIP3   OH267120   0.098   3.178   4.529 -0.1964  0.0946  0.1097
15210TIP3    H167121   0.177   3.174   4.475 -0.6970 -0.3093 -0.6022
15210TIP3    H267122   0.127   3.146   4.615  0.5094  0.3520 -0.0261
15211TIP3   OH267123   5.203   3.505  12.374  0.0051  0.6128 -0.1309
15211TIP3    H167124   5.235   3.431  12.321  0.2193 -0.2742  1.1936
15211TIP3    H267125   5.114   3.521  12.343  0.5522  0.9129 -1.5891
15212TIP3   OH267126   5.425   3.154  11.955 -0.5091  0.1711  0.0550
15212TIP3    H167127   5.461   3.236  11.919  1.8074 -0.8604 -0.0347
15212TIP3    H267128   5.498   3.093  11.955 -2.0844 -1.7821  0.6156
15213TIP3   OH267129   1.635   6.128   5.949 -0.4531 -0.3907 -0.8762
15213TIP3    H167130   1.690   6.175   6.012  0.2798 -3.0011  0.5194
15213TIP3    H267131   1.575   6.194   5.915  0.9868  1.6754  0.5063
15214TIP3   OH267132   0.875   0.242  16.543 -0.0297  0.3048 -0.0588
15214TIP3    H167133   0.903   0.151  16.528  0.1735  0.3502  0.0473
15214TIP3    H267134   0.844   0.242  16.633 -1.2415  0.0345 -0.4650
15215TIP3   OH267135   3.693   6.481  13.863 -0.6215 -0.2084  0.2455
15215TIP3    H167136   3.662   6.409  13.809  0.7414  0.0210 -0.8754
15215TIP3    H267137   3.760   6.524  13.810 -1.7403  2.1773  0.6963
15216TIP3   OH267138   2.747   5.412  10.942 -0.2812 -0.3709 -0.0160
15216TIP3    H167139   2.802   5.484  10.975  1.9490 -1.8126 -0.4789
15216TIP3    H267140   2.671   5.455  10.905  0.3173  1.6786  1.0398
15217TIP3   OH267141   6.788   4.493  14.852 -0.4024 -0.1183 -0.3859
15217TIP3    H167142   6.737   4.513  14.773  0.6194  0.1524 -0.9798
15217TIP3    H267143   6.832   4.575  14.873 -0.1861 -0.3615  0.1175
15218TIP3   OH267144   4.755   6.147   4.099 -0.2301 -0.3663  0.0370
15218TIP3    H167145   4.721   6.088   4.167  0.0017  0.3409  0.7719
15218TIP3    H267146   4.769   6.230   4.145 -0.2024  0.1516 -0.9114
15219TIP3   OH267147   0.846   1.521  14.705  0.2750 -0.5693  0.1985
15219TIP3    H167148   0.858   1.575  14.627 -0.3311 -0.4411  0.1933
15219TIP3    H267149   0.909   1.449  14.694  1.5080  0.4435  0.5013
15220TIP3   OH267150   6.148   0.685   2.937 -0.2982  0.1795 -0.2861
15220TIP3    H167151   6.102   0.768   2.922 -1.5957 -0.6026 -0.7270
15220TIP3    H267152   6.220   0.685   2.873  0.3229  1.4048  0.3993
15221TIP3   OH267153   0.592   0.923   6.630 -0.0910  0.1041  0.3801
15221TIP3    H167154   0.637   1.005   6.648  1.2293 -0.6142  0.3858
15221TIP3    H267155   0.637   0.858   6.684  0.5559 -1.0969 -1.5683
15222TIP3   OH267156   6.621   4.760  12.525 -0.6165  0.1263  0.1052
15222TIP3    H167157   6.585   4.802  12.603 -1.0921 -1.6462  0.8817
15222TIP3    H267158   6.712   4.790  12.521 -0.0468 -1.1284  2.4074
15223TIP3   OH267159   3.084   4.526   0.201  0.3672 -0.2778 -0.0401
15223TIP3    H167160   3.040   4.467   0.262 -0.0530 -0.2303 -0.2923
15223TIP3    H267161   3.102   4.605   0.253 -0.0791 -0.1992 -0.0018
15224TIP3   OH267162   0.746   0.509   1.030  0.3999  0.1788 -0.4813
15224TIP3    H167163   0.794   0.472   1.104  0.7853  0.4226 -0.6050
15224TIP3    H267164   0.814   0.546   0.973  0.1295 -0.3058 -1.1263
15225TIP3   OH267165   0.807   1.348   0.739  0.4419  0.4782  0.1415
15225TIP3    H167166   0.868   1.336   0.812  0.4499  2.0374  0.4020
15225TIP3    H267167   0.722   1.326   0.775  0.7726 -1.2949 -0.1064
15226TIP3   OH267168   0.823   6.343  13.806 -0.2811 -0.0337  0.6779
15226TIP3    H167169   0.816   6.408  13.875  0.7066  1.0484 -0.2061
15226TIP3    H267170   0.753   6.281  13.823 -1.1736  1.2185  1.5928
15227TIP3   OH267171   4.356   6.431  13.407 -0.2466  0.6519 -0.6056
15227TIP3    H167172   4.265   6.434  13.376 -1.0891 -0.9870  1.5424
15227TIP3    H267173   4.351   6.465  13.497  0.8197 -1.7865  0.4141
15228TIP3   OH267174   3.978   5.214   5.750 -0.3401 -0.1244  0.0169
15228TIP3    H167175   4.070   5.191   5.739 -0.6455 -0.9415 -0.8630
15228TIP3    H267176   3.945   5.150   5.813 -0.1537  0.5750  0.8347
15229TIP3   OH267177   5.079   2.431   4.075  0.1027 -0.1600 -0.0776
15229TIP3    H167178   5.009   2.439   4.140  0.9195 -1.3830  0.9818
15229TIP3    H267179   5.137   2.364   4.110  1.0463 -0.2000 -1.6519
15230TIP3   OH267180   2.197   3.343   0.169 -0.2563  0.3565 -0.2167
15230TIP3    H167181   2.166   3.433   0.182  1.4321  0.9313 -0.0880
15230TIP3    H267182   2.155   3.315   0.087 -2.0710  0.6684  0.5741
15231TIP3   OH267183   0.292   5.208  16.770  0.0727  0.1290 -0.4583
15231TIP3    H167184   0.278   5.168  16.855  2.5165  2.5795  1.2152
15231TIP3    H267185   0.258   5.297  16.780  0.6807  0.5414 -1.8919
15232TIP3   OH267186   2.086   2.593  14.346 -0.3956  0.1483  0.2786
15232TIP3    H167187   2.067   2.584  14.253  2.2309 -0.8896 -0.1777
15232TIP3    H267188   2.030   2.529  14.389 -0.4477 -0.4751 -0.7265
15233TIP3   OH267189   5.961   6.782  14.718  0.2716  1.0242 -0.2115
15233TIP3    H167190   6.039   6.829  14.746 -0.6898  2.0046  0.8859
15233TIP3    H267191   5.937   6.823  14.635  1.3532  0.2101 -0.9308
15234TIP3   OH267192   1.772   6.601  12.672  0.1096  0.0133  0.2327
15234TIP3    H167193   1.715   6.605  12.748 -1.1333 -0.0565 -0.6712
15234TIP3    H267194   1.817   6.517  12.680  0.6840  0.4272  1.3711
15235TIP3   OH267195   5.072   4.158   1.179 -0.2011 -0.2300  0.5442
15235TIP3    H167196   4.987   4.146   1.138 -0.2866 -1.2822  1.0083
15235TIP3    H267197   5.080   4.084   1.239  0.7046  0.2938  1.0738
15236TIP3   OH267198   0.187   5.749  16.857 -0.1043  0.2928 -0.2018
15236TIP3    H167199   0.251   5.735  16.926  0.2735 -1.4111 -0.8704
15236TIP3    H267200   0.145   5.832  16.879 -0.8999 -0.8463  2.7806
15237TIP3   OH267201   2.281   5.696   4.919  0.0968  0.2893  0.2541
15237TIP3    H167202   2.191   5.681   4.889  0.9993  0.6940 -2.8466
15237TIP3    H267203   2.322   5.610   4.912  0.3675  0.4308  0.0944
15238TIP3   OH267204   3.976   0.128  17.127  0.4654  0.0930 -0.3729
15238TIP3    H167205   3.951   0.081  17.206 -0.1703  0.5337 -0.3022
15238TIP3    H267206   3.901   0.185  17.109  1.1306  0.9074 -0.5811
15239TIP3   OH267207   4.356   1.842  13.825 -0.0565  0.4704  0.4651
15239TIP3    H167208   4.318   1.761  13.791 -0.4004  1.0122 -0.4991
15239TIP3    H267209   4.338   1.840  13.919 -0.5254 -0.3189  0.3623
15240TIP3   OH267210   5.517   5.880   2.519  1.1436 -0.4146  0.5564
15240TIP3    H167211   5.455   5.911   2.586  1.9624 -0.7240  1.4635
15240TIP3    H267212   5.602   5.911   2.549  1.4841 -0.3492 -0.4783
15241TIP3   OH267213   0.278   1.366  11.573  0.9373 -0.6527 -0.0009
15241TIP3    H167214   0.231   1.344  11.654  0.8082 -2.5964 -0.5749
15241TIP3    H267215   0.338   1.437  11.599 -0.4919  0.1005  1.3238
15242TIP3   OH267216   1.214   2.622  12.747  0.2906 -0.3742 -1.1264
15242TIP3    H167217   1.232   2.699  12.801 -0.8926 -0.5583 -0.4371
15242TIP3    H267218   1.250   2.644  12.661  1.1368  0.4063 -0.5850
15243TIP3   OH267219   0.892   5.232   5.126  0.2692  0.0028  0.0134
15243TIP3    H167220   0.874   5.149   5.170 -2.1371 -0.9166 -2.5838
15243TIP3    H267221   0.820   5.289   5.154  0.1829  0.2199 -0.6549
15244TIP3   OH267222   1.373   2.614   4.826 -0.3425 -0.2487  0.5564
15244TIP3    H167223   1.283   2.611   4.795  0.0341 -4.5650 -0.5048
15244TIP3    H267224   1.366   2.605   4.921 -1.0396 -2.2250  0.3496
15245TIP3   OH267225   4.672   0.580   5.547 -0.3961 -0.7014  0.8040
15245TIP3    H167226   4.747   0.630   5.581  0.0897 -2.2682  2.0436
15245TIP3    H267227   4.624   0.644   5.493  0.0188  1.2068  2.6337
15246TIP3   OH267228   0.198   4.189   0.727 -0.1457 -0.9217 -0.4838
15246TIP3    H167229   0.191   4.095   0.707  1.6895 -1.2334  0.2923
15246TIP3    H267230   0.204   4.231   0.641  0.0486 -1.5909 -0.8023
15247TIP3   OH267231   3.112   2.689  13.667  0.0995  1.1173  0.3142
15247TIP3    H167232   3.096   2.607  13.621 -1.7141 -0.2350  3.1842
15247TIP3    H267233   3.189   2.726  13.624  0.3912 -1.6038 -1.6591
15248TIP3   OH267234   3.822   0.336   4.751 -0.2555 -0.4891 -0.3637
15248TIP3    H167235   3.763   0.260   4.755  1.9073 -2.1483  0.5835
15248TIP3    H267236   3.903   0.302   4.715  0.4288  1.6150 -0.8700
15249TIP3   OH267237   3.014   4.917  16.995 -0.1472  0.1067  0.0751
15249TIP3    H167238   3.063   4.897  16.915 -0.4597  1.0989 -0.3661
15249TIP3    H267239   3.078   4.956  17.054 -0.8220  3.3755 -1.2712
15250TIP3   OH267240   3.558   3.918  12.810 -0.1234 -0.0261 -0.3696
15250TIP3    H167241   3.498   3.921  12.885 -1.5539  0.5642 -1.5250
15250TIP3    H267242   3.560   4.007  12.776  1.0195 -0.1518 -0.6454
15251TIP3   OH267243   5.207   1.790   0.038  0.4252 -0.0198  0.8257
15251TIP3    H167244   5.252   1.733  -0.025 -1.7570 -0.2274 -0.5909
15251TIP3    H267245   5.188   1.869  -0.012 -2.2050 -0.5774  0.9035
15252TIP3   OH267246   3.360   4.081   4.429  1.0482 -0.3235 -0.4209
15252TIP3    H167247   3.371   4.092   4.335  0.5174 -1.7766 -0.6720
15252TIP3    H267248   3.424   4.014   4.453 -1.9601 -3.4349 -0.6127
15253TIP3   OH267249   3.472   3.817   3.719 -0.2854  0.7727 -0.0435
15253TIP3    H167250   3.412   3.813   3.645 -0.6396  1.8290  0.1872
15253TIP3    H267251   3.556   3.844   3.681  0.1357 -0.9355 -0.4032
15254TIP3   OH267252   1.691   0.838  10.861  0.3630 -0.3661 -0.6696
15254TIP3    H167253   1.781   0.820  10.886  0.4059 -0.8006 -1.1281
15254TIP3    H267254   1.656   0.753  10.833 -0.3759 -0.3206  0.0835
15255TIP3   OH267255   5.442   3.311   5.059  0.3919  0.2399 -0.4770
15255TIP3    H167256   5.424   3.394   5.103  0.1347 -0.1198  0.1036
15255TIP3    H267257   5.376   3.251   5.093  0.7190 -0.2637 -0.7191
15256TIP3   OH267258   0.995   1.623  17.197  0.3298  0.3858 -0.0414
15256TIP3    H167259   0.982   1.701  17.142 -1.9362 -0.2574 -0.4902
15256TIP3    H267260   0.956   1.646  17.281  0.8318  0.2076  0.2372
15257TIP3   OH267261   2.069   1.526   3.265 -0.5801 -0.1692 -0.2154
15257TIP3    H167262   1.999   1.505   3.203  0.9189 -2.4648 -1.1666
15257TIP3    H267263   2.087   1.443   3.310  2.6795 -0.0432 -1.1808
15258TIP3   OH267264   5.026   0.980  15.858 -0.1781 -0.1507  0.1484
15258TIP3    H167265   4.984   1.015  15.779  1.4310  1.5723  0.0190
15258TIP3    H267266   5.108   0.943  15.827  0.3287  0.2865  0.9697
15259TIP3   OH267267   5.707   0.396  13.162 -0.2076  0.3749  0.0895
15259TIP3    H167268   5.775   0.385  13.095  0.7509  1.0548  0.9362
15259TIP3    H267269   5.731   0.477  13.208 -1.0275  0.0771  1.0636
15260TIP3   OH267270   1.563   6.707  16.603  0.2035 -0.2391  0.3354
15260TIP3    H167271   1.543   6.617  16.630  1.8871 -0.5714  0.4980
15260TIP3    H267272   1.656   6.706  16.581  0.4811  1.6937  1.3161
15261TIP3   OH267273   6.101   0.162   0.774  0.0852  0.0792  0.1224
15261TIP3    H167274   6.023   0.175   0.720 -0.3441 -1.4817  0.3440
15261TIP3    H267275   6.166   0.223   0.738 -2.0552  3.4014  1.6821
15262TIP3   OH267276   2.294   4.021   5.708  0.3328 -0.6993 -0.4243
15262TIP3    H167277   2.375   3.991   5.749  0.7166 -2.6395 -2.4531
15262TIP3    H267278   2.311   4.112   5.685  1.7718 -0.9518 -0.4204
15263TIP3   OH267279   1.021   2.984  14.419  0.0854  0.0719  0.5085
15263TIP3    H167280   1.066   3.029  14.491  0.2477  2.6178 -1.1363
15263TIP3    H267281   1.090   2.967  14.355 -0.6771  0.9860 -0.5646
15264TIP3   OH267282   2.544   1.795   4.343  0.2630  0.8507  0.8840
15264TIP3    H167283   2.527   1.723   4.404 -0.9192  0.6264  0.3021
15264TIP3    H267284   2.638   1.789   4.324  0.5318  0.5910  2.2616
15265TIP3   OH267285   0.548   6.200  12.134 -0.1547 -0.2382 -0.2926
15265TIP3    H167286   0.551   6.296  12.130  1.0344 -0.3212 -2.0712
15265TIP3    H267287   0.620   6.175  12.191 -1.3163 -0.0460  1.3044
15266TIP3   OH267288   5.568   2.849   2.381 -0.0998 -0.1571  0.0072
15266TIP3    H167289   5.618   2.899   2.446  1.0615  0.8176 -1.5988
15266TIP3    H267290   5.635   2.810   2.325 -1.0296 -2.5557  0.5193
15267TIP3   OH267291   5.780   0.776  14.867  0.3720 -0.0240 -0.0925
15267TIP3    H167292   5.800   0.815  14.782 -1.8568  1.6598  0.1111
15267TIP3    H267293   5.860   0.789  14.919  1.1228  0.4968 -1.3586
15268TIP3   OH267294   3.659   5.012  17.098 -0.9100  0.5116 -0.3087
15268TIP3    H167295   3.631   4.940  17.041  0.1417 -0.4362  0.3405
15268TIP3    H267296   3.670   5.087  17.040  1.5517 -0.8036 -1.6011
15269TIP3   OH267297   5.512   0.284  12.001  0.1324 -0.2760  0.0756
15269TIP3    H167298   5.555   0.238  11.929  0.0464  0.0522 -0.1842
15269TIP3    H267299   5.547   0.372  11.998 -0.2554 -0.1190  0.1149
15270TIP3   OH267300   3.316   4.583   0.033  0.1408 -0.0406  0.0479
15270TIP3    H167301   3.326   4.672   0.066  0.0830  0.1615 -0.4787
15270TIP3    H267302   3.279   4.534   0.107 -0.5496  0.5477  0.0935
15271TIP3   OH267303   0.600   0.973   4.599 -0.2431 -0.0766  0.0988
15271TIP3    H167304   0.606   0.915   4.674 -1.1179  1.2266  1.2035
15271TIP3    H267305   0.686   1.016   4.595 -0.4583  0.4429  0.8654
15272TIP3   OH267306   2.225   1.680  11.890 -0.1336  0.1106 -0.7110
15272TIP3    H167307   2.255   1.697  11.801  1.3745 -0.7383 -0.3676
15272TIP3    H267308   2.272   1.602  11.918  0.3139  1.0345  1.2519
15273TIP3   OH267309   4.798   5.331   3.873  0.6236  0.0463 -0.2386
15273TIP3    H167310   4.748   5.409   3.847 -2.0187 -1.7845 -0.7270
15273TIP3    H267311   4.861   5.319   3.801 -0.5220  0.3696 -1.3090
15274TIP3   OH267312   1.459   2.548   4.169  0.2142  0.5251  0.4517
15274TIP3    H167313   1.462   2.581   4.259  0.4373  2.1353 -0.1351
15274TIP3    H267314   1.369   2.562   4.141 -0.0298 -0.6017  0.6378
15275TIP3   OH267315   6.444   6.055   2.136  0.6652  0.0618 -0.2086
15275TIP3    H167316   6.447   6.128   2.073  0.6773  1.6022  1.5372
15275TIP3    H267317   6.361   6.011   2.118  0.3854  0.8628 -0.9061
15276TIP3   OH267318   5.903   0.277  11.793  0.3830  0.4257 -0.4064
15276TIP3    H167319   5.973   0.341  11.782  1.6797 -0.6931  1.0317
15276TIP3    H267320   5.868   0.264  11.705  1.6214  1.4141 -1.0597
15277TIP3   OH267321   1.995   5.220   3.321 -0.0267  0.1057 -0.4406
15277TIP3    H167322   2.054   5.187   3.253 -0.3727 -0.6213 -0.3975
15277TIP3    H267323   1.908   5.209   3.284 -0.1601  0.7088 -0.3042
15278TIP3   OH267324   0.457   1.773  10.850 -0.5384  0.7861 -0.5726
15278TIP3    H167325   0.532   1.791  10.907  0.0757  2.4245 -1.8599
15278TIP3    H267326   0.469   1.682  10.823 -0.3439  0.2742  1.1586
15279TIP3   OH267327   3.170   1.972   6.106 -0.1555 -0.4645 -0.2604
15279TIP3    H167328   3.104   1.941   6.168  0.0390 -0.7658 -0.2055
15279TIP3    H267329   3.253   1.940   6.140 -0.1791 -1.7864 -1.3970
15280TIP3   OH267330   2.797   0.645  15.334  0.6948 -0.1846  0.2653
15280TIP3    H167331   2.790   0.732  15.294 -1.1047 -0.7764 -0.7337
15280TIP3    H267332   2.740   0.590  15.281  1.8777 -2.0038  0.8509
15281TIP3   OH267333   4.807   0.271  10.066  0.3869 -0.7702  0.3688
15281TIP3    H167334   4.857   0.227  10.135 -0.3369 -0.7873  0.8969
15281TIP3    H267335   4.720   0.284  10.105  0.5579  1.0379  0.1780
15282TIP3   OH267336   6.295   5.182   0.345  0.5253  0.9188  0.2766
15282TIP3    H167337   6.227   5.245   0.367 -0.2247  1.2030 -2.5799
15282TIP3    H267338   6.358   5.232   0.293  0.4581 -0.3891 -1.1250
15283TIP3   OH267339   4.654   5.773  12.660  0.0770  1.2183  0.2877
15283TIP3    H167340   4.722   5.789  12.725  0.4596  3.0041 -0.5320
15283TIP3    H267341   4.672   5.836  12.590 -1.5459  0.7118 -0.6090
15284TIP3   OH267342   5.356   2.587   1.609  0.3496  0.3463  0.1205
15284TIP3    H167343   5.374   2.628   1.694  2.0727  0.7241 -0.4041
15284TIP3    H267344   5.430   2.613   1.554 -0.7874  0.1687 -1.5258
15285TIP3   OH267345   5.634   1.604   1.586 -0.8039 -0.4730 -0.1730
15285TIP3    H167346   5.680   1.670   1.638 -2.5603  0.1255  0.6730
15285TIP3    H267347   5.687   1.525   1.597 -1.8669 -0.7775  3.8496
15286TIP3   OH267348   5.948   6.126   3.673 -0.4059  0.4994 -0.0293
15286TIP3    H167349   5.979   6.205   3.629 -1.9613  0.7024 -0.7951
15286TIP3    H267350   5.925   6.155   3.762  3.0183  0.0292  1.1083
15287TIP3   OH267351   0.924   3.527   3.197 -0.7319  0.3947 -0.5578
15287TIP3    H167352   0.885   3.613   3.179  0.6378  0.6047 -2.7123
15287TIP3    H267353   1.003   3.546   3.248  0.9406  0.6554 -3.1836
15288TIP3   OH267354   3.074   2.883   3.608  0.5731 -0.0561  0.1338
15288TIP3    H167355   3.120   2.919   3.533 -1.0227 -2.4057 -2.0432
15288TIP3    H267356   3.068   2.789   3.591 -1.9767 -0.3005  2.0019
15289TIP3   OH267357   0.808   0.964   4.832  0.4072  0.3236 -0.2710
15289TIP3    H167358   0.804   0.872   4.804 -0.2686  1.1396 -3.0756
15289TIP3    H267359   0.724   0.979   4.876  0.4704 -0.3774  0.0938
15290TIP3   OH267360   3.408   6.051   2.868 -0.1054  0.6787 -0.0266
15290TIP3    H167361   3.347   6.117   2.833 -0.1186  0.6763 -0.0076
15290TIP3    H267362   3.492   6.075   2.829  0.2452  1.7583  1.3439
15291TIP3   OH267363   0.189   4.069  15.135  0.2697 -0.0647 -0.0996
15291TIP3    H167364   0.185   4.017  15.055  0.2010  0.1609 -0.2446
15291TIP3    H267365   0.105   4.116  15.137  0.8258  0.9740 -0.6067
15292TIP3   OH267366   2.857   0.063  12.273 -0.3931 -0.0056  0.4910
15292TIP3    H167367   2.792   0.014  12.325 -0.4759 -1.4581 -0.9478
15292TIP3    H267368   2.941   0.041  12.314 -0.6627  0.6939  1.4372
15293TIP3   OH267369   0.004   2.437  15.256  0.1564  0.6391 -0.0553
15293TIP3    H167370   0.045   2.483  15.183 -1.1220  1.1833 -0.4265
15293TIP3    H267371  -0.061   2.380  15.215  1.1139 -0.8722  0.4649
15294TIP3   OH267372   6.540   3.135  14.736 -0.0346 -0.0174 -0.0674
15294TIP3    H167373   6.524   3.042  14.718  0.9014 -0.4994  1.4606
15294TIP3    H267374   6.453   3.173  14.744 -0.4330 -0.7464 -0.7713
15295TIP3   OH267375   3.364   3.382   6.495 -0.3349  0.4020 -0.6372
15295TIP3    H167376   3.445   3.431   6.511 -0.6678  1.5183 -2.2004
15295TIP3    H267377   3.391   3.305   6.446 -0.0967  0.2634 -0.2869
15296TIP3   OH267378   2.054   0.073  14.077 -0.3024  0.2692  0.1903
15296TIP3    H167379   2.132   0.066  14.131 -0.1028  0.6751 -0.0496
15296TIP3    H267380   1.986   0.027  14.128  0.1716 -0.4016  0.2294
15297TIP3   OH267381   1.465   6.003  15.972  0.0851 -0.7304 -0.3456
15297TIP3    H167382   1.537   6.063  15.988  0.5945 -1.7967  1.4834
15297TIP3    H267383   1.396   6.032  16.031 -1.1553  0.5201 -2.3611
15298TIP3   OH267384   0.979   1.737  12.602 -0.2713 -0.3219 -0.3443
15298TIP3    H167385   1.004   1.798  12.671 -0.5414 -0.8290  0.2105
15298TIP3    H267386   0.900   1.774  12.564 -0.6686 -0.5298  0.2663
15299TIP3   OH267387   1.367   4.850   5.129  0.2296  0.5388  0.2253
15299TIP3    H167388   1.416   4.898   5.196  0.1340  0.4900  0.3311
15299TIP3    H267389   1.424   4.778   5.104  0.1040  0.3296  0.5387
15300TIP3   OH267390   2.466   0.031  13.697 -0.0133  0.2477 -0.1953
15300TIP3    H167391   2.552  -0.001  13.669  0.4405 -0.2405  1.6966
15300TIP3    H267392   2.430  -0.041  13.749 -2.6748 -0.5745 -3.0208
15301TIP3   OH267393   2.433   4.128   4.125  0.1501  0.2207 -0.3926
15301TIP3    H167394   2.440   4.165   4.213 -1.9353  1.8804 -0.8843
15301TIP3    H267395   2.495   4.055   4.125  1.8181  1.5623  1.7302
15302TIP3   OH267396   4.886   5.587   0.887 -0.0849 -0.1330  0.1382
15302TIP3    H167397   4.815   5.528   0.913  0.5276 -1.6742 -1.5205
15302TIP3    H267398   4.964   5.533   0.892  0.6404  0.8579 -0.3726
15303TIP3   OH267399   4.767   1.590  13.369  0.2753 -0.0086  0.7045
15303TIP3    H167400   4.809   1.508  13.396  0.4297 -0.0739  0.2677
15303TIP3    H267401   4.697   1.604  13.434 -0.7145 -1.2702 -0.0633
15304TIP3   OH267402   3.732   0.166   0.780  0.5770  0.1510  0.4317
15304TIP3    H167403   3.689   0.127   0.704  1.1866  1.4918 -0.6088
15304TIP3    H267404   3.701   0.114   0.854 -2.2931  0.6344 -0.3773
15305TIP3   OH267405   5.823   5.331  17.145  0.2332 -0.2854 -0.1722
15305TIP3    H167406   5.913   5.312  17.118 -0.0184 -0.1585 -1.1141
15305TIP3    H267407   5.772   5.330  17.064 -0.1586  2.3122  0.0023
15306TIP3   OH267408   2.227   5.162  10.919  0.0506 -0.0702 -0.2070
15306TIP3    H167409   2.231   5.127  10.830 -0.7473  0.1001 -0.3119
15306TIP3    H267410   2.140   5.138  10.951  1.1452 -2.1094  1.3663
15307TIP3   OH267411   0.495   6.204   1.961  0.0073 -0.4304 -0.6721
15307TIP3    H167412   0.503   6.128   2.020  0.1524 -1.5151 -2.0654
15307TIP3    H267413   0.413   6.246   1.988 -0.4945 -1.5472 -0.3940
15308TIP3   OH267414   2.644   4.061   4.529 -0.2301  0.4344  0.9263
15308TIP3    H167415   2.621   4.151   4.554  0.7846  0.6628  1.0593
15308TIP3    H267416   2.674   4.068   4.438  1.3371  0.4884  1.4336
15309TIP3   OH267417   1.314   2.252   5.493  0.3727 -0.0210 -0.4222
15309TIP3    H167418   1.305   2.343   5.465 -0.4762  0.6540  1.9381
15309TIP3    H267419   1.228   2.214   5.479 -0.1663  0.4260  1.5561
15310TIP3   OH267420   1.745   2.925   3.616 -0.7610  0.0871 -0.2266
15310TIP3    H167421   1.742   2.859   3.685 -2.2850 -1.1085 -1.3894
15310TIP3    H267422   1.753   3.008   3.663  0.2409 -0.8418  1.2946
15311TIP3   OH267423   0.075   0.768  11.372 -0.6495 -0.0005  0.3274
15311TIP3    H167424   0.111   0.822  11.443  0.4334 -2.6569  1.8714
15311TIP3    H267425  -0.019   0.763  11.392 -0.5048  0.0344  1.0493
15312TIP3   OH267426   0.020   2.382  12.943 -0.5019 -0.3084  0.4082
15312TIP3    H167427   0.095   2.440  12.957 -0.6121  0.6959 -2.7757
15312TIP3    H267428   0.058   2.302  12.905 -0.6603 -1.3274  2.3106
15313TIP3   OH267429   3.163   3.536   5.188 -0.3656  0.2086 -0.1488
15313TIP3    H167430   3.244   3.582   5.210  0.1003  0.1570 -1.6540
15313TIP3    H267431   3.191   3.446   5.170 -0.4645  0.5816 -2.3567
15314TIP3   OH267432   2.050   3.191   5.590 -1.1785  0.7224 -0.4212
15314TIP3    H167433   2.117   3.128   5.562 -1.0090  0.5331  0.4199
15314TIP3    H267434   2.036   3.246   5.513 -0.4979  0.3777 -0.7958
15315TIP3   OH267435   1.686   0.563   2.951  0.2633  0.3045 -0.4197
15315TIP3    H167436   1.694   0.468   2.952 -0.1032  0.2707 -0.5970
15315TIP3    H267437   1.760   0.593   2.898  0.8812  0.1746  0.3621
15316TIP3   OH267438   5.369   3.422  17.281 -0.0978  0.0134  0.0347
15316TIP3    H167439   5.369   3.400  17.375  0.7269 -0.0136  0.0250
15316TIP3    H267440   5.413   3.348  17.240 -0.0041  0.2688 -0.3225
15317TIP3   OH267441   2.138   5.880  11.481 -0.1920  0.0209  0.2040
15317TIP3    H167442   2.148   5.954  11.542 -0.4627  1.1441 -1.0975
15317TIP3    H267443   2.121   5.921  11.397  1.4278 -1.4741 -0.8915
15318TIP3   OH267444   3.139   6.648  12.903 -0.0548 -0.1602  0.5482
15318TIP3    H167445   3.078   6.717  12.930  0.1542 -0.0684  0.7899
15318TIP3    H267446   3.103   6.568  12.942 -0.4323 -0.2272  0.0606
15319TIP3   OH267447   0.239   4.904   2.490 -0.1233 -0.0497  0.1445
15319TIP3    H167448   0.195   4.861   2.417 -0.6864 -0.8084  0.9130
15319TIP3    H267449   0.282   4.980   2.452 -2.4513  0.9357 -0.5553
15320TIP3   OH267450   3.898   2.002   4.028  0.4199  0.0919  0.0153
15320TIP3    H167451   3.872   2.094   4.030 -0.3161  0.0103 -2.6832
15320TIP3    H267452   3.817   1.955   4.007  1.8692 -0.4771 -5.1953
15321TIP3   OH267453   5.868   6.416  15.578 -0.3115 -0.7916  0.6509
15321TIP3    H167454   5.927   6.476  15.531  0.2369  0.4869  2.8856
15321TIP3    H267455   5.849   6.348  15.515  3.5779 -1.2353 -0.2169
15322TIP3   OH267456   5.171   1.215   3.824  0.5730  0.4296  0.7432
15322TIP3    H167457   5.132   1.282   3.768  1.3795  0.3861  0.1216
15322TIP3    H267458   5.245   1.258   3.865  0.0485  0.4256  1.6991
15323TIP3   OH267459   1.829   2.275   2.255  1.0268 -0.5233  0.2235
15323TIP3    H167460   1.910   2.235   2.224  0.4400 -1.0986 -0.6008
15323TIP3    H267461   1.809   2.342   2.190  0.8255 -0.4078  0.4035
15324TIP3   OH267462   1.445   2.043  16.865 -0.7934  0.3534  0.1939
15324TIP3    H167463   1.369   2.087  16.902 -0.2893  0.2794  1.3479
15324TIP3    H267464   1.467   1.975  16.929  0.0014  0.1228 -0.3120
15325TIP3   OH267465   2.770   3.989   3.097  0.4079  0.2593  0.2130
15325TIP3    H167466   2.717   3.978   3.176  1.6746 -0.0716  1.0211
15325TIP3    H267467   2.769   3.902   3.056  0.0461  0.3384  0.0545
15326TIP3   OH267468   1.809   3.802   2.862 -0.1179 -0.1408 -0.0089
15326TIP3    H167469   1.896   3.816   2.899 -1.0552  2.1209  1.4398
15326TIP3    H267470   1.799   3.707   2.859  1.5429 -0.4047  1.8760
15327TIP3   OH267471   1.886   4.630  15.430  0.0896 -0.0921  0.4245
15327TIP3    H167472   1.818   4.587  15.481 -0.3859  1.8958  1.5493
15327TIP3    H267473   1.959   4.568  15.429 -1.1365 -1.5520  0.6312
15328TIP3   OH267474   0.707   2.251  11.855  0.0965  0.3076 -0.6350
15328TIP3    H167475   0.732   2.251  11.762  1.2132  0.2798 -0.3390
15328TIP3    H267476   0.765   2.315  11.896  1.3327 -1.4747  0.4847
15329TIP3   OH267477   4.491   5.301  13.797  0.3018 -0.2696 -0.2553
15329TIP3    H167478   4.430   5.248  13.745 -0.3837  1.7637 -1.6021
15329TIP3    H267479   4.544   5.347  13.732  1.2893  0.2283  0.8937
15330TIP3   OH267480   4.168   2.127   0.835  0.1637 -0.1852 -0.1518
15330TIP3    H167481   4.191   2.205   0.884  0.6177  0.2334 -1.0077
15330TIP3    H267482   4.077   2.109   0.858  0.3481  0.0518  0.7618
15331TIP3   OH267483   4.497   0.325  15.672  0.0448 -0.7264 -0.3456
15331TIP3    H167484   4.482   0.413  15.638  0.3097 -0.1724  0.9643
15331TIP3    H267485   4.571   0.334  15.733 -1.1905 -1.4675  1.3120
15332TIP3   OH267486   2.138   3.542   3.550  0.2294  0.0696 -0.0347
15332TIP3    H167487   2.209   3.483   3.524 -0.3025  0.1376 -1.7072
15332TIP3    H267488   2.180   3.627   3.563  0.2811  0.4104 -2.2646
15333TIP3   OH267489   4.323   0.802   2.579  0.1951  0.4202  0.3834
15333TIP3    H167490   4.320   0.868   2.648  1.5456  1.3212 -0.3743
15333TIP3    H267491   4.306   0.852   2.498  0.5923 -0.2652 -0.1259
15334TIP3   OH267492   0.377   0.213   2.241  0.0602  0.4402  0.5974
15334TIP3    H167493   0.394   0.152   2.169 -1.5227 -1.7555  2.0169
15334TIP3    H267494   0.464   0.248   2.263  0.8101 -0.2586 -1.1231
15335TIP3   OH267495   3.258   0.145  11.702 -0.0470 -0.2513  0.0866
15335TIP3    H167496   3.284   0.116  11.789  0.9316 -3.1904 -1.1140
15335TIP3    H267497   3.175   0.100  11.686  0.1942 -0.3784 -0.8316
15336TIP3   OH267498   1.372   3.598   4.140 -0.0757  0.1771 -0.9242
15336TIP3    H167499   1.338   3.527   4.086 -0.9449 -1.1183  1.2691
15336TIP3    H267500   1.296   3.631   4.188  0.7096  1.1586 -0.3157
15337TIP3   OH267501   0.627   4.893   6.024 -0.3389 -0.3233  0.4009
15337TIP3    H167502   0.597   4.961   5.965 -0.1097 -0.7086 -0.1697
15337TIP3    H267503   0.613   4.928   6.112  1.7653  1.3384  0.1136
15338TIP3   OH267504   6.038   6.696   2.549  1.0902  0.1623  0.1328
15338TIP3    H167505   6.076   6.612   2.572  0.1026  0.0895  1.5557
15338TIP3    H267506   5.999   6.728   2.630  0.1259  1.2907 -0.7535
15339TIP3   OH267507   6.216   5.811   4.789 -0.5067 -0.1666  0.4534
15339TIP3    H167508   6.197   5.903   4.807  0.1260 -0.2296  1.4787
15339TIP3    H267509   6.264   5.812   4.705 -2.5169  0.2222 -0.7181
15340TIP3   OH267510   0.940   2.459   0.909 -0.0649  1.2588  0.5519
15340TIP3    H167511   0.925   2.483   1.000  1.0876  1.0828  0.7873
15340TIP3    H267512   0.854   2.433   0.876  0.1068 -2.0838  2.5597
15341TIP3   OH267513   6.244   1.288  15.160 -0.1573  0.0653  0.0184
15341TIP3    H167514   6.185   1.332  15.222  0.3294  0.3124  0.3134
15341TIP3    H267515   6.312   1.353  15.142 -1.0433  0.5200 -1.8855
15342TIP3   OH267516   0.084   2.609  16.958 -0.1356 -0.4307 -0.1030
15342TIP3    H167517   0.021   2.667  16.914  0.2774  1.3118  1.5789
15342TIP3    H267518   0.041   2.585  17.040  1.0743  0.1629  0.7164
15343TIP3   OH267519   0.694   2.994   3.301  0.0863 -0.0254 -0.3839
15343TIP3    H167520   0.755   2.976   3.230  0.4084  0.8055 -0.3285
15343TIP3    H267521   0.737   2.960   3.379  0.2669  0.1287 -0.4155
15344TIP3   OH267522   0.935   1.943   4.095 -0.4716  0.3192  0.3079
15344TIP3    H167523   1.011   1.984   4.055  0.2074 -1.0205  0.1842
15344TIP3    H267524   0.875   1.927   4.022  0.2038 -0.9128  0.0100
15345TIP3   OH267525   6.088   1.786  14.004 -0.4687  0.7596 -0.0869
15345TIP3    H167526   6.165   1.789  14.060  1.3625 -0.5782 -2.4581
15345TIP3    H267527   6.123   1.778  13.915 -3.3283  0.8918 -1.2789
15346TIP3   OH267528   6.546   3.912  10.740  0.2724 -0.7194 -0.1353
15346TIP3    H167529   6.617   3.966  10.775  0.1572 -1.2072  0.8620
15346TIP3    H267530   6.466   3.959  10.765  0.2257 -0.1741 -1.2500
15347TIP3   OH267531   2.444   5.643   5.768  0.0053 -0.1443 -0.0838
15347TIP3    H167532   2.392   5.584   5.823  1.0452 -2.0667 -1.1221
15347TIP3    H267533   2.521   5.664   5.821  1.3156 -2.4945 -0.9741
15348TIP3   OH267534   1.402   6.805  13.996  0.1035 -0.2497 -0.1398
15348TIP3    H167535   1.381   6.713  13.981  1.3905 -0.7579  1.0523
15348TIP3    H267536   1.381   6.820  14.088 -1.5190  1.0638 -0.7082
15349TIP3   OH267537   4.050   3.692  16.134  0.3965 -0.1770  0.6944
15349TIP3    H167538   4.051   3.788  16.140  0.7948 -0.2370  1.6561
15349TIP3    H267539   3.965   3.671  16.094  1.2776  0.6926 -1.6951
15350TIP3   OH267540   4.001   4.353  16.949 -0.3232 -0.5517 -0.1872
15350TIP3    H167541   4.079   4.306  16.922  0.5429  1.6978 -1.7358
15350TIP3    H267542   4.029   4.406  17.024 -0.1784  0.7803 -1.1763
15351TIP3   OH267543   6.450   1.980   3.627 -0.1179  0.4908  0.0142
15351TIP3    H167544   6.393   1.936   3.563 -1.3390  1.8258  0.1631
15351TIP3    H267545   6.395   1.991   3.704  1.1227 -0.4266  1.0361
15352TIP3   OH267546   3.346   2.977   5.491 -0.3611  0.1819  0.1543
15352TIP3    H167547   3.267   2.999   5.540 -1.2801  1.5456 -1.8511
15352TIP3    H267548   3.314   2.943   5.407  1.1295  2.8996 -1.6056
15353TIP3   OH267549   4.508   6.442   2.063  0.5532  1.3376 -0.1242
15353TIP3    H167550   4.570   6.435   2.135 -0.2028  1.2261  0.5243
15353TIP3    H267551   4.476   6.352   2.050 -0.9510  1.7177  0.8758
15354TIP3   OH267552   3.031   5.447   1.004  0.0912 -0.3831 -0.0824
15354TIP3    H167553   3.045   5.447   1.099 -0.3019  1.1867 -0.0038
15354TIP3    H267554   3.087   5.518   0.972 -0.8292  0.0039 -0.8555
15355TIP3   OH267555   0.192   5.488   6.893  0.4618 -0.1688 -0.6039
15355TIP3    H167556   0.179   5.498   6.799 -2.4517 -0.5831 -0.2932
15355TIP3    H267557   0.103   5.492   6.930  1.4550 -1.1793  1.9973
15356TIP3   OH267558   1.798   4.927   1.486 -0.3946 -0.2652  0.6853
15356TIP3    H167559   1.777   4.996   1.549  0.2707  0.5223  0.0358
15356TIP3    H267560   1.849   4.864   1.537 -2.3867 -1.1029  1.7058
15357TIP3   OH267561   5.048   3.263  16.164  0.4903  0.3984  0.2692
15357TIP3    H167562   5.113   3.290  16.098  0.3403 -1.3867 -0.6379
15357TIP3    H267563   5.101   3.231  16.238  0.6521  0.8898  0.3679
15358TIP3   OH267564   0.174   1.170   5.872 -0.1829  0.0472 -0.4957
15358TIP3    H167565   0.258   1.189   5.914  0.3240 -3.0241  0.0108
15358TIP3    H267566   0.113   1.161   5.945 -0.3301 -0.5144 -0.6852
15359TIP3   OH267567   0.932   1.067   0.509  0.1405 -0.2657 -0.0454
15359TIP3    H167568   0.885   1.039   0.431 -0.4169  0.5280 -0.0021
15359TIP3    H267569   0.886   1.146   0.538  0.1008 -0.7530  1.2925
15360TIP3   OH267570   6.515   4.588  11.476  0.3981  0.2868  0.1914
15360TIP3    H167571   6.582   4.645  11.511 -0.0940  1.7372 -1.1349
15360TIP3    H267572   6.432   4.625  11.508  0.0930  0.1991 -0.4687
15361TIP3   OH267573   5.116   4.081   2.006  0.1671  0.7602  0.6731
15361TIP3    H167574   5.199   4.126   2.022  0.3878  0.5642  0.0605
15361TIP3    H267575   5.078   4.128   1.932  0.9331 -0.7857 -0.7309
15362TIP3   OH267576   0.912   5.956   1.433  0.2981 -0.2139 -0.4762
15362TIP3    H167577   0.971   5.947   1.358  0.4518 -0.7204 -0.3007
15362TIP3    H267578   0.952   6.025   1.487  0.5645 -0.3349 -0.5152
15363TIP3   OH267579   0.170   5.248   1.847  0.3010 -0.4723 -0.0114
15363TIP3    H167580   0.216   5.174   1.886  0.3279 -1.1141 -1.2198
15363TIP3    H267581   0.183   5.320   1.909  0.3972 -1.4364  1.0992
15364TIP3   OH267582   2.768   5.184   0.983 -0.1479 -0.1623 -0.2053
15364TIP3    H167583   2.766   5.249   1.054 -0.6416 -0.7516  0.3372
15364TIP3    H267584   2.861   5.171   0.965 -0.0605  1.0825 -0.6855
15365TIP3   OH267585   3.079   4.028   4.984 -0.0638 -0.3922 -0.0235
15365TIP3    H167586   3.125   3.945   4.972  2.6295  1.1536 -0.9813
15365TIP3    H267587   3.053   4.053   4.895  1.8871  1.2343 -0.1836
15366TIP3   OH267588   0.607   1.869  14.852 -0.0422 -0.1928  0.1901
15366TIP3    H167589   0.539   1.870  14.785  0.6388 -0.5973 -0.5109
15366TIP3    H267590   0.629   1.961  14.866 -0.6998 -0.0666  0.3842
15367TIP3   OH267591   5.557   3.952  13.040  0.4948  0.4909 -0.0920
15367TIP3    H167592   5.532   3.978  13.128 -2.1812  0.8356 -0.9109
15367TIP3    H267593   5.589   4.033  12.999 -2.3542  1.3281 -0.7782
15368TIP3   OH267594   4.118   4.310  14.476  0.0193  0.6282 -0.1167
15368TIP3    H167595   4.029   4.307  14.512  0.0069  0.0936 -0.1780
15368TIP3    H267596   4.140   4.403  14.473 -0.0412  0.6971  1.1374
15369TIP3   OH267597   3.708   4.129  17.011  0.4925  0.2072 -0.4229
15369TIP3    H167598   3.650   4.086  16.948 -0.8960 -2.2980  2.4311
15369TIP3    H267599   3.654   4.198  17.050  0.8419  0.7260 -0.8528
15370TIP3   OH267600   2.460   4.651  14.586  0.3416 -0.1230  0.1220
15370TIP3    H167601   2.541   4.625  14.630  0.8975  0.9098 -0.2730
15370TIP3    H267602   2.484   4.656  14.493 -0.0438  0.6429  0.0560
15371TIP3   OH267603   0.845   4.899   4.833 -0.2928  0.1011  0.2218
15371TIP3    H167604   0.842   4.922   4.740  2.8857 -0.3130 -0.0468
15371TIP3    H267605   0.790   4.821   4.840 -1.2259  0.6184 -1.1588
15372TIP3   OH267606   3.872   3.425  14.904 -0.0861  0.5666  0.1160
15372TIP3    H167607   3.882   3.427  14.809 -2.1865 -0.8275 -0.1684
15372TIP3    H267608   3.794   3.370  14.919  1.5309 -1.1337  2.7239
15373TIP3   OH267609   1.104   0.781   1.363  0.7988 -0.2514 -0.0674
15373TIP3    H167610   1.192   0.757   1.391  1.2854  1.0225 -0.4592
15373TIP3    H267611   1.102   0.760   1.270  1.6244  2.2112 -0.6893
15374TIP3   OH267612   0.438   3.259  17.037 -0.1402  0.0269  0.1107
15374TIP3    H167613   0.431   3.205  17.116  0.4092  0.9659  0.8051
15374TIP3    H267614   0.515   3.313  17.052 -0.6814  1.0031 -0.5980
15375TIP3   OH267615   0.480   3.720   3.254 -0.3181 -0.4196  0.1837
15375TIP3    H167616   0.548   3.725   3.321 -0.1087  1.9638 -0.1756
15375TIP3    H267617   0.401   3.752   3.298 -0.2738  0.7633 -0.5858
15376TIP3   OH267618   1.744   5.407  11.619  0.6145  0.3396 -0.0662
15376TIP3    H167619   1.798   5.343  11.572  0.2956 -0.1207  0.1785
15376TIP3    H267620   1.715   5.468  11.552 -1.6713 -1.5810 -0.9024
15377TIP3   OH267621   5.262   4.519   1.994 -0.4552 -0.6388  0.1309
15377TIP3    H167622   5.274   4.567   2.075 -0.9609 -0.8891  0.3550
15377TIP3    H267623   5.314   4.567   1.929 -0.6547 -0.0182  0.4343
15378TIP3   OH267624   3.421   0.720  12.370  0.1332  0.4449 -0.0117
15378TIP3    H167625   3.398   0.779  12.299 -0.2712  0.6395  0.2779
15378TIP3    H267626   3.431   0.634  12.328 -1.5040  0.2798 -0.0963
15379TIP3   OH267627   5.429   4.897  15.005  0.7033  0.2639  0.1877
15379TIP3    H167628   5.451   4.814  14.963 -0.1995 -0.2038  0.6318
15379TIP3    H267629   5.467   4.964  14.948  0.4995 -0.4153 -0.7518
15380TIP3   OH267630   1.190   3.247  15.397 -0.5628 -0.6221 -0.2831
15380TIP3    H167631   1.155   3.158  15.407 -1.6699 -0.0639  0.9790
15380TIP3    H267632   1.135   3.301  15.454 -0.2132  0.9630 -1.4230
15381TIP3   OH267633   5.575   3.228  13.759  0.2777 -0.3626 -0.2747
15381TIP3    H167634   5.537   3.272  13.835  1.5372 -1.4607  1.0109
15381TIP3    H267635   5.608   3.145  13.794  2.4616 -0.1111 -1.6738
15382TIP3   OH267636   6.160   2.456  12.745  0.1804 -0.2048 -0.0999
15382TIP3    H167637   6.159   2.425  12.654 -0.4796  0.5209 -0.3421
15382TIP3    H267638   6.067   2.456  12.771  0.4274 -1.1013  0.8094
15383TIP3   OH267639   6.768   1.471  12.906  0.0257 -0.2993 -0.1094
15383TIP3    H167640   6.737   1.416  12.978 -0.1772  1.3050  1.0576
15383TIP3    H267641   6.860   1.445  12.893  0.7294  0.9217  2.2278
15384TIP3   OH267642   4.975   1.007  11.673 -0.5228 -0.7149 -0.0251
15384TIP3    H167643   5.021   0.942  11.726  0.0098  0.2646  0.7329
15384TIP3    H267644   5.033   1.023  11.599  0.7229  1.0101  1.2656
15385TIP3   OH267645   4.729   1.429   0.305 -0.0849 -0.0206  0.1688
15385TIP3    H167646   4.687   1.513   0.290  0.1413  0.3041  1.3444
15385TIP3    H267647   4.691   1.397   0.387 -0.6821 -1.3779 -0.6265
15386TIP3   OH267648   4.093   4.860  16.162 -0.3293  0.2878 -0.1396
15386TIP3    H167649   4.120   4.898  16.079 -1.0153  1.3066  0.0961
15386TIP3    H267650   4.123   4.769  16.158  0.6076  0.6346 -1.0369
15387TIP3   OH267651   1.918   1.954  16.601  0.5129  0.0753  0.6770
15387TIP3    H167652   1.830   1.989  16.613  0.5777  0.8226 -0.9056
15387TIP3    H267653   1.904   1.861  16.581 -0.0532  0.5610 -1.3424
15388TIP3   OH267654   4.324   5.463   2.890 -0.2385  0.3474 -0.7515
15388TIP3    H167655   4.239   5.421   2.902 -0.7735  2.1022  2.0817
15388TIP3    H267656   4.387   5.396   2.916 -0.9152 -0.0393 -0.0687
15389TIP3   OH267657   0.228   1.251  15.915  0.1634 -0.5469 -0.0406
15389TIP3    H167658   0.181   1.195  15.853  1.0725 -2.3464  0.8677
15389TIP3    H267659   0.292   1.193  15.956 -0.3053  0.6658  2.4797
15390TIP3   OH267660   2.414   4.596   2.538  0.1655 -0.0308 -0.3737
15390TIP3    H167661   2.454   4.538   2.473  0.9625 -0.2329  0.2795
15390TIP3    H267662   2.406   4.542   2.617  0.4165  0.5854  0.0830
15391TIP3   OH267663   2.179   3.847   5.510 -0.2600 -0.5339 -0.1321
15391TIP3    H167664   2.208   3.910   5.576  1.6271  1.7150 -2.9670
15391TIP3    H267665   2.206   3.762   5.545 -2.3310  0.2384  3.4941
15392TIP3   OH267666   0.174   3.333  13.620 -0.0556 -0.3386 -0.4240
15392TIP3    H167667   0.160   3.330  13.715  0.5936 -0.7220 -0.3367
15392TIP3    H267668   0.174   3.427  13.599  0.3491 -0.2315  0.0409
15393TIP3   OH267669   5.806   1.927  12.235 -0.5038  0.6849  0.3033
15393TIP3    H167670   5.820   1.893  12.324 -0.9886  0.5302  0.3183
15393TIP3    H267671   5.757   1.858  12.190  0.6507  0.3086 -0.4064
15394TIP3   OH267672   1.553   5.581   2.714 -0.1059 -0.0970 -0.1110
15394TIP3    H167673   1.492   5.655   2.709  0.4745  0.3458 -0.6744
15394TIP3    H267674   1.509   5.511   2.665 -0.8285 -0.2534  0.7487
15395TIP3   OH267675   0.342   4.739  17.059  0.2755  0.1207 -0.4301
15395TIP3    H167676   0.409   4.718  17.124  0.3463  1.0557 -0.1892
15395TIP3    H267677   0.387   4.738  16.975  0.8491  1.7852 -0.1691
15396TIP3   OH267678   3.865   3.800  13.738  0.2774  0.1062  0.4209
15396TIP3    H167679   3.780   3.771  13.772  0.0350 -0.0973 -0.3447
15396TIP3    H267680   3.885   3.737  13.668  1.7271 -0.7085  1.5257
15397TIP3   OH267681   5.267   6.352   2.925  0.1870  0.4366  0.3842
15397TIP3    H167682   5.210   6.418   2.886  0.5091  1.0807  0.9969
15397TIP3    H267683   5.353   6.393   2.930  0.5257 -0.2412  0.2240
15398TIP3   OH267684   4.907   6.059  14.545 -0.6645  0.0505  0.4640
15398TIP3    H167685   4.980   5.999  14.560  0.0025  1.1506  1.7098
15398TIP3    H267686   4.927   6.099  14.460 -1.2360 -1.6385 -0.4833
15399TIP3   OH267687   6.656   4.111  15.557 -0.9073  0.1786 -0.1068
15399TIP3    H167688   6.568   4.125  15.590 -1.5845  1.3242 -2.2906
15399TIP3    H267689   6.712   4.115  15.635 -2.7292 -0.2276  1.2593
15400TIP3   OH267690   3.277   2.091  15.068  0.4150 -0.4558 -0.1961
15400TIP3    H167691   3.339   2.023  15.095 -0.7540 -1.2159  0.5823
15400TIP3    H267692   3.201   2.043  15.036 -0.7423  0.4978  1.0880
15401TIP3   OH267693   3.852   2.616  12.005 -0.2802  0.4805  0.5460
15401TIP3    H167694   3.903   2.607  12.086  0.3765 -2.0847 -0.1132
15401TIP3    H267695   3.829   2.526  11.981 -2.6323  1.4062 -0.7726
15402TIP3   OH267696   6.370   4.712   4.454 -0.2457  0.1818 -0.0855
15402TIP3    H167697   6.283   4.743   4.427 -1.1363  0.6770  3.2273
15402TIP3    H267698   6.353   4.635   4.508  1.2010  1.7687  2.6978
15403TIP3   OH267699   5.784   6.020   5.568  0.1138 -0.4108 -0.7478
15403TIP3    H167700   5.797   6.050   5.658 -5.4595 -1.3290  0.5688
15403TIP3    H267701   5.799   5.926   5.571 -0.1366 -0.4521 -0.7510
15404TIP3   OH267702   6.447   2.328   0.474 -0.5074  0.1269  0.8623
15404TIP3    H167703   6.407   2.370   0.397 -0.0383 -2.0140 -0.5787
15404TIP3    H267704   6.405   2.371   0.548 -0.2670  2.9186 -0.5576
15405TIP3   OH267705   6.764   4.364  15.819 -0.1432 -0.0716  0.4949
15405TIP3    H167706   6.842   4.327  15.777 -0.1667 -0.6927  0.9931
15405TIP3    H267707   6.743   4.441  15.766 -0.1289 -0.8037 -0.5774
15406TIP3   OH267708   5.464   4.523   6.509 -0.0916 -0.0126 -1.0129
15406TIP3    H167709   5.558   4.505   6.516 -0.2856 -0.1527  1.6731
15406TIP3    H267710   5.421   4.443   6.537 -1.0085  0.7073 -0.3208
15407TIP3   OH267711   2.102   6.582  15.855  0.6326  0.0412  0.3050
15407TIP3    H167712   2.101   6.652  15.919  0.0288 -0.8886  1.3409
15407TIP3    H267713   2.194   6.574  15.829  1.3402 -1.3246  3.0528
15408TIP3   OH267714   6.497   6.714  11.823 -0.2013  0.1419 -0.2457
15408TIP3    H167715   6.579   6.710  11.773 -0.2454 -0.4661 -0.2767
15408TIP3    H267716   6.510   6.652  11.894 -1.1724 -1.0172 -1.0573
15409TIP3   OH267717   6.187   1.520  16.052 -0.1468 -0.2460  0.6571
15409TIP3    H167718   6.146   1.546  15.970  0.4600  2.6928  1.2301
15409TIP3    H267719   6.279   1.504  16.028  0.3967  2.1682  1.0006
15410TIP3   OH267720   5.406   5.549  16.561  0.2772  0.5187 -0.6377
15410TIP3    H167721   5.409   5.556  16.466  0.3189 -1.1511 -0.7772
15410TIP3    H267722   5.494   5.521  16.585 -0.0458 -0.1265 -0.2065
15411TIP3   OH267723   4.540   5.718   5.422 -0.1796 -0.1757 -0.3505
15411TIP3    H167724   4.542   5.734   5.517 -1.3554 -0.8330 -0.2168
15411TIP3    H267725   4.628   5.685   5.402 -1.2039 -4.0490  1.2312
15412TIP3   OH267726   1.475   5.641  12.418 -0.0053 -0.3226  0.2686
15412TIP3    H167727   1.396   5.675  12.461 -0.2968  0.9727 -1.2302
15412TIP3    H267728   1.443   5.568  12.364 -0.3971  0.9112 -1.2113
15413TIP3   OH267729   6.522   2.872  14.377 -0.0598  0.1595  0.4724
15413TIP3    H167730   6.429   2.851  14.368 -0.2532  0.7581  1.0764
15413TIP3    H267731   6.560   2.847  14.292 -0.8975  0.5830 -0.0375
15414TIP3   OH267732   5.728   4.039   4.040 -0.0484  0.3223  0.4256
15414TIP3    H167733   5.713   4.133   4.047 -0.2475  0.1483  2.8537
15414TIP3    H267734   5.669   4.000   4.105 -0.7631 -1.5688 -1.3130
15415TIP3   OH267735   6.739   2.745   1.269 -0.3198  0.1606 -0.4552
15415TIP3    H167736   6.786   2.828   1.254 -0.2916  0.0321 -1.0747
15415TIP3    H267737   6.803   2.677   1.247 -0.5611 -0.0241 -0.5814
15416TIP3   OH267738   3.036   5.018   2.207 -0.0869 -0.1985 -0.1117
15416TIP3    H167739   3.054   5.035   2.299  0.0291  2.0550 -0.5369
15416TIP3    H267740   2.946   5.048   2.194  0.3968  0.8544 -1.0707
15417TIP3   OH267741   2.252   1.857   3.452 -0.0311  0.7278 -0.5288
15417TIP3    H167742   2.186   1.878   3.386 -0.9095 -0.4611 -0.0584
15417TIP3    H267743   2.216   1.892   3.534  0.1739  0.5606 -0.3670
15418TIP3   OH267744   2.784   4.331   0.132 -0.4478  0.0543 -0.8827
15418TIP3    H167745   2.786   4.424   0.113 -0.5667  0.5498  1.4363
15418TIP3    H267746   2.861   4.315   0.187 -1.0829 -0.9870 -0.2714
15419TIP3   OH267747   0.575   6.322   3.372  0.3772  0.6261  0.3517
15419TIP3    H167748   0.585   6.227   3.386 -1.0969  0.4515  0.3113
15419TIP3    H267749   0.534   6.329   3.286 -0.3787  1.2527  0.7541
15420TIP3   OH267750   2.523   0.906   2.443  0.1726  0.2628  0.3963
15420TIP3    H167751   2.507   0.828   2.390  1.3735  0.2151  0.0964
15420TIP3    H267752   2.508   0.877   2.533 -1.6252  0.2824  0.1249
15421TIP3   OH267753   6.430   2.385   3.193 -0.7207 -0.1079 -0.3810
15421TIP3    H167754   6.426   2.371   3.098  1.4687  1.1364 -0.6909
15421TIP3    H267755   6.483   2.313   3.226  0.1396  0.5159 -0.3754
15422TIP3   OH267756   6.020   2.308  15.131 -0.1323 -0.6510 -0.0117
15422TIP3    H167757   6.029   2.316  15.036  0.7650  0.8193  0.1611
15422TIP3    H267758   6.097   2.257  15.158 -1.5489 -2.9696 -0.2854
15423TIP3   OH267759   5.112   5.859  14.141 -0.7089 -0.2979  0.1258
15423TIP3    H167760   5.027   5.899  14.126 -0.6545  0.2373  1.1702
15423TIP3    H267761   5.118   5.789  14.076 -0.8595  1.2894 -1.6294
15424TIP3   OH267762   6.288   1.306  17.173  0.2318  0.1617 -0.1169
15424TIP3    H167763   6.322   1.392  17.198  0.3449 -0.2738  1.2657
15424TIP3    H267764   6.337   1.283  17.094 -0.3532  1.7089 -0.9506
15425TIP3   OH267765   5.722   5.442  16.085 -0.3704 -0.7536 -0.2712
15425TIP3    H167766   5.767   5.406  16.009 -1.5047  2.6724 -2.6783
15425TIP3    H267767   5.631   5.449  16.059 -0.6152  1.3956  1.0400
15426TIP3   OH267768   6.606   5.476  12.904  0.0154 -0.0546 -0.2722
15426TIP3    H167769   6.643   5.393  12.936  0.6559  0.6388  0.8145
15426TIP3    H267770   6.552   5.507  12.976 -0.4961  0.3080 -0.8096
15427TIP3   OH267771   5.183   1.207   3.115  0.8105 -0.1440 -0.0947
15427TIP3    H167772   5.150   1.128   3.158  1.7449 -0.9728 -0.8500
15427TIP3    H267773   5.111   1.270   3.121  0.1277 -0.9785  0.7070
15428TIP3   OH267774   1.341   1.629  13.435  0.8666 -0.3184  0.3889
15428TIP3    H167775   1.246   1.631  13.422  0.6002 -0.2675  2.2314
15428TIP3    H267776   1.368   1.542  13.405  0.2919 -0.2033 -0.4674
15429TIP3   OH267777   1.042   3.700  13.234  0.1332  0.1286 -0.4977
15429TIP3    H167778   1.018   3.672  13.146 -0.5707  1.2029 -0.6597
15429TIP3    H267779   0.978   3.768  13.256 -0.2913 -0.8063  1.2290
15430TIP3   OH267780   2.540   5.109   0.746 -0.1839  0.5996  0.4132
15430TIP3    H167781   2.593   5.075   0.817 -0.2194  0.7609  0.5185
15430TIP3    H267782   2.475   5.164   0.789 -1.0443 -0.3693  0.3675
15431TIP3   OH267783   0.190   6.340   2.857 -0.6408  0.3395 -0.3827
15431TIP3    H167784   0.096   6.331   2.873 -0.6574  0.8044 -0.2191
15431TIP3    H267785   0.205   6.434   2.853 -0.0758  0.2835  0.2548
15432TIP3   OH267786   2.287   6.363  11.699  0.6350 -0.0974 -0.5985
15432TIP3    H167787   2.312   6.339  11.788  0.7230  0.4545 -0.4715
15432TIP3    H267788   2.368   6.396  11.660  0.6611 -0.6127 -0.9744
15433TIP3   OH267789   0.513   4.843  13.429  0.9798 -0.1791 -0.0690
15433TIP3    H167790   0.557   4.873  13.349  1.4890 -0.6332  0.0331
15433TIP3    H267791   0.436   4.797  13.398  0.3315  0.9875 -0.2391
15434TIP3   OH267792   6.713   2.640  16.194 -0.0118  0.3982 -0.4448
15434TIP3    H167793   6.797   2.596  16.178  0.2854  1.1611 -0.9782
15434TIP3    H267794   6.695   2.689  16.114 -0.0885  1.6656  0.3383
15435TIP3   OH267795   6.444   1.389  16.964 -0.1642  0.1994  0.5378
15435TIP3    H167796   6.513   1.454  16.947 -0.3422  0.3649  0.4380
15435TIP3    H267797   6.369   1.420  16.912 -1.3307  1.7465  3.0121
15436TIP3   OH267798   3.753   5.493   5.987 -0.5100  0.0978 -0.4293
15436TIP3    H167799   3.692   5.421   5.970 -0.5119  0.1725 -0.7404
15436TIP3    H267800   3.789   5.475   6.074 -0.4241 -0.3397 -0.5575
15437TIP3   OH267801   3.889   0.708  12.051  0.3260 -0.8282 -0.4802
15437TIP3    H167802   3.843   0.759  11.984  1.7065  0.4579 -0.4799
15437TIP3    H267803   3.925   0.774  12.111  0.5445 -1.8896  0.5854
15438TIP3   OH267804   5.090   3.215   0.197  0.8775  0.8108  0.2394
15438TIP3    H167805   5.175   3.173   0.183  0.9505  1.1436 -0.3779
15438TIP3    H267806   5.100   3.263   0.279  0.4851 -1.1198  1.4399
15439TIP3   OH267807   4.658   1.154   5.401 -0.1294  0.2877 -0.5433
15439TIP3    H167808   4.627   1.197   5.480  0.0536 -0.4303 -0.0753
15439TIP3    H267809   4.615   1.069   5.401 -1.4569  0.9180 -2.1075
15440TIP3   OH267810   0.831   1.401   1.156 -0.2217  0.8861 -0.4553
15440TIP3    H167811   0.777   1.326   1.132 -1.3299  1.7253 -0.6164
15440TIP3    H267812   0.769   1.474   1.164  0.7452  1.6283  0.3910
15441TIP3   OH267813   0.394   4.113  12.549 -0.0271  0.0911 -0.2539
15441TIP3    H167814   0.439   4.032  12.574  0.3987 -0.2284 -2.0021
15441TIP3    H267815   0.407   4.171  12.624  0.3605 -1.1793  0.6830
15442TIP3   OH267816   2.308   1.934   0.442 -0.1471 -0.4933  0.2522
15442TIP3    H167817   2.244   1.896   0.382 -1.0612  0.5538  0.5343
15442TIP3    H267818   2.256   1.961   0.518  0.5147  1.0276  0.1792
15443TIP3   OH267819   6.494   4.206  14.902 -0.2434  0.1555  0.8150
15443TIP3    H167820   6.482   4.252  14.819 -1.8133  1.2706  1.6448
15443TIP3    H267821   6.495   4.113  14.878 -0.1289  0.4901 -0.5053
15444TIP3   OH267822   5.845   2.763   4.163 -0.4679  0.3313  0.1616
15444TIP3    H167823   5.860   2.765   4.257 -1.0792  0.3149  0.2605
15444TIP3    H267824   5.786   2.837   4.146 -0.5977  0.1549 -0.1646
15445TIP3   OH267825   0.403   5.647   5.451  0.0521 -0.3969 -0.1223
15445TIP3    H167826   0.366   5.586   5.515  1.3198  0.1655  1.1811
15445TIP3    H267827   0.363   5.731   5.473  0.2896 -0.2535 -0.2381
15446TIP3   OH267828   4.712   2.766  11.705 -0.4396 -0.2075  0.4517
15446TIP3    H167829   4.642   2.721  11.754 -1.8744  1.3908 -0.0735
15446TIP3    H267830   4.702   2.858  11.730  1.0823  0.1196 -0.1414
15447TIP3   OH267831   2.493   4.258   5.603 -0.1584 -0.1845 -0.4659
15447TIP3    H167832   2.556   4.250   5.674 -0.6672 -1.9751 -0.1709
15447TIP3    H267833   2.533   4.210   5.530 -1.2913 -1.6297 -0.1685
15448TIP3   OH267834   2.330   3.377   3.461 -0.0570  0.1700 -0.1482
15448TIP3    H167835   2.299   3.346   3.376  0.3830 -0.3626 -0.1167
15448TIP3    H267836   2.423   3.393   3.449  0.1690 -0.6660  0.4463
15449TIP3   OH267837   6.012   0.285  13.141  0.3013 -0.2700 -0.0463
15449TIP3    H167838   6.021   0.214  13.205 -0.8665  0.0623  0.5022
15449TIP3    H267839   6.034   0.245  13.057 -0.6596 -1.3747  0.2139
15450TIP3   OH267840   2.281   0.006   5.012  0.2996 -0.1586 -0.4631
15450TIP3    H167841   2.331   0.070   5.062  2.3504 -0.3406 -2.2427
15450TIP3    H267842   2.269  -0.067   5.072 -1.8161  1.7064  1.4914
15451TIP3   OH267843   6.510   5.781  11.406 -0.2109 -0.1711 -0.1478
15451TIP3    H167844   6.470   5.716  11.349 -0.6186 -2.6555  2.8373
15451TIP3    H267845   6.540   5.731  11.482  3.1361  2.5329  0.4534
15452TIP3   OH267846   2.161   3.915  14.070  0.3997  0.3170  1.1129
15452TIP3    H167847   2.121   3.980  14.128 -0.8959 -0.7053  1.3949
15452TIP3    H267848   2.249   3.947  14.055 -0.4146  2.4755  0.7268
15453TIP3   OH267849   0.753   3.370  14.027 -0.3153  0.3402 -0.2578
15453TIP3    H167850   0.727   3.304  13.963  1.4520 -1.4967  0.8451
15453TIP3    H267851   0.725   3.334  14.112 -0.3909  1.5671  0.2481
15454TIP3   OH267852   4.100   0.534  11.828 -0.5371 -0.0434  0.4439
15454TIP3    H167853   4.097   0.610  11.771  0.7653 -1.2311 -1.2535
15454TIP3    H267854   4.029   0.478  11.797 -0.7743 -0.0332  0.9600
15455TIP3   OH267855   6.463   3.488   4.646 -0.2278  0.9846  0.1292
15455TIP3    H167856   6.503   3.460   4.564  0.3833  2.6311 -0.1566
15455TIP3    H267857   6.449   3.407   4.695  0.4977  0.0970 -1.1004
15456TIP3   OH267858   0.783   4.074  13.980 -0.0855  0.5357  0.5043
15456TIP3    H167859   0.803   4.156  14.025  0.4774  0.0253  1.1804
15456TIP3    H267860   0.690   4.059  13.998 -0.7343  2.0713 -1.3200
15457TIP3   OH267861   3.145   1.178   5.720  0.1394 -0.4713 -1.2031
15457TIP3    H167862   3.075   1.124   5.755  1.0240 -0.8084  0.0845
15457TIP3    H267863   3.217   1.117   5.703  0.5446  0.0475 -1.3888
15458TIP3   OH267864   4.259   0.795  11.309  0.2271  0.2484 -0.6817
15458TIP3    H167865   4.240   0.767  11.220  1.7678  0.2546 -1.0235
15458TIP3    H267866   4.246   0.717  11.363 -0.5065  0.1928 -0.9454
15459TIP3   OH267867   0.250   4.285   5.809  0.3145  0.2528 -0.0052
15459TIP3    H167868   0.280   4.316   5.724 -0.5114 -0.3249 -0.5028
15459TIP3    H267869   0.233   4.365   5.859  0.4476  0.5872 -0.4988
15460TIP3   OH267870   5.019   5.361  14.297  0.0978 -0.5340 -0.3263
15460TIP3    H167871   5.092   5.337  14.240  1.9404  1.4657  1.1572
15460TIP3    H267872   4.991   5.447  14.266 -0.4070 -0.4604  0.3096
15461TIP3   OH267873   6.467   2.849   0.739  0.2832 -0.3065 -0.5033
15461TIP3    H167874   6.509   2.919   0.790 -0.8358  1.0179 -1.3736
15461TIP3    H267875   6.501   2.768   0.778  0.7271  0.6956  1.2576
15462TIP3   OH267876   3.274   4.805   1.774 -0.4326 -0.1220  0.1573
15462TIP3    H167877   3.260   4.859   1.696 -0.1109 -0.0859  0.1246
15462TIP3    H267878   3.205   4.832   1.834 -2.0786 -1.7369 -0.9516
15463TIP3   OH267879   2.765   4.059  15.956  0.0067 -0.6600 -0.5965
15463TIP3    H167880   2.820   4.036  15.881 -2.5854 -1.8642 -2.2007
15463TIP3    H267881   2.743   3.975  15.997  1.9064  0.0197  1.9486
15464TIP3   OH267882   0.246   2.809   2.799  0.6397 -0.5701 -0.0908
15464TIP3    H167883   0.208   2.865   2.732 -1.8828 -3.1686 -0.9322
15464TIP3    H267884   0.254   2.865   2.876 -0.8190  1.2320 -1.2209
15465TIP3   OH267885   3.802   5.083   5.922 -0.3132  0.1538  0.6800
15465TIP3    H167886   3.756   5.032   5.855 -2.6748 -0.7404  2.8884
15465TIP3    H267887   3.732   5.131   5.967  1.5004  2.7716  0.8594
15466TIP3   OH267888   3.123   4.795   0.265 -0.0466 -0.4298 -0.5608
15466TIP3    H167889   3.075   4.847   0.201 -0.4593 -1.4688 -1.0998
15466TIP3    H267890   3.207   4.841   0.275 -0.1040 -0.0907 -1.6121
15467TIP3   OH267891   3.924   3.140   1.706 -0.1468 -0.2059  0.0817
15467TIP3    H167892   3.930   3.210   1.771 -1.5113 -0.9437  1.0237
15467TIP3    H267893   3.878   3.180   1.632 -0.0812  0.1579  0.2356
15468TIP3   OH267894   6.498   2.592  11.562  0.3926  0.2796  0.1329
15468TIP3    H167895   6.526   2.654  11.629  0.9571 -0.4789  0.6169
15468TIP3    H267896   6.575   2.582  11.505  0.1990  0.2602 -0.1276
15469TIP3   OH267897   1.049   4.539  16.453  0.4397  0.1408  0.1459
15469TIP3    H167898   1.012   4.624  16.478 -0.4772 -0.0488 -0.5251
15469TIP3    H267899   1.143   4.555  16.446  0.2890  1.0689  0.1612
15470TIP3   OH267900   3.746   3.684  16.001 -0.2647 -0.0238 -0.1733
15470TIP3    H167901   3.721   3.595  15.974 -0.0571 -0.5487  1.3456
15470TIP3    H267902   3.682   3.741  15.958 -0.6035 -0.9276 -0.8892
15471TIP3   OH267903   2.104   4.264   4.622 -0.0519 -0.4323 -0.3501
15471TIP3    H167904   2.057   4.275   4.704  1.2282  0.7933  0.2321
15471TIP3    H267905   2.172   4.331   4.624 -0.2633 -0.1143 -2.6041
15472TIP3   OH267906   3.665   0.991   6.526  0.2504 -0.4357 -0.0975
15472TIP3    H167907   3.659   1.086   6.512 -0.0217  0.0891  3.1005
15472TIP3    H267908   3.579   0.966   6.559  0.4011 -1.7578 -0.6854
15473TIP3   OH267909   2.664   5.393  15.484 -0.3321 -0.0932  0.1243
15473TIP3    H167910   2.688   5.483  15.463 -2.3184  0.6352  0.8470
15473TIP3    H267911   2.673   5.387  15.579 -2.9123  0.2087  0.4209
15474TIP3   OH267912   5.315   5.780   3.195 -0.3515  0.1498 -0.1166
15474TIP3    H167913   5.260   5.803   3.120  1.5783  0.8065 -1.3546
15474TIP3    H267914   5.341   5.690   3.179 -0.8299 -0.0752  0.3421
15475TIP3   OH267915   2.413   3.913   2.128 -0.1788 -0.5619 -0.1305
15475TIP3    H167916   2.322   3.892   2.148 -0.1529 -1.2672 -0.7236
15475TIP3    H267917   2.464   3.846   2.175  0.0441 -0.1472  0.2323
15476TIP3   OH267918   2.818   5.860  14.055 -0.2307 -0.1773 -0.2005
15476TIP3    H167919   2.813   5.840  14.149  0.3490  0.5914 -0.0038
15476TIP3    H267920   2.803   5.954  14.050 -1.8425 -0.4557 -1.0317
15477TIP3   OH267921   4.047   0.809   1.365 -0.5049  0.5629 -0.2158
15477TIP3    H167922   4.022   0.736   1.423 -0.0886 -0.3259 -1.1425
15477TIP3    H267923   3.999   0.884   1.400  0.3619  0.2243  1.7849
15478TIP3   OH267924   4.322   4.614   1.060  0.9009  0.1663 -0.3242
15478TIP3    H167925   4.262   4.642   1.128  0.6765 -1.2694  0.0827
15478TIP3    H267926   4.363   4.695   1.029 -1.5178  1.2035 -0.8819
15479TIP3   OH267927   1.478   5.999  14.990  0.2765 -0.1223 -0.1538
15479TIP3    H167928   1.479   6.067  15.057  0.6282  1.4451 -1.7049
15479TIP3    H267929   1.386   5.976  14.980  0.1888 -0.0893  0.5969
15480TIP3   OH267930   6.803   3.032  17.177 -0.5539 -0.4477 -0.3798
15480TIP3    H167931   6.787   3.098  17.245  1.7862  0.9059 -1.0499
15480TIP3    H267932   6.722   3.029  17.127 -0.8222  1.7422 -0.1401
15481TIP3   OH267933   0.473   6.645   5.243 -0.1661  0.2197 -0.4744
15481TIP3    H167934   0.410   6.617   5.309 -1.2858  1.6007 -0.9421
15481TIP3    H267935   0.552   6.595   5.263 -0.2562  1.1535  2.3934
15482TIP3   OH267936   5.160   1.644  14.306  0.1861  0.2205  0.2249
15482TIP3    H167937   5.201   1.564  14.338  1.5598  0.5666 -0.6220
15482TIP3    H267938   5.206   1.715  14.351  0.0308  0.5927 -0.1970
15483TIP3   OH267939   3.988   0.932  14.777  0.2156 -0.3286 -0.2173
15483TIP3    H167940   4.045   0.921  14.853  0.1424  1.5147  0.1112
15483TIP3    H267941   3.906   0.889  14.802  0.1561  0.3607  0.7917
15484TIP3   OH267942   6.096   1.209   4.954  0.5158 -0.1088 -0.2832
15484TIP3    H167943   6.126   1.282   4.899  0.3841  1.0937  1.2072
15484TIP3    H267944   6.001   1.208   4.942  0.6653 -1.0660 -1.5281
15485TIP3   OH267945   6.226   1.288  11.616  0.4073  0.2127  0.2562
15485TIP3    H167946   6.293   1.316  11.553 -0.0655  0.6202 -0.0675
15485TIP3    H267947   6.249   1.197  11.636  0.9741  0.3022  0.0379
15486TIP3   OH267948   4.050   4.635   5.478  0.1116  0.2686  0.1068
15486TIP3    H167949   3.973   4.680   5.444 -0.0021 -0.0358 -0.0373
15486TIP3    H267950   4.121   4.700   5.472 -0.1588  0.5908  0.3607
15487TIP3   OH267951   4.000   2.505  12.682 -0.4284 -0.2033 -0.4006
15487TIP3    H167952   4.084   2.522  12.725 -0.1160 -0.3482 -0.9448
15487TIP3    H267953   4.007   2.550  12.597 -0.5917 -0.8611 -0.7686
15488TIP3   OH267954   5.064   3.558   3.908 -0.2281  0.2719  0.8328
15488TIP3    H167955   4.973   3.531   3.893 -0.1841  1.2498 -1.3970
15488TIP3    H267956   5.080   3.538   4.000 -1.5621 -3.1738  0.4031
15489TIP3   OH267957   0.800   6.035  12.016  0.1296 -0.2225 -0.5213
15489TIP3    H167958   0.835   5.947  12.005  1.1604 -0.0284  1.0484
15489TIP3    H267959   0.774   6.039  12.108 -0.4970  0.9152 -0.7360
15490TIP3   OH267960   4.848   3.708   0.088 -0.4739  0.2261 -0.1164
15490TIP3    H167961   4.905   3.772   0.048 -0.6851  0.9714  0.7569
15490TIP3    H267962   4.759   3.742   0.074 -0.5347  0.6677  1.2511
15491TIP3   OH267963   4.929   6.628   3.185  0.3977 -0.4974  0.4499
15491TIP3    H167964   4.846   6.595   3.150  2.2210 -0.8050 -3.9414
15491TIP3    H267965   4.986   6.551   3.189  0.5261 -0.2913  3.4671
15492TIP3   OH267966   4.950   6.433  10.565  0.2739 -0.3961  0.3659
15492TIP3    H167967   4.922   6.397  10.481  2.1083 -2.0237  0.4228
15492TIP3    H267968   4.887   6.503  10.583 -1.2493 -1.2478 -1.4584
15493TIP3   OH267969   3.829   0.325  17.047 -0.2783  0.4923 -0.3729
15493TIP3    H167970   3.809   0.394  17.109  2.0033 -0.1458  1.1102
15493TIP3    H267971   3.888   0.366  16.984  0.9163 -0.0365  0.3930
15494TIP3   OH267972   2.753   6.619   0.526  0.4585  0.0551 -0.1721
15494TIP3    H167973   2.784   6.534   0.495  2.5958  0.8264 -0.2179
15494TIP3    H267974   2.731   6.667   0.446 -0.3916 -0.3113 -0.1631
15495TIP3   OH267975   1.804   3.156  11.304 -0.0679 -0.4232  0.1680
15495TIP3    H167976   1.823   3.247  11.280 -0.7755 -0.2186  0.3724
15495TIP3    H267977   1.804   3.156  11.400  2.8401 -1.2536  0.2049
15496TIP3   OH267978   0.296   0.107   4.559  0.0934  0.8065 -0.0485
15496TIP3    H167979   0.298   0.076   4.649 -1.3998  1.9604  0.4128
15496TIP3    H267980   0.325   0.198   4.564 -1.1936  1.2588 -0.5308
15497TIP3   OH267981   4.448   4.709  10.813 -0.0784 -0.4015 -0.4745
15497TIP3    H167982   4.543   4.699  10.804 -0.0745  0.7635 -1.8959
15497TIP3    H267983   4.412   4.646  10.751 -0.2000  0.1197 -0.9409
15498TIP3   OH267984   3.086   2.819  12.045 -0.0503  0.2546  0.9228
15498TIP3    H167985   3.066   2.725  12.043  0.0006  0.2620  0.0658
15498TIP3    H267986   3.148   2.828  12.117 -0.9177 -0.1948  1.7484
15499TIP3   OH267987   2.517   1.182   2.536 -0.6378  0.3547  0.5479
15499TIP3    H167988   2.438   1.171   2.589 -0.3392  0.2989  0.9885
15499TIP3    H267989   2.529   1.097   2.494 -0.7191  0.3106  0.6120
15500TIP3   OH267990   4.446   5.546  14.688  0.0985  0.2371 -1.1391
15500TIP3    H167991   4.416   5.455  14.678  0.9091  0.2262 -3.8862
15500TIP3    H267992   4.379   5.598  14.644  0.9711  0.7415 -1.8869
15501TIP3   OH267993   6.073   0.913  16.755 -0.0027  0.2754 -0.0255
15501TIP3    H167994   6.150   0.882  16.708  0.1248 -1.6047  1.3658
15501TIP3    H267995   6.108   0.977  16.818  0.3702 -0.1885  0.2456
15502TIP3   OH267996   3.365   6.394  16.379 -0.1874 -0.2570 -0.1237
15502TIP3    H167997   3.445   6.341  16.372  0.3780  0.9505 -4.0973
15502TIP3    H267998   3.397   6.485  16.380 -1.4819  0.2282 -1.4318
15503TIP3   OH267999   6.384   2.939  16.021 -0.1691 -0.3704 -0.0164
15503TIP3    H168000   6.309   2.928  16.079 -0.0339  1.7860  0.6158
15503TIP3    H268001   6.452   2.977  16.077 -0.5394  3.2535 -1.8894
15504TIP3   OH268002   0.347   6.255  11.378  0.2960  0.0232 -0.3121
15504TIP3    H168003   0.348   6.178  11.435 -1.3732 -0.3363 -0.7226
15504TIP3    H268004   0.306   6.323  11.431 -0.3175 -0.0244 -0.7163
15505TIP3   OH268005   5.267   6.632   2.493 -0.2344 -0.3637 -0.7412
15505TIP3    H168006   5.226   6.676   2.418  0.2642  0.6608 -0.4113
15505TIP3    H268007   5.272   6.699   2.561  2.4590 -0.3151 -0.9326
15506TIP3   OH268008   1.847   1.308   4.892  0.0450  0.7631 -0.2119
15506TIP3    H168009   1.907   1.249   4.847 -1.3276 -1.2169  0.4747
15506TIP3    H268010   1.883   1.395   4.877  2.3946 -0.2780 -0.8378
15507TIP3   OH268011   1.849   4.663   5.555 -0.4886 -0.0349 -0.1735
15507TIP3    H168012   1.926   4.718   5.566 -0.1929 -0.5335  0.2639
15507TIP3    H268013   1.845   4.611   5.635  0.2485 -1.9256 -1.3500
15508TIP3   OH268014   4.988   0.816  12.105  0.3168  0.0288 -0.6286
15508TIP3    H168015   4.952   0.869  12.034  0.5426  1.6998  0.4765
15508TIP3    H268016   4.933   0.738  12.108 -0.9261  0.8764 -1.3128
15509TIP3   OH268017   3.698   4.581   3.391  0.3142 -0.0222 -0.0758
15509TIP3    H168018   3.703   4.662   3.442 -1.2496 -0.2721  0.5134
15509TIP3    H268019   3.753   4.519   3.439 -0.0738  0.1294  0.5677
15510TIP3   OH268020   4.699   0.423  13.108  0.4340  0.4818  0.2547
15510TIP3    H168021   4.790   0.451  13.096  0.2810  0.8848  0.0526
15510TIP3    H268022   4.679   0.444  13.199  0.7797 -0.2767  0.5101
15511TIP3   OH268023   2.758   0.101  16.563  0.1400  0.2997  0.3874
15511TIP3    H168024   2.761   0.053  16.645  0.2835 -0.5044 -0.0758
15511TIP3    H268025   2.848   0.097  16.530  0.2141  1.1294  0.4796
15512TIP3   OH268026   6.596   1.084  15.617  0.2280  0.0916  0.4242
15512TIP3    H168027   6.575   0.996  15.648 -2.5581 -0.1270 -1.9528
15512TIP3    H268028   6.589   1.079  15.522 -0.7965  3.0718  0.2866
15513TIP3   OH268029   2.500   4.884   4.916 -0.5835 -0.1884 -0.4183
15513TIP3    H168030   2.420   4.920   4.878 -0.8640 -0.2549  0.1071
15513TIP3    H268031   2.513   4.933   4.997  0.0322 -0.0248 -0.6211
15514TIP3   OH268032   5.428   2.244   5.402 -0.1242  0.3537  1.2515
15514TIP3    H168033   5.416   2.256   5.496 -0.9815 -1.2110  1.3627
15514TIP3    H268034   5.412   2.151   5.388 -0.6780  0.7098 -0.5422
15515TIP3   OH268035   2.505   6.308   1.491 -0.3345 -0.1989  0.4805
15515TIP3    H168036   2.512   6.400   1.466  0.9179 -0.5906 -0.7162
15515TIP3    H268037   2.556   6.302   1.572 -0.0743  0.0821  0.3400
15516TIP3   OH268038   0.447   4.796   2.224  0.1038 -0.6187  0.0749
15516TIP3    H168039   0.451   4.888   2.250  0.2285 -0.8846  0.9989
15516TIP3    H268040   0.368   4.762   2.266  1.0115 -1.3767  1.1731
15517TIP3   OH268041   5.414   2.395  11.974 -0.2760 -0.2702 -0.3343
15517TIP3    H168042   5.328   2.369  12.006 -0.3137 -0.8635 -0.9078
15517TIP3    H268043   5.436   2.473  12.024 -0.6950 -0.7140  0.5504
15518TIP3   OH268044   1.689   3.166  12.451  0.3551 -0.1063  0.4593
15518TIP3    H168045   1.739   3.188  12.372 -0.4742  0.3712  0.0592
15518TIP3    H268046   1.710   3.074  12.468  2.3899  0.4474  1.0528
15519TIP3   OH268047   1.259   2.599  11.808 -0.7055  0.2480  0.1429
15519TIP3    H168048   1.302   2.684  11.821 -0.2709 -0.2861  2.6300
15519TIP3    H268049   1.311   2.538  11.862 -1.5362 -1.4177 -0.8990
15520TIP3   OH268050   2.250   2.114  15.306 -0.6076  0.7088  0.2430
15520TIP3    H168051   2.236   2.207  15.324 -1.2374  0.3449  1.7706
15520TIP3    H268052   2.164   2.074  15.316 -0.1041 -0.2353  0.9258
15521TIP3   OH268053   3.761   2.319   2.279  0.5643  0.3313  0.3265
15521TIP3    H168054   3.678   2.301   2.235  1.1048 -0.5497 -0.3373
15521TIP3    H268055   3.756   2.411   2.303 -0.4362  0.3847 -0.0721
15522TIP3   OH268056   5.648   2.328   2.985  0.1532 -0.1643 -0.3080
15522TIP3    H168057   5.667   2.366   2.899 -0.1146  0.1538 -0.2261
15522TIP3    H268058   5.645   2.402   3.045  0.8455 -0.4376  0.0702
15523TIP3   OH268059   3.826   4.613   4.795 -0.1776 -0.3507 -0.7016
15523TIP3    H168060   3.887   4.679   4.827  1.5427 -2.2261 -0.0533
15523TIP3    H268061   3.744   4.662   4.780  0.8760  1.7935  0.3171
15524TIP3   OH268062   0.342   1.566   3.763 -0.6527 -0.0799 -0.2698
15524TIP3    H168063   0.351   1.495   3.827 -2.2531 -0.9162 -0.9596
15524TIP3    H268064   0.249   1.570   3.743 -0.5442  2.0110 -0.5026
15525TIP3   OH268065   1.249   3.970  11.312  0.5675 -0.1870  0.1199
15525TIP3    H168066   1.224   3.967  11.219 -1.6353  1.0577  0.6390
15525TIP3    H268067   1.244   4.062  11.335  3.0350 -0.2437  1.0129
15526TIP3   OH268068   6.002   0.134   1.517 -0.6969  0.1330  0.6380
15526TIP3    H168069   5.936   0.129   1.449  1.5599  1.8092 -1.7888
15526TIP3    H268070   6.060   0.059   1.501  0.3137  1.0001  0.1493
15527TIP3   OH268071   1.098   2.190  14.663  0.4598  0.7567 -0.5435
15527TIP3    H168072   1.102   2.259  14.597  1.2941  1.2655  0.0272
15527TIP3    H268073   1.179   2.140  14.650 -1.0050 -1.2908 -2.1980
15528TIP3   OH268074   0.029   1.437   0.347  0.0927  0.1859  0.3112
15528TIP3    H168075   0.115   1.443   0.388 -0.1768 -1.4089  1.1621
15528TIP3    H268076  -0.032   1.444   0.420 -0.3924 -2.9703  0.2478
15529TIP3   OH268077   2.448   2.646   3.321 -0.1057 -0.2085  0.2427
15529TIP3    H168078   2.486   2.734   3.318 -0.8585  0.0715 -2.8551
15529TIP3    H268079   2.358   2.660   3.352 -0.6266  0.2988 -1.4520
15530TIP3   OH268080   6.567   4.142  12.914  0.5535 -0.2376 -0.4380
15530TIP3    H168081   6.493   4.132  12.855  1.0103 -2.2646 -0.6743
15530TIP3    H268082   6.591   4.235  12.906 -1.4105  0.2462 -0.9812
15531TIP3   OH268083   6.057   2.580   2.700  0.0239 -0.1324  0.1392
15531TIP3    H168084   6.131   2.618   2.653 -0.6260  0.1751 -0.6461
15531TIP3    H268085   5.994   2.652   2.707 -0.0256 -0.2733  1.1819
15532TIP3   OH268086   1.623   0.998   1.963  0.0324  0.3348 -0.5920
15532TIP3    H168087   1.695   1.033   1.910  0.1224  0.4582 -0.3916
15532TIP3    H268088   1.557   0.970   1.900  0.9244 -1.2575 -0.8548
15533TIP3   OH268089   1.777   2.701   2.840  0.3690  1.0730 -0.3416
15533TIP3    H168090   1.692   2.662   2.820  0.7368  0.5257 -0.8381
15533TIP3    H268091   1.755   2.780   2.889 -0.4042  0.5775  0.1362
15534TIP3   OH268092   6.619   2.426  15.768 -0.3698 -0.2796  0.0615
15534TIP3    H168093   6.523   2.432  15.768 -0.5197 -2.2308 -0.8143
15534TIP3    H268094   6.648   2.498  15.712 -1.3922 -0.4221 -0.6639
15535TIP3   OH268095   4.199   4.942  14.560  0.2624  0.3228  0.6509
15535TIP3    H168096   4.117   4.989  14.552 -0.5949 -1.0906  0.9139
15535TIP3    H268097   4.208   4.924  14.653 -0.6100 -2.0539  0.3141
15536TIP3   OH268098   3.996   2.803   4.109 -0.0277 -0.1504 -0.2616
15536TIP3    H168099   3.997   2.870   4.041 -0.2894  0.7561  0.6189
15536TIP3    H268100   3.968   2.723   4.064  0.0508  0.3888 -1.2637
15537TIP3   OH268101   3.843   1.745  16.682  0.5632 -0.1138  0.4453
15537TIP3    H168102   3.839   1.685  16.757 -1.5847 -1.7755 -0.9230
15537TIP3    H268103   3.899   1.699  16.618  0.9293  0.4807  0.3385
15538TIP3   OH268104   1.582   4.455   2.029 -0.2751  0.1775 -0.8232
15538TIP3    H168105   1.510   4.460   2.092  2.1704 -1.6821  2.2888
15538TIP3    H268106   1.575   4.367   1.992  0.6249 -0.1514 -0.2153
15539TIP3   OH268107   3.839   3.108  17.231 -0.1789  0.0836  0.0328
15539TIP3    H168108   3.892   3.118  17.309 -1.5486  0.4552  0.9405
15539TIP3    H268109   3.901   3.108  17.158  1.1441 -0.7977  1.1483
15540TIP3   OH268110   1.172   4.989  17.002 -0.0346  0.3353 -0.3267
15540TIP3    H168111   1.135   4.929  17.067  0.4457 -0.0404 -0.3994
15540TIP3    H268112   1.180   5.072  17.049  1.8034 -0.3306  0.5970
15541TIP3   OH268113   0.783   1.165   1.920 -0.1384  0.3549 -0.5468
15541TIP3    H168114   0.877   1.172   1.903  0.2232  1.5849  1.6641
15541TIP3    H268115   0.754   1.089   1.870  2.2943 -0.8124 -0.2286
15542TIP3   OH268116   3.183   3.989   5.239 -0.0294 -0.5192 -0.5114
15542TIP3    H168117   3.275   3.968   5.223  0.2192  1.3524 -1.6236
15542TIP3    H268118   3.142   3.985   5.152 -0.5143  0.8952 -0.3637
15543TIP3   OH268119   1.354   1.085  16.416  0.1177 -0.5108 -0.0761
15543TIP3    H168120   1.420   1.151  16.393 -0.8894  0.0404 -1.4580
15543TIP3    H268121   1.396   1.032  16.484  0.7798  1.8236  1.3918
15544TIP3   OH268122   6.405   1.397  12.327 -0.2855  0.2709 -0.3892
15544TIP3    H168123   6.374   1.308  12.347 -0.1727  0.6089  1.3725
15544TIP3    H268124   6.325   1.445  12.304 -0.6108  0.2422  0.6866
15545TIP3   OH268125   2.066   5.883   1.239  0.2431 -0.3435  0.4664
15545TIP3    H168126   2.015   5.963   1.255  1.0174  0.1811  0.3475
15545TIP3    H268127   2.139   5.889   1.301  0.2031 -1.0464  0.5781
15546TIP3   OH268128   4.559   5.146  12.780  0.3521  0.0819 -0.1562
15546TIP3    H168129   4.550   5.056  12.748 -0.3335 -0.0313  0.3393
15546TIP3    H268130   4.479   5.162  12.829  1.1328  0.4544  1.0278
15547TIP3   OH268131   4.594   3.422  14.410 -0.1496 -0.0098 -0.2029
15547TIP3    H168132   4.669   3.477  14.387  0.2785 -0.9519 -1.1230
15547TIP3    H268133   4.618   3.334  14.378 -1.4889 -0.3909 -0.1924
15548TIP3   OH268134   0.396   6.542   1.798  0.1979 -0.1320  0.9795
15548TIP3    H168135   0.324   6.478   1.799 -0.5064  0.6391  0.5707
15548TIP3    H268136   0.438   6.532   1.883 -0.7372 -0.2103  1.4428
15549TIP3   OH268137   5.764   2.701  10.984 -0.6591  0.4954 -0.3697
15549TIP3    H168138   5.721   2.621  11.016  1.1237  0.1310  1.2059
15549TIP3    H268139   5.835   2.669  10.928  0.7039  0.8961  1.0713
15550TIP3   OH268140   6.343   4.932   1.233 -0.1259 -0.0464  1.1625
15550TIP3    H168141   6.432   4.899   1.221 -0.4040 -0.4349  0.1016
15550TIP3    H268142   6.348   4.989   1.309  1.2720  0.8475  0.4123
15551TIP3   OH268143   2.970   5.035  13.949 -0.1896  0.3335  0.1750
15551TIP3    H168144   2.942   5.001  13.864  1.8337 -0.4520 -0.2029
15551TIP3    H268145   3.006   5.121  13.930  1.3984 -0.3460  0.0272
15552TIP3   OH268146   3.054   2.973   5.153  0.3978 -0.0695 -0.1901
15552TIP3    H168147   3.067   3.062   5.186 -0.0844  0.2775 -0.9142
15552TIP3    H268148   3.050   2.984   5.058 -0.4152 -0.7769 -0.2368
15553TIP3   OH268149   3.739   5.189  12.457 -0.1715  0.2318  0.7606
15553TIP3    H168150   3.726   5.126  12.387 -0.3174  1.4144 -0.3036
15553TIP3    H268151   3.801   5.253  12.420 -1.5209  1.7719  1.0949
15554TIP3   OH268152   1.979   1.986  11.248  0.1421  0.2240 -0.1600
15554TIP3    H168153   2.033   1.908  11.254 -0.0083  0.2955  2.8632
15554TIP3    H268154   2.040   2.055  11.222  0.9385 -0.2729  0.3593
15555TIP3   OH268155   2.221   6.265  13.494  0.6579 -0.3732  0.0532
15555TIP3    H168156   2.216   6.302  13.583 -0.4636 -0.5670  0.0823
15555TIP3    H268157   2.142   6.297  13.451  0.8808 -0.8050 -0.6811
15556TIP3   OH268158   6.290   0.655  12.421 -0.0656  0.3453  0.5853
15556TIP3    H168159   6.229   0.594  12.379  0.2340  0.2392  0.2968
15556TIP3    H268160   6.235   0.710  12.477 -0.5936  1.1280 -0.6885
15557TIP3   OH268161   5.836   5.075  11.796  0.1638 -0.1559 -0.1324
15557TIP3    H168162   5.880   5.093  11.713 -1.5861  1.8076 -0.6869
15557TIP3    H268163   5.814   5.161  11.830 -1.5696 -1.0318  1.0279
15558TIP3   OH268164   4.289   4.333   2.650  0.0643  0.0156 -0.0899
15558TIP3    H168165   4.257   4.275   2.581  0.9102 -0.7521  0.1524
15558TIP3    H268166   4.211   4.351   2.704  0.2713 -3.0678  1.3879
15559TIP3   OH268167   5.889   1.994   1.280  0.2325  0.0891  0.2052
15559TIP3    H168168   5.880   1.978   1.186 -0.6782 -1.5812  0.5600
15559TIP3    H268169   5.963   2.055   1.287  0.9316 -0.5422 -1.5161
15560TIP3   OH268170   3.683   6.697   1.246 -0.7532  0.1524 -0.4486
15560TIP3    H168171   3.766   6.705   1.293 -1.0749  1.6378 -0.1247
15560TIP3    H268172   3.627   6.646   1.304 -0.3651 -0.0923 -0.2859
15561TIP3   OH268173   4.880   1.575   2.630  0.1970  0.8112 -0.1647
15561TIP3    H168174   4.822   1.614   2.695  0.2129 -0.5787  0.7040
15561TIP3    H268175   4.862   1.481   2.634  1.6679  0.4807 -0.6938
15562TIP3   OH268176   1.087   1.056  11.729 -0.0834  0.0306  0.2487
15562TIP3    H168177   1.122   1.143  11.709 -1.7097  0.9811  1.4273
15562TIP3    H268178   1.044   1.066  11.814  1.3888 -2.4323  1.3391
15563TIP3   OH268179   6.250   1.201   4.415  0.3956 -0.2209 -0.0442
15563TIP3    H168180   6.220   1.289   4.393  0.8508 -0.1887 -0.5502
15563TIP3    H268181   6.334   1.192   4.370  0.4423 -0.8466  0.1567
15564TIP3   OH268182   2.744   5.197  13.540 -0.3480  0.8668  0.1347
15564TIP3    H168183   2.720   5.277  13.493 -1.9065  0.4497  0.2024
15564TIP3    H268184   2.724   5.127  13.478  2.7104  0.5935 -0.6280
15565TIP3   OH268185   5.277   4.012   1.326 -0.4640 -0.0707  0.2216
15565TIP3    H168186   5.253   4.104   1.340  0.3312  0.0468  0.8795
15565TIP3    H268187   5.341   3.993   1.395  3.7311  0.5547 -3.2105
15566TIP3   OH268188   5.010   5.180  14.066  0.2412 -0.7453 -0.4578
15566TIP3    H168189   5.016   5.086  14.083 -0.6068 -0.2105  3.3550
15566TIP3    H268190   4.985   5.217  14.151  0.1583  2.8761 -2.0096
15567TIP3   OH268191   0.179   5.551  11.399 -0.0194  0.3181  0.0155
15567TIP3    H168192   0.083   5.548  11.398 -0.0287  0.1659  0.7985
15567TIP3    H268193   0.200   5.643  11.386 -0.2952  0.4700  0.6004
15568TIP3   OH268194   0.091   5.149  15.008  0.2602 -0.3423 -0.5413
15568TIP3    H168195   0.065   5.107  14.926 -1.2106  0.4440 -0.4921
15568TIP3    H268196   0.121   5.236  14.982  0.2756 -0.2727 -0.2899
15569TIP3   OH268197   3.107   6.684  13.470 -0.6332  0.2204  0.0357
15569TIP3    H168198   3.106   6.758  13.530 -1.6998  0.3388 -0.1266
15569TIP3    H268199   3.126   6.608  13.525 -2.0229  0.2674  0.6022
15570TIP3   OH268200   5.218   0.152  14.286 -0.4809  0.2057 -0.0319
15570TIP3    H168201   5.273   0.229  14.302 -1.2275  0.7927 -0.2276
15570TIP3    H268202   5.249   0.086  14.348  0.5693  0.4587 -0.2695
15571TIP3   OH268203   6.183   0.250  12.576  0.0090 -0.1090 -0.4606
15571TIP3    H168204   6.276   0.270  12.581  0.1637 -0.7285 -0.7870
15571TIP3    H268205   6.163   0.251  12.482 -1.0290  3.2113 -0.2370
15572TIP3   OH268206   5.707   4.856  12.587  0.0665  0.0325  0.2797
15572TIP3    H168207   5.755   4.935  12.612 -1.0953  0.6684  0.5518
15572TIP3    H268208   5.697   4.862  12.492 -1.1371  0.8842  0.4388
15573TIP3   OH268209   2.464   6.108  16.773  0.0692 -0.1738  0.3339
15573TIP3    H168210   2.526   6.090  16.843 -0.1353 -1.2355  0.2549
15573TIP3    H268211   2.386   6.057  16.796 -1.1053  1.8008  0.8655
15574TIP3   OH268212   4.583   1.074  13.297 -0.4896  0.1104  0.2033
15574TIP3    H168213   4.528   1.012  13.346 -0.4770 -0.5812 -0.6419
15574TIP3    H268214   4.572   1.048  13.206  1.0951  0.0909  0.0128
15575TIP3   OH268215   1.078   3.406   5.542 -0.2365  0.2654  0.2169
15575TIP3    H168216   1.002   3.349   5.555 -0.1886 -0.4819 -2.4921
15575TIP3    H268217   1.057   3.457   5.464  2.1974 -0.2314 -0.8085
15576TIP3   OH268218   0.592   2.570  16.608 -0.2887  0.3066 -0.5373
15576TIP3    H168219   0.536   2.602  16.679 -1.0820 -0.8221 -0.6392
15576TIP3    H268220   0.633   2.649  16.573  0.1564  0.8789  1.1935
15577TIP3   OH268221   5.085   4.511  10.259  0.4630 -0.2091  0.3119
15577TIP3    H168222   5.121   4.427  10.231  0.4025  0.8295 -3.0425
15577TIP3    H268223   4.996   4.512  10.222  0.9646  1.9110 -0.9132
15578TIP3   OH268224   0.991   2.957   3.734  0.1749 -0.4103 -0.3189
15578TIP3    H168225   1.015   3.043   3.767 -1.7407  1.1176 -2.7529
15578TIP3    H268226   0.937   2.974   3.657 -0.9097 -3.7774 -0.4139
15579TIP3   OH268227   0.610   0.963  13.693  0.2561 -0.2719  0.0833
15579TIP3    H168228   0.667   1.034  13.664  1.2971 -0.4873  1.5807
15579TIP3    H268229   0.549   1.003  13.754 -0.1575 -0.3735 -0.2561
15580TIP3   OH268230   1.480   2.572   2.851  0.0090 -0.2399 -0.6929
15580TIP3    H168231   1.393   2.609   2.861  0.5475  0.8355  0.1342
15580TIP3    H268232   1.518   2.576   2.939  0.2978 -2.2292 -0.7029
15581TIP3   OH268233   5.389   6.167   1.618 -0.3945 -0.2941 -0.4919
15581TIP3    H168234   5.382   6.077   1.586  1.1569 -0.0906 -1.4779
15581TIP3    H268235   5.306   6.184   1.662 -0.9008 -2.0334 -0.7520
15582TIP3   OH268236   2.216   3.589   6.885 -0.1076 -0.1934  0.2461
15582TIP3    H168237   2.186   3.641   6.810  1.7640  0.2639 -0.2202
15582TIP3    H268238   2.229   3.653   6.955 -0.4199 -0.4056  0.4942
15583TIP3   OH268239   5.664   5.433   1.261 -0.3468  0.2026  0.4864
15583TIP3    H168240   5.674   5.414   1.355 -2.3798  1.9289  1.0895
15583TIP3    H268241   5.570   5.430   1.246 -0.2258  2.3878 -0.9641
15584TIP3   OH268242   1.597   0.726  16.600 -0.5324  0.2606 -0.1187
15584TIP3    H168243   1.692   0.725  16.613 -0.6122  0.3279  0.4671
15584TIP3    H268244   1.563   0.664  16.664 -0.7507 -1.0751 -1.5069
15585TIP3   OH268245   0.006   0.899   2.496  0.3723 -0.3831 -0.3802
15585TIP3    H168246   0.013   0.815   2.450 -1.5922 -0.6625 -0.2157
15585TIP3    H268247  -0.085   0.924   2.485  0.0220 -0.1065  2.7663
15586TIP3   OH268248   1.743   0.682  14.572  0.4723 -0.2860  0.3731
15586TIP3    H168249   1.753   0.660  14.665  1.8248 -1.0210  0.0702
15586TIP3    H268250   1.751   0.598  14.527 -0.2554  0.0593 -0.4065
15587TIP3   OH268251   5.249   4.498   3.059 -0.0802 -0.3267  0.4049
15587TIP3    H168252   5.181   4.433   3.044  0.1729 -0.6575  0.6800
15587TIP3    H268253   5.260   4.541   2.974 -2.3816  1.4396  0.9630
15588TIP3   OH268254   1.775   3.963   1.626 -0.1536  0.6467 -0.3693
15588TIP3    H168255   1.809   3.888   1.577 -0.1730 -1.5795  2.8078
15588TIP3    H268256   1.684   3.971   1.599 -0.7019 -1.7604  0.6296
15589TIP3   OH268257   1.936   2.815  11.071 -0.2076  0.2473 -0.2275
15589TIP3    H168258   1.876   2.847  11.003 -0.9772 -1.2131 -0.2575
15589TIP3    H268259   1.996   2.889  11.086 -1.0709  1.1958 -1.2725
15590TIP3   OH268260   3.873   0.380  11.998  1.1026 -0.4353  0.1251
15590TIP3    H168261   3.873   0.388  11.902  1.5554 -0.4784  0.1195
15590TIP3    H268262   3.845   0.290  12.014 -3.3850  0.8276  0.1709
15591TIP3   OH268263   6.426   0.739   0.666  0.4095 -0.5292  0.5878
15591TIP3    H168264   6.412   0.751   0.760  0.2979 -2.6763  0.8647
15591TIP3    H268265   6.517   0.709   0.659  0.8070  0.7891 -0.1069
15592TIP3   OH268266   0.002   3.061  11.026  0.0918 -0.1099  0.0739
15592TIP3    H168267  -0.050   2.986  11.054 -1.8683  0.7413 -1.2169
15592TIP3    H268268   0.087   3.049  11.068 -0.4396 -2.6747  0.4449
15593TIP3   OH268269   4.352   0.852   4.159 -0.2324  0.2682 -0.3608
15593TIP3    H168270   4.431   0.842   4.106 -0.6404  0.2881 -0.9732
15593TIP3    H268271   4.282   0.813   4.106 -0.3677 -1.1661  0.8345
15594TIP3   OH268272   5.888   4.556   4.090  0.4335 -0.3218  0.0479
15594TIP3    H168273   5.976   4.583   4.116  0.8551 -1.0192 -0.6222
15594TIP3    H268274   5.885   4.573   3.996  0.6730 -2.4643 -0.3725
15595TIP3   OH268275   4.220   2.990  14.235 -0.5047  0.1663  0.1017
15595TIP3    H168276   4.220   2.960  14.326  1.7399 -2.8536 -0.7952
15595TIP3    H268277   4.255   3.079  14.239 -3.9396  1.4788  2.5111
15596TIP3   OH268278   2.391   3.289  12.987  0.2284 -0.1799 -0.1529
15596TIP3    H168279   2.326   3.237  12.938  2.2506 -1.6486 -1.3337
15596TIP3    H268280   2.467   3.292  12.929  1.0323  2.0080  0.9840
15597TIP3   OH268281   6.486   4.461   6.467 -0.1491  0.4371  0.0715
15597TIP3    H168282   6.524   4.469   6.555 -0.0360 -1.4176  0.2080
15597TIP3    H268283   6.509   4.373   6.439 -0.4122  0.9301 -1.7304
15598TIP3   OH268284   1.913   0.206   5.942 -0.0208 -0.6679  0.0306
15598TIP3    H168285   1.850   0.274   5.966 -1.1131 -1.3462 -0.8858
15598TIP3    H268286   1.988   0.254   5.909  0.6473  0.2148  2.6655
15599TIP3   OH268287   1.334   2.169  13.157 -0.7705  0.4715 -0.0454
15599TIP3    H168288   1.397   2.236  13.185 -0.1025  0.1079 -0.6457
15599TIP3    H268289   1.316   2.191  13.066  1.2018 -1.4718 -0.9431
15600TIP3   OH268290   5.014   0.532   1.493  0.3102  0.4320  0.0527
15600TIP3    H168291   5.038   0.452   1.446 -0.7648  0.8640 -1.2782
15600TIP3    H268292   5.082   0.595   1.470  0.8141  0.1010  0.6038
15601TIP3   OH268293   3.121   0.173   1.273 -0.0193  0.4754  0.1753
15601TIP3    H168294   3.066   0.161   1.351 -1.1055  1.4755 -0.4210
15601TIP3    H268295   3.186   0.103   1.279  0.9026  1.4606  2.8266
15602TIP3   OH268296   0.607   4.793  12.682  0.1583 -0.1272 -0.1671
15602TIP3    H168297   0.562   4.719  12.721 -0.3979  0.7374  0.8759
15602TIP3    H268298   0.637   4.846  12.757  0.3465  0.8095 -0.8845
15603TIP3   OH268299   2.063   0.114  12.989  0.4627 -0.2111  0.4231
15603TIP3    H168300   2.095   0.148  13.073  0.1092 -1.5841  1.1186
15603TIP3    H268301   2.024   0.030  13.010  0.9969 -0.8970 -1.2373
15604TIP3   OH268302   5.896   4.762  15.025  0.1292 -0.1096 -0.0619
15604TIP3    H168303   5.980   4.753  14.981 -0.4678  1.2230 -1.5132
15604TIP3    H268304   5.831   4.760  14.955 -1.0262 -0.7598  1.0053
15605TIP3   OH268305   3.494   6.170  16.778 -0.0861 -0.0389 -0.2001
15605TIP3    H168306   3.417   6.144  16.829  0.2831  1.1282  0.9748
15605TIP3    H268307   3.461   6.235  16.716 -0.1686 -0.0259 -0.1431
15606TIP3   OH268308   5.601   0.663  15.625 -0.0575 -0.2925 -0.4234
15606TIP3    H168309   5.572   0.603  15.556 -0.3631 -0.1056 -0.4556
15606TIP3    H268310   5.695   0.675  15.606  0.3443 -1.8923  0.4444
15607TIP3   OH268311   1.590   3.921   6.487  0.5595  0.0222 -0.3904
15607TIP3    H168312   1.605   3.873   6.568 -1.8451 -2.2580 -1.1783
15607TIP3    H268313   1.610   4.012   6.507 -1.1711 -0.3041  3.1365
15608TIP3   OH268314   2.481   6.628  11.872  0.5766 -0.6556 -0.9977
15608TIP3    H168315   2.399   6.594  11.908  0.7318 -0.2904 -0.2907
15608TIP3    H268316   2.472   6.617  11.777 -1.6182  2.2271 -1.1984
15609TIP3   OH268317   0.478   3.147   6.129 -0.6327  0.0382  0.6362
15609TIP3    H168318   0.432   3.099   6.061  2.3284  0.7715 -2.0070
15609TIP3    H268319   0.539   3.083   6.166 -1.4253 -0.0418  1.8337
15610TIP3   OH268320   5.427   4.102  12.476  0.4718 -0.0735 -0.9397
15610TIP3    H168321   5.340   4.074  12.506  0.4364  0.7056 -0.3197
15610TIP3    H268322   5.415   4.192  12.448  1.4332  0.5552  0.6527
15611TIP3   OH268323   0.093   0.426   1.879 -0.3550  0.3840 -0.1143
15611TIP3    H168324   0.115   0.482   1.954  1.9278  1.0669 -1.2516
15611TIP3    H268325   0.138   0.466   1.805 -2.1266 -0.6061 -1.7698
15612TIP3   OH268326   2.941   3.868   0.902  0.1617 -0.2081  0.3299
15612TIP3    H168327   2.869   3.851   0.962 -1.1892 -1.1112 -1.5221
15612TIP3    H268328   2.925   3.956   0.870  0.8976  0.2841  1.2892
15613TIP3   OH268329   2.048   2.151   3.537 -1.4932  0.6226 -0.4556
15613TIP3    H168330   1.973   2.159   3.595 -1.2300  1.9692 -0.3010
15613TIP3    H268331   2.075   2.059   3.545 -3.1755  0.1038 -0.5933
15614TIP3   OH268332   0.451   6.209   2.326 -0.3626  0.0456 -0.2230
15614TIP3    H168333   0.458   6.278   2.392 -1.1388  0.1272 -0.2169
15614TIP3    H268334   0.418   6.253   2.248  1.1760  0.0683 -0.8704
15615TIP3   OH268335   2.704   1.906  13.970  0.1923 -0.0010  0.0109
15615TIP3    H168336   2.761   1.883  13.897 -1.6154  0.2776 -1.5318
15615TIP3    H268337   2.672   1.994  13.949 -3.4943 -1.4865 -0.9528
15616TIP3   OH268338   2.207   3.637   0.089 -0.8129 -0.7255  0.8323
15616TIP3    H168339   2.201   3.730   0.066  1.3737 -1.3981 -2.7549
15616TIP3    H268340   2.279   3.632   0.151 -2.2011  0.1790  2.5722
15617TIP3   OH268341   3.242   2.135  13.828  0.2482  0.3443 -0.2357
15617TIP3    H168342   3.211   2.133  13.918  1.8214 -1.7125  0.3056
15617TIP3    H268343   3.300   2.210  13.824  0.9033 -0.1051  0.7282
15618TIP3   OH268344   4.395   4.620   2.978 -0.4605  0.1573 -0.2656
15618TIP3    H168345   4.450   4.561   3.029  0.2312  0.1983 -0.9497
15618TIP3    H268346   4.452   4.695   2.959 -0.7321  0.1712 -1.0309
15619TIP3   OH268347   4.881   5.624   3.849 -0.0625  0.5523  0.3045
15619TIP3    H168348   4.859   5.705   3.895 -1.0679 -0.4521  1.6693
15619TIP3    H268349   4.974   5.611   3.867  0.1525  1.4951 -0.0845
15620TIP3   OH268350   1.623   1.384  14.215  0.4088  0.0311  0.2931
15620TIP3    H168351   1.540   1.341  14.194  1.1475 -0.8275 -0.9126
15620TIP3    H268352   1.653   1.420  14.132  1.1495  0.5153  0.7697
15621TIP3   OH268353   6.358   4.998  11.722  0.1411 -0.3930  0.4259
15621TIP3    H168354   6.362   5.092  11.704 -0.2943  0.0779  2.6227
15621TIP3    H268355   6.317   4.992  11.808 -2.1937 -2.7341 -0.7643
15622TIP3   OH268356   6.150   5.592  13.844  0.2855 -0.2221  0.4316
15622TIP3    H168357   6.183   5.620  13.759  1.9839 -2.6310  0.2415
15622TIP3    H268358   6.057   5.613  13.842  0.1310 -0.9903 -2.3596
15623TIP3   OH268359   6.483   5.789   3.137  0.3737 -0.8818  0.3651
15623TIP3    H168360   6.492   5.723   3.205  1.5590 -1.2383 -0.1262
15623TIP3    H268361   6.509   5.744   3.056  1.0416  0.1359  0.0056
15624TIP3   OH268362   5.475   3.147  15.973  0.6980 -0.0420 -0.3066
15624TIP3    H168363   5.550   3.103  15.933  2.0315  0.9772  0.9902
15624TIP3    H268364   5.508   3.234  15.997 -1.1326  0.7061 -0.4195
15625TIP3   OH268365   4.688   1.681   4.572  0.0112 -0.0297  0.1273
15625TIP3    H168366   4.719   1.765   4.537  1.2555 -0.0691  1.1045
15625TIP3    H268367   4.593   1.684   4.561  0.3122  0.2525 -2.5826
15626TIP3   OH268368   2.628   4.466   3.412 -0.4089 -0.1596 -0.5760
15626TIP3    H168369   2.695   4.491   3.476 -0.0386 -3.2794  0.3529
15626TIP3    H268370   2.545   4.486   3.455 -0.1704 -2.4436  1.0501
15627TIP3   OH268371   5.910   6.544  15.973 -0.0730  0.0740 -0.6777
15627TIP3    H168372   5.861   6.468  15.940  0.2176 -0.5257  0.2529
15627TIP3    H268373   5.846   6.615  15.976 -1.4025 -1.1607  2.3015
15628TIP3   OH268374   4.291   5.664   0.477  0.4126 -0.7161 -0.2228
15628TIP3    H168375   4.249   5.729   0.420  0.1219 -1.9202 -1.3964
15628TIP3    H268376   4.374   5.705   0.503 -0.2766  0.5872 -0.0220
15629TIP3   OH268377   1.523   3.430  14.392 -0.5512  0.5340 -0.2449
15629TIP3    H168378   1.492   3.358  14.447  2.7440 -0.1764  0.7602
15629TIP3    H268379   1.517   3.396  14.303 -3.3307  0.7198 -0.1921
15630TIP3   OH268380   4.935   3.047   0.038 -0.4912 -0.2931  0.5134
15630TIP3    H168381   4.875   3.113   0.004 -0.7060 -1.0077 -0.4971
15630TIP3    H268382   4.985   3.094   0.105 -1.1400  0.7049  0.3179
15631TIP3   OH268383   3.051   3.913   3.005 -0.0472  0.0541  0.2962
15631TIP3    H168384   3.128   3.902   2.949 -0.1689 -0.0936  0.1545
15631TIP3    H268385   3.032   4.006   3.003  0.6472  0.2100  1.0282
15632TIP3   OH268386   1.294   3.211   1.338 -0.4962  0.1966  0.0318
15632TIP3    H168387   1.234   3.140   1.364 -0.2374  0.4640  1.4058
15632TIP3    H268388   1.339   3.234   1.419 -1.0597  2.3997 -0.2543
15633TIP3   OH268389   5.928   3.802  16.741 -0.3028  0.3851 -0.0071
15633TIP3    H168390   5.875   3.749  16.681  0.2389 -0.1049 -0.0562
15633TIP3    H268391   5.939   3.745  16.818 -0.4079  0.7451  0.2746
15634TIP3   OH268392   0.700   6.196  14.387  0.3885  0.0981 -0.5127
15634TIP3    H168393   0.714   6.143  14.308 -0.5775  0.8829 -1.2343
15634TIP3    H268394   0.621   6.160  14.426 -1.2177  1.9775 -1.8880
15635TIP3   OH268395   3.355   0.989  15.063 -0.1797  0.2394  0.0217
15635TIP3    H168396   3.306   0.908  15.071  1.2523 -0.6021  0.4167
15635TIP3    H268397   3.334   1.021  14.975 -0.4587 -0.7371 -0.2730
15636TIP3   OH268398   2.756   5.031   6.741  0.3232  0.1959 -0.0752
15636TIP3    H168399   2.785   5.101   6.683  1.1322 -0.2509 -0.2243
15636TIP3    H268400   2.761   4.952   6.687  1.1916 -0.2425  0.6212
15637TIP3   OH268401   2.650   3.346   3.990  0.1336 -0.0850 -0.0028
15637TIP3    H168402   2.696   3.338   3.906  1.6294  0.6154  0.7358
15637TIP3    H268403   2.570   3.294   3.979 -0.1569  0.7715 -2.1845
15638TIP3   OH268404   3.520   2.313   2.158 -0.6109  0.4180  0.2459
15638TIP3    H168405   3.493   2.231   2.117 -2.1776  1.0203  0.0305
15638TIP3    H268406   3.443   2.370   2.150  0.1381  1.5873  1.2352
15639TIP3   OH268407   0.167   5.525  15.730  0.0231 -0.0899 -0.2736
15639TIP3    H168408   0.129   5.441  15.753  0.5754 -0.3115 -0.1592
15639TIP3    H268409   0.249   5.529  15.779 -0.2784  0.7675  0.1698
15640TIP3   OH268410   0.620   0.737  15.396  0.0493 -0.1552 -0.6720
15640TIP3    H168411   0.539   0.774  15.431  0.1959 -1.2691  0.9280
15640TIP3    H268412   0.689   0.794  15.429 -0.1131  1.1638 -2.5615
15641TIP3   OH268413   1.804   6.300   6.054 -0.0876  0.3744 -0.3422
15641TIP3    H168414   1.899   6.295   6.045 -0.1368 -0.9990 -0.2686
15641TIP3    H268415   1.778   6.379   6.006  0.8696 -0.3779 -2.1267
15642TIP3   OH268416   1.549   4.054   2.152  0.4513 -0.3301 -0.0737
15642TIP3    H168417   1.462   4.020   2.131 -0.1516  0.2230  1.4593
15642TIP3    H268418   1.534   4.146   2.174  1.3577 -0.3446  0.6330
15643TIP3   OH268419   5.561   6.691   2.421 -0.2590 -0.2016 -0.4648
15643TIP3    H168420   5.564   6.785   2.440 -0.8890 -0.3490  0.3662
15643TIP3    H268421   5.503   6.654   2.488  1.4811 -1.4750  0.3915
15644TIP3   OH268422   3.859   1.074   4.764 -0.3965 -0.0903 -0.2386
15644TIP3    H168423   3.916   1.009   4.722 -0.0626  0.5911 -0.8462
15644TIP3    H268424   3.776   1.028   4.776  0.7086 -1.5688  2.0295
15645TIP3   OH268425   4.248   6.025  15.219 -0.5827  0.0451 -0.1287
15645TIP3    H168426   4.208   6.028  15.132  1.8390 -0.4889 -1.2830
15645TIP3    H268427   4.286   5.938  15.225  1.4984  0.9617  0.4220
15646TIP3   OH268428   0.434   1.559  11.752  0.2525  0.6457  0.5053
15646TIP3    H168429   0.424   1.558  11.847 -2.2726  1.1149  0.2926
15646TIP3    H268430   0.472   1.644  11.732 -0.1975  0.9731  1.0317
15647TIP3   OH268431   2.507   2.805   6.369 -0.2195  0.3897  0.1693
15647TIP3    H168432   2.553   2.792   6.452  0.0480 -0.4353 -0.1107
15647TIP3    H268433   2.471   2.719   6.347 -0.1640  0.5716 -0.6483
15648TIP3   OH268434   3.901   0.504  14.211 -0.4622 -0.1864 -0.5000
15648TIP3    H168435   3.817   0.513  14.255 -0.6671  0.8342 -1.0709
15648TIP3    H268436   3.879   0.478  14.121 -0.1606 -0.1960 -0.5735
15649TIP3   OH268437   1.317   0.279   0.468  0.1671 -0.5513  0.1964
15649TIP3    H168438   1.406   0.243   0.477  0.8285  1.0786  0.4483
15649TIP3    H268439   1.266   0.208   0.431  1.5527 -1.5736  0.1955
15650TIP3   OH268440   5.901   0.791  14.114  0.0734  0.1762  0.0665
15650TIP3    H168441   5.934   0.702  14.121  0.6399  0.2066 -1.9971
15650TIP3    H268442   5.935   0.823  14.031 -2.9617  1.1248 -0.8630
15651TIP3   OH268443   2.917   1.053   5.844  0.5473  0.4364  0.3092
15651TIP3    H168444   2.902   1.115   5.916  1.0540 -0.3460  1.1035
15651TIP3    H268445   2.944   0.972   5.887 -0.9038 -0.5963 -0.6810
15652TIP3   OH268446   3.121   6.108   4.010  0.1839 -0.9256  0.3675
15652TIP3    H168447   3.166   6.092   4.093 -2.3758  0.4770  2.1197
15652TIP3    H268448   3.057   6.037   4.004  0.0426 -0.7544 -0.1580
15653TIP3   OH268449   3.217   6.275   6.975  0.1577  0.4025 -0.2658
15653TIP3    H168450   3.294   6.301   6.925 -0.4057  0.5913 -1.0561
15653TIP3    H268451   3.178   6.204   6.924 -0.8552  1.1233 -0.5233
15654TIP3   OH268452   4.942   1.053  16.912 -0.0968 -0.2738 -0.3275
15654TIP3    H168453   4.863   1.099  16.941 -0.4773 -0.9640 -0.2459
15654TIP3    H268454   5.002   1.122  16.887 -1.5023  0.2465 -2.4369
15655TIP3   OH268455   0.446   2.868   1.316  0.0733  0.0279 -0.7102
15655TIP3    H168456   0.436   2.963   1.311  0.2079 -0.0208 -2.3211
15655TIP3    H268457   0.369   2.838   1.364 -1.4985  0.7102 -2.7369
15656TIP3   OH268458   3.852   4.107   0.131  0.1132 -0.0216  0.5113
15656TIP3    H168459   3.812   4.135   0.213 -1.0749 -3.0185  1.0458
15656TIP3    H268460   3.796   4.035   0.101  1.0376  0.4357 -2.4744
15657TIP3   OH268461   0.987   0.161  12.762 -0.3564 -0.0175  0.3728
15657TIP3    H168462   0.979   0.185  12.855  0.9624  2.4036 -0.0968
15657TIP3    H268463   0.899   0.175  12.727 -0.1462  2.0586  0.6121
15658TIP3   OH268464   6.275   3.310  15.937 -0.0361 -0.4842 -0.5125
15658TIP3    H168465   6.260   3.373  16.008  0.9682  1.3631 -1.9123
15658TIP3    H268466   6.187   3.279  15.915 -0.4348 -0.4967  0.9950
15659TIP3   OH268467   1.521   4.277  15.738  0.7679 -0.3267 -0.2999
15659TIP3    H168468   1.593   4.336  15.715 -0.9028  1.5298 -0.9967
15659TIP3    H268469   1.531   4.203  15.678  0.3898  1.3456 -2.5405
15660TIP3   OH268470   1.630   0.844  14.385  0.3025 -0.3677  0.0280
15660TIP3    H168471   1.653   0.777  14.450 -0.5885 -1.9269 -1.2395
15660TIP3    H268472   1.557   0.892  14.426  0.1300 -0.9633  0.4346
15661TIP3   OH268473   1.940   4.765   3.678  0.3462 -0.0305 -0.5475
15661TIP3    H168474   1.951   4.686   3.626  1.5123 -1.1984  1.4340
15661TIP3    H268475   1.901   4.828   3.618  0.3240 -1.7988 -2.4183
15662TIP3   OH268476   3.278   3.316  12.304 -0.1123 -0.3832 -0.2610
15662TIP3    H168477   3.206   3.282  12.250 -0.0198 -1.0647  0.0445
15662TIP3    H268478   3.267   3.273  12.389 -0.8626  1.4737  0.6069
15663TIP3   OH268479   6.459   2.906  13.258  0.2290  0.0855  0.5054
15663TIP3    H168480   6.470   2.827  13.310 -1.1303 -0.1575  0.4495
15663TIP3    H268481   6.483   2.881  13.170  1.8742  0.3141  0.8752
15664TIP3   OH268482   3.879   4.652   5.789  0.0949 -0.0834  0.2453
15664TIP3    H168483   3.864   4.582   5.726  0.9602  0.8801 -1.0577
15664TIP3    H268484   3.969   4.639   5.818  0.3786  0.7062 -0.2781
15665TIP3   OH268485   2.341   0.265  11.679  0.4241 -0.2916  0.2470
15665TIP3    H168486   2.371   0.286  11.591  0.0463 -0.2995  0.1165
15665TIP3    H268487   2.298   0.345  11.709 -1.4447 -1.0091 -0.4361
15666TIP3   OH268488   4.689   0.417   2.911  1.0267  0.2111 -1.2060
15666TIP3    H168489   4.770   0.369   2.929  0.4640 -0.4554 -0.4242
15666TIP3    H268490   4.694   0.494   2.967  2.3483  1.5732 -3.1142
15667TIP3   OH268491   3.686   5.246  14.598  0.1633  0.2330 -0.2916
15667TIP3    H168492   3.697   5.335  14.633 -0.4196 -0.2226  1.1243
15667TIP3    H268493   3.635   5.258  14.518  2.0402  1.3677 -1.3612
15668TIP3   OH268494   2.022   2.327   2.901 -0.1045  0.6390 -0.1502
15668TIP3    H168495   2.101   2.294   2.859 -1.1354 -1.8743 -0.1594
15668TIP3    H268496   2.054   2.385   2.970  1.8439 -2.0851  1.3073
15669TIP3   OH268497   0.111   1.908   0.772 -0.0987 -0.0516  0.4195
15669TIP3    H168498   0.074   1.849   0.707 -0.3044  1.0349 -0.4797
15669TIP3    H268499   0.112   1.858   0.853 -2.6768 -0.4265  0.2618
15670TIP3   OH268500   0.496   1.128  15.503  0.4468  0.1785  0.4018
15670TIP3    H168501   0.535   1.079  15.575 -0.6062  0.5768  1.2531
15670TIP3    H268502   0.419   1.077  15.479 -0.2977  1.0840  0.8624
15671TIP3   OH268503   1.779   2.909  17.214  0.2521  0.4479  0.3773
15671TIP3    H168504   1.848   2.907  17.149  0.3663 -1.5722  0.5245
15671TIP3    H268505   1.822   2.942  17.293  0.4619  1.4785 -0.1511
15672TIP3   OH268506   2.086   1.577  13.741 -0.3492  0.2031 -0.5390
15672TIP3    H168507   2.078   1.637  13.668  0.4365 -0.0886 -0.8690
15672TIP3    H268508   2.178   1.551  13.742 -0.6651 -0.9591 -0.3818
15673TIP3   OH268509   0.900   2.360  11.229 -0.0719  0.1835  0.2377
15673TIP3    H168510   0.970   2.304  11.259 -0.7952 -1.4848 -1.1148
15673TIP3    H268511   0.905   2.438  11.285  1.1043 -1.1010  1.9345
15674TIP3   OH268512   5.855   2.718  13.880 -0.2436  0.0353  0.1172
15674TIP3    H168513   5.892   2.633  13.857  1.0308  0.6704 -0.2468
15674TIP3    H268514   5.931   2.775  13.891 -1.0071  0.8047  1.6866
15675TIP3   OH268515   2.871   1.715  13.563 -0.6837 -0.3996  0.0185
15675TIP3    H168516   2.849   1.790  13.618  1.8826  0.8426 -0.5905
15675TIP3    H268517   2.825   1.731  13.480 -0.6283  0.1984  0.1047
15676TIP3   OH268518   3.425   3.424   3.079  0.0454 -0.1343  0.2050
15676TIP3    H168519   3.480   3.406   3.003  0.8498  0.1895  0.7008
15676TIP3    H268520   3.342   3.380   3.060  0.7451 -1.3134 -0.2067
15677TIP3   OH268521   0.800   2.895   3.897  0.4102 -0.0591 -0.0854
15677TIP3    H168522   0.731   2.952   3.865 -0.6472 -0.5539  1.2834
15677TIP3    H268523   0.881   2.932   3.860 -0.5331  0.7002 -1.4313
15678TIP3   OH268524   2.191   1.299   2.238  0.1572  0.1503 -0.1450
15678TIP3    H168525   2.140   1.363   2.288 -0.8532  1.2389 -2.4606
15678TIP3    H268526   2.266   1.349   2.206  0.2863 -0.2723 -0.4974
15679TIP3   OH268527   4.568   5.747   2.085  0.3091  0.3977  0.3898
15679TIP3    H168528   4.512   5.775   2.158 -2.4708 -3.8211  0.0619
15679TIP3    H268529   4.519   5.770   2.007  0.4253 -0.5738  0.0208
15680TIP3   OH268530   5.071   2.929   0.517  0.4322  0.3318 -0.8941
15680TIP3    H168531   5.130   2.900   0.586 -1.9204 -1.5493  0.4283
15680TIP3    H268532   5.000   2.973   0.563 -0.9602 -0.5592 -2.1311
15681TIP3   OH268533   1.699   5.816  12.300  0.5754 -0.2051  0.1870
15681TIP3    H168534   1.615   5.773  12.320  0.2788 -0.4999 -1.5366
15681TIP3    H268535   1.727   5.854  12.383 -0.7641 -0.9839  1.0282
15682TIP3   OH268536   1.781   2.280  14.289  0.4443 -0.3190  0.1772
15682TIP3    H168537   1.831   2.240  14.218  0.7954  1.9551 -0.9230
15682TIP3    H268538   1.779   2.373  14.267 -0.0308  0.3397  2.8292
15683TIP3   OH268539   2.637   5.579   4.640  0.2730  0.3895 -0.1541
15683TIP3    H168540   2.572   5.648   4.648 -0.5221 -0.5730  1.9828
15683TIP3    H268541   2.672   5.567   4.728 -0.7705 -2.9917 -0.1069
15684TIP3   OH268542   4.576   2.258   4.730  0.0692  0.5248  0.2804
15684TIP3    H168543   4.597   2.342   4.770  0.3856  1.6476 -2.2097
15684TIP3    H268544   4.619   2.260   4.645 -0.1954 -2.0326  0.0388
15685TIP3   OH268545   5.233   2.934   4.870  0.8210  0.4520 -0.6523
15685TIP3    H168546   5.202   2.848   4.899 -0.4261  0.9238 -0.5665
15685TIP3    H268547   5.314   2.948   4.918  0.2316 -0.0043  0.4763
15686TIP3   OH268548   4.714   0.820  14.161 -0.5016  0.1840  0.2293
15686TIP3    H168549   4.694   0.904  14.203  0.0521  0.4306  0.0135
15686TIP3    H268550   4.806   0.804  14.182 -0.4509 -0.0947 -0.1943
15687TIP3   OH268551   5.892   2.036   3.194  0.1031  0.2517 -0.0457
15687TIP3    H168552   5.901   2.057   3.102 -0.5314 -1.7868 -0.6090
15687TIP3    H268553   5.979   2.011   3.223  0.2943  0.8632 -0.0970
15688TIP3   OH268554   2.793   0.583   0.866  0.6840 -0.4669  0.2629
15688TIP3    H168555   2.833   0.650   0.921 -0.0992 -0.4899  0.8651
15688TIP3    H268556   2.727   0.630   0.815  1.9732 -0.2823 -1.2910
15689TIP3   OH268557   0.180   5.197   4.078  0.3045 -0.1986  0.4182
15689TIP3    H168558   0.163   5.271   4.019  1.4514  0.0112  0.3320
15689TIP3    H268559   0.221   5.131   4.021  1.1970 -0.0870  0.9206
15690TIP3   OH268560   0.873   4.546   0.835 -0.1333  0.6694 -0.1907
15690TIP3    H168561   0.912   4.459   0.829 -0.5049  0.5232 -0.5290
15690TIP3    H268562   0.931   4.595   0.893  0.8747  0.6494 -1.1845
15691TIP3   OH268563   6.394   5.530   4.695  0.1579 -0.0134 -0.2026
15691TIP3    H168564   6.396   5.556   4.787 -1.3852  1.3580 -0.5206
15691TIP3    H268565   6.312   5.481   4.685  0.8181 -1.0464 -0.6307
15692TIP3   OH268566   2.842   3.652   6.438  0.6054 -0.1025 -0.2783
15692TIP3    H168567   2.897   3.728   6.456  0.7925  0.7911 -4.2183
15692TIP3    H268568   2.903   3.581   6.420  0.4429 -0.2134 -0.3942
15693TIP3   OH268569   4.930   2.785  11.239  0.3770  0.0433 -0.3036
15693TIP3    H168570   4.956   2.874  11.261  1.2553 -0.6204  1.4382
15693TIP3    H268571   4.850   2.770  11.289  1.4870 -0.9184  1.2050
15694TIP3   OH268572   4.607   3.811  10.452 -0.9440 -0.5746  0.2384
15694TIP3    H168573   4.594   3.812  10.357  1.3858  0.0228 -0.1072
15694TIP3    H268574   4.629   3.902  10.474  0.2607 -1.0539  1.0798
15695TIP3   OH268575   4.812   1.210  11.860 -0.0581 -0.0207 -0.3440
15695TIP3    H168576   4.816   1.305  11.865 -1.4984  0.0212  0.1670
15695TIP3    H268577   4.880   1.186  11.797 -0.0184  1.3781 -0.8365
15696TIP3   OH268578   5.125   0.838   2.018  0.5346  0.0242 -0.1433
15696TIP3    H168579   5.162   0.752   1.998  0.9904  0.3453 -0.6944
15696TIP3    H268580   5.055   0.850   1.954 -0.3973 -0.4900  0.7620
15697TIP3   OH268581   0.499   1.053   0.739 -0.5630 -0.0657  0.1665
15697TIP3    H168582   0.488   1.147   0.729 -2.4937 -0.1847  0.9204
15697TIP3    H268583   0.530   1.042   0.829 -0.8428 -0.1658  0.2535
15698TIP3   OH268584   4.291   5.787  14.608  0.2614  0.2595 -0.3275
15698TIP3    H168585   4.198   5.801  14.627  0.3525 -1.2686  1.3580
15698TIP3    H268586   4.337   5.847  14.668  0.4284 -1.2419  1.0725
15699TIP3   OH268587   6.404   0.414   4.212 -0.4953 -0.4107  0.0940
15699TIP3    H168588   6.332   0.471   4.184 -0.2401 -0.9672 -1.7849
15699TIP3    H268589   6.476   0.435   4.153  1.1149  0.5763  2.3751
15700TIP3   OH268590   3.676   6.721   2.391  0.3801 -0.7364  0.2118
15700TIP3    H168591   3.687   6.656   2.322 -1.6262 -2.1182  1.1558
15700TIP3    H268592   3.629   6.793   2.348 -0.3116 -1.3209 -0.0173
15701TIP3   OH268593   0.574   3.103  15.103 -0.1112  0.1917 -0.5332
15701TIP3    H168594   0.630   3.179  15.117  1.2095 -0.9530  0.4935
15701TIP3    H268595   0.486   3.134  15.125  0.5965  1.0793  1.1113
15702TIP3   OH268596   2.630   5.333   4.867  0.2421  0.1015 -0.1878
15702TIP3    H168597   2.696   5.286   4.918  2.1602  0.3015 -2.4336
15702TIP3    H268598   2.652   5.426   4.878 -1.2778  0.3356  1.1646
15703TIP3   OH268599   6.529   6.441   5.570 -0.1807  0.2964 -0.3583
15703TIP3    H168600   6.485   6.436   5.655 -1.7739 -2.4648 -1.2641
15703TIP3    H268601   6.458   6.454   5.508  0.5140 -1.6418 -1.6138
15704TIP3   OH268602   5.943   3.356  11.702 -0.3017  0.2089 -0.2259
15704TIP3    H168603   5.948   3.260  11.697 -3.3949  0.0023 -0.5001
15704TIP3    H268604   6.018   3.387  11.651  0.4539 -2.0518 -0.5409
15705TIP3   OH268605   0.655   0.124   0.549 -0.3304 -0.4789  0.4878
15705TIP3    H168606   0.680   0.159   0.635  1.6930 -0.8953  0.0871
15705TIP3    H268607   0.685   0.033   0.551  0.9066 -0.1224 -1.1302
15706TIP3   OH268608   4.405   0.093  13.702 -1.0961  0.1108 -0.5651
15706TIP3    H168609   4.482   0.101  13.759 -1.6383 -0.7340  0.2913
15706TIP3    H268610   4.383   0.183  13.680 -0.2714  0.3982 -0.2647
15707TIP3   OH268611   1.223   5.261   6.091  0.1265  0.4136  0.2880
15707TIP3    H168612   1.211   5.336   6.150  0.0623  0.0764  0.7058
15707TIP3    H268613   1.254   5.191   6.148 -1.1452 -0.2771  0.1307
15708TIP3   OH268614   0.878   1.339   3.076 -0.2510 -0.9422 -0.1666
15708TIP3    H168615   0.954   1.298   3.034 -1.4267 -1.2941 -2.0181
15708TIP3    H268616   0.835   1.268   3.123 -1.4870 -1.5799 -2.1931
15709TIP3   OH268617   1.152   4.172  13.414 -0.0655 -0.2047 -0.8591
15709TIP3    H168618   1.139   4.187  13.508 -1.6154 -0.5708 -0.9991
15709TIP3    H268619   1.183   4.256  13.380  1.9139 -0.4562  0.2018
15710TIP3   OH268620   1.120   1.772  13.956  0.1056  0.2855  0.6506
15710TIP3    H168621   1.210   1.756  13.985  0.5278 -0.5472 -1.0659
15710TIP3    H268622   1.067   1.708  14.004  0.9518 -1.9147 -1.2711
15711TIP3   OH268623   3.778   5.370  16.031  0.1002 -0.0732 -0.5171
15711TIP3    H168624   3.711   5.354  16.097  0.1970  4.2880  0.7533
15711TIP3    H268625   3.737   5.429  15.968  1.5712 -0.2890 -1.7132
15712TIP3   OH268626   0.251   1.576  12.376 -0.3452 -0.3907  0.3161
15712TIP3    H168627   0.173   1.576  12.321 -0.9959  0.5311  1.2222
15712TIP3    H268628   0.248   1.659  12.423  2.0578  0.3917 -0.8465
15713TIP3   OH268629   1.944   6.142  16.991  0.5359 -0.3458 -0.1479
15713TIP3    H168630   1.895   6.065  17.022 -0.2841 -0.2347 -1.1329
15713TIP3    H268631   1.995   6.109  16.917  1.1966 -0.2307  0.2567
15714TIP3   OH268632   2.654   6.571  14.035  0.0323  0.0246  0.0805
15714TIP3    H168633   2.663   6.612  14.121  0.8808  1.2145 -0.5740
15714TIP3    H268634   2.743   6.550  14.009 -0.3062 -1.2512 -0.0809
15715TIP3   OH268635   1.152   2.813  13.478  0.1258  0.2457 -1.2703
15715TIP3    H168636   1.105   2.749  13.532 -1.8315  2.0165 -0.8125
15715TIP3    H268637   1.219   2.849  13.536  0.3412 -0.3817 -1.1195
15716TIP3   OH268638   3.224   2.818   5.310  0.6532  0.1472  0.4118
15716TIP3    H168639   3.165   2.855   5.244 -0.1185 -0.6999  0.6068
15716TIP3    H268640   3.224   2.724   5.292 -1.2574 -0.4013  2.8843
15717TIP3   OH268641   6.184   0.749  16.411  0.3830 -0.2393  0.1048
15717TIP3    H168642   6.180   0.662  16.371  0.0129  0.3808 -1.2461
15717TIP3    H268643   6.096   0.763  16.448  0.4853 -0.4873  0.4480
15718TIP3   OH268644   5.086   6.787  15.341  0.0558  0.0046  0.2375
15718TIP3    H168645   5.052   6.739  15.266  0.0672  2.4525 -1.3922
15718TIP3    H268646   5.180   6.766  15.342  0.7439  2.6328 -2.5870
15719TIP3   OH268647   5.640   6.203  16.352  0.6595 -0.0745  0.2274
15719TIP3    H168648   5.686   6.190  16.435  1.6587 -1.0221 -0.4661
15719TIP3    H268649   5.554   6.163  16.367  0.6484  0.2188  0.9756
15720TIP3   OH268650   6.151   2.436   3.015  0.0962  0.0462  1.4740
15720TIP3    H168651   6.135   2.530   3.015 -1.6243 -0.2326  1.1060
15720TIP3    H268652   6.221   2.423   2.951 -2.0302  0.7066 -1.0565
15721TIP3   OH268653   3.269   1.020  14.796 -1.0415  0.1548 -0.3214
15721TIP3    H168654   3.328   1.041  14.724 -0.4925  0.7856  0.3079
15721TIP3    H268655   3.246   0.928  14.782  1.2231 -0.5224  0.2046
15722TIP3   OH268656   2.678   4.228  12.444  0.2567  0.1128 -0.1799
15722TIP3    H168657   2.729   4.287  12.389 -0.6666 -0.3687 -1.6080
15722TIP3    H268658   2.606   4.282  12.477  0.4614  0.2519  0.0348
15723TIP3   OH268659   0.297   5.002  13.996  0.4482  0.1522  0.3081
15723TIP3    H168660   0.287   4.943  13.921 -0.6629 -0.1715  0.6923
15723TIP3    H268661   0.218   4.987  14.049  2.6333 -1.8838  3.1606
15724TIP3   OH268662   4.574   2.321  14.676  0.4901  0.1966  0.2051
15724TIP3    H168663   4.506   2.273  14.723  0.2123  1.2743  0.9390
15724TIP3    H268664   4.608   2.259  14.612 -1.1317 -0.3768 -0.1181
15725TIP3   OH268665   4.194   1.684  10.225  0.0174 -0.5733 -0.4740
15725TIP3    H168666   4.159   1.680  10.314  0.1479 -1.3029 -0.4567
15725TIP3    H268667   4.191   1.777  10.203  1.5524 -0.1736  0.9082
15726TIP3   OH268668   2.526   0.900   5.315 -0.1292  0.4601 -0.4114
15726TIP3    H168669   2.580   0.871   5.388 -0.1569  2.9522  0.6427
15726TIP3    H268670   2.443   0.853   5.325  0.2938 -0.0977  0.4749
15727TIP3   OH268671   3.400   0.624  15.963 -0.5555 -0.0195  0.3049
15727TIP3    H168672   3.367   0.592  15.879  0.1900 -1.0487  0.3858
15727TIP3    H268673   3.469   0.562  15.986  2.1100  2.5811 -0.3465
15728TIP3   OH268674   5.346   1.325  10.679 -0.6475  0.0001 -0.8867
15728TIP3    H168675   5.402   1.380  10.623  0.5317  1.0157  1.2270
15728TIP3    H268676   5.262   1.322  10.633  0.3014  0.7723 -2.7335
15729TIP3   OH268677   1.230   0.259  15.713  0.0271 -0.3592  0.3286
15729TIP3    H168678   1.151   0.241  15.764  0.2319 -0.5190  0.5877
15729TIP3    H268679   1.210   0.340  15.666 -0.5073 -0.7135 -0.0569
15730TIP3   OH268680   2.529   5.156   3.938 -1.0269 -0.2065  0.5402
15730TIP3    H168681   2.508   5.173   3.847 -1.9859 -1.4144  0.5145
15730TIP3    H268682   2.481   5.075   3.959 -0.2245 -0.3523  1.8869
15731TIP3   OH268683   0.206   0.169  12.141  0.7730 -0.2104  0.1844
15731TIP3    H168684   0.189   0.257  12.110  0.5577 -0.5799 -0.7624
15731TIP3    H268685   0.219   0.117  12.062 -0.8552 -1.3812  0.6354
15732TIP3   OH268686   1.908   3.881  15.257  0.3788 -0.4171  0.2439
15732TIP3    H168687   1.930   3.792  15.285  1.3184  0.3109  1.9312
15732TIP3    H268688   1.905   3.876  15.162  0.9718 -2.1435  0.2915
15733TIP3   OH268689   0.016   3.450   4.985  0.1922  0.2104 -0.2381
15733TIP3    H168690   0.052   3.538   4.972  1.2549 -0.2409 -0.3525
15733TIP3    H268691   0.065   3.414   5.059 -1.8349  0.5649  1.3464
15734TIP3   OH268692   2.822   0.571  11.924  0.0083  0.4832  0.4734
15734TIP3    H168693   2.768   0.521  11.863 -1.7592  0.0418  2.3617
15734TIP3    H268694   2.763   0.595  11.995  1.4649  3.0093  0.8910
15735TIP3   OH268695   6.085   0.795  10.606 -0.4720 -0.0147 -0.0467
15735TIP3    H168696   6.059   0.872  10.657 -0.3958 -0.2254  0.3114
15735TIP3    H268697   6.152   0.828  10.546  0.3631 -0.0343  0.8669
15736TIP3   OH268698   6.786   1.867  16.147  0.4826 -0.1548  0.2192
15736TIP3    H168699   6.751   1.806  16.213 -0.0130  0.7017  0.7595
15736TIP3    H268700   6.830   1.811  16.084 -0.3842 -1.1203  0.4525
15737TIP3   OH268701   2.785   3.908  14.481  0.3218  0.5116  0.7400
15737TIP3    H168702   2.799   3.836  14.419  0.2422  2.7688 -2.0172
15737TIP3    H268703   2.708   3.955  14.448  0.4782  1.9834  2.3467
15738TIP3   OH268704   6.695   0.834  13.023 -0.4052  0.1845 -0.1601
15738TIP3    H168705   6.732   0.746  13.034 -0.3607  0.4400  1.8660
15738TIP3    H268706   6.767   0.886  12.987  0.8047  0.3147  2.3519
15739TIP3   OH268707   6.820   3.351   0.452  0.3376 -0.0103  0.0991
15739TIP3    H168708   6.842   3.258   0.457 -0.4549 -0.1312  1.6132
15739TIP3    H268709   6.848   3.378   0.365 -0.3410 -1.9154 -0.7278
15740TIP3   OH268710   3.429   5.556  11.436 -0.0386  0.3197  0.4618
15740TIP3    H168711   3.461   5.630  11.488 -0.5515  1.4966 -0.8439
15740TIP3    H268712   3.360   5.594  11.381  1.9005 -0.4081 -2.5651
15741TIP3   OH268713   5.124   2.086   0.887  0.3961 -0.7147 -0.2259
15741TIP3    H168714   5.052   2.080   0.824 -0.8463 -0.9837  1.1837
15741TIP3    H268715   5.202   2.062   0.837 -0.6462 -1.5401 -1.4951
15742TIP3   OH268716   4.571   1.356  11.039  0.4294 -0.4444 -0.1205
15742TIP3    H168717   4.635   1.384  10.973  0.5683  2.5693  1.2518
15742TIP3    H268718   4.624   1.316  11.108  0.6593  0.1019  0.0226
15743TIP3   OH268719   1.359   2.372  16.266  0.0313  0.1066  0.3461
15743TIP3    H168720   1.323   2.329  16.188  1.2381 -0.3112  0.0226
15743TIP3    H268721   1.353   2.465  16.246 -1.6000  0.0876  0.6176
15744TIP3   OH268722   2.919   4.914   0.109 -0.0031  0.2782 -0.0400
15744TIP3    H168723   2.913   4.901   0.014 -0.8695 -1.7198  0.2581
15744TIP3    H268724   2.828   4.922   0.138  0.1157 -1.4604  0.8972
15745TIP3   OH268725   5.113   3.780   0.629  0.3376  0.7588 -0.1406
15745TIP3    H168726   5.128   3.871   0.605 -0.1147  0.4733 -1.5217
15745TIP3    H268727   5.039   3.752   0.575 -0.4914  0.0032  1.3220
15746TIP3   OH268728   6.379   0.458  13.385 -0.2703  0.0835 -0.3139
15746TIP3    H168729   6.398   0.551  13.376  0.4624  0.0321  0.6475
15746TIP3    H268730   6.388   0.440  13.479  0.1354 -1.0643 -0.5578
15747TIP3   OH268731   0.408   2.767   1.631 -0.0960  0.0080  0.3074
15747TIP3    H168732   0.364   2.721   1.559 -1.9372 -0.2433  1.5657
15747TIP3    H268733   0.395   2.712   1.707  1.9205  0.2448  0.8505
15748TIP3   OH268734   1.294   4.244   5.997 -0.1693  0.7766  0.4947
15748TIP3    H168735   1.218   4.239   5.940  2.6803  0.1489 -3.4525
15748TIP3    H268736   1.308   4.155   6.028  0.5771  0.3552 -1.0342
15749TIP3   OH268737   5.039   6.093  15.430  0.0434  0.2626 -0.0406
15749TIP3    H168738   5.002   6.166  15.480  0.1019 -1.7168  3.0462
15749TIP3    H268739   5.130   6.088  15.458 -0.1131 -1.3328  0.2502
15750TIP3   OH268740   4.135   1.893   0.110 -0.6393  0.4738 -0.1900
15750TIP3    H168741   4.059   1.947   0.086  0.2155  2.5245  1.4689
15750TIP3    H268742   4.187   1.888   0.030 -1.1454  1.4555 -0.5952
15751TIP3   OH268743   6.393   0.945  13.659 -0.3160 -0.1735 -0.1493
15751TIP3    H168744   6.327   0.877  13.670  0.7824 -1.2548 -0.1618
15751TIP3    H268745   6.398   0.959  13.565 -0.7424  0.1176 -0.1272
15752TIP3   OH268746   6.109   2.789  13.631 -0.1686  0.2188  0.4958
15752TIP3    H168747   6.040   2.756  13.573  0.1518 -1.8032  1.2251
15752TIP3    H268748   6.182   2.810  13.572 -0.8054  0.7852 -0.1047
15753TIP3   OH268749   2.559   1.809   0.476  0.2001 -0.0122  0.0372
15753TIP3    H168750   2.545   1.714   0.481 -1.5793  0.3172  1.8299
15753TIP3    H268751   2.474   1.845   0.450  0.0033  1.3277  2.4316
15754TIP3   OH268752   1.359   4.519  16.466  0.3671 -0.4018 -0.6925
15754TIP3    H168753   1.327   4.446  16.519 -2.3124  1.2805  0.0990
15754TIP3    H268754   1.441   4.545  16.508  0.3694 -1.7220  0.1478
15755TIP3   OH268755   0.897   4.218   0.942  0.1783  0.1836  0.9225
15755TIP3    H168756   0.937   4.132   0.929  0.1595  0.3945 -0.6374
15755TIP3    H268757   0.882   4.224   1.036  1.9925 -0.6972  1.2711
15756TIP3   OH268758   1.404   2.328  15.006 -0.3461 -0.4321 -0.3245
15756TIP3    H168759   1.387   2.234  14.997 -1.9951 -0.1834 -0.0099
15756TIP3    H268760   1.429   2.339  15.097 -0.7435 -0.4729 -0.2123
15757TIP3   OH268761   0.162   1.949  12.928 -0.0605 -0.0560 -0.1356
15757TIP3    H168762   0.180   1.884  12.860  0.5031  0.7176 -0.7227
15757TIP3    H268763   0.149   2.031  12.881  0.0879  0.4360  0.6740
15758TIP3   OH268764   1.703   2.813  16.180  0.1022 -0.7309  0.4997
15758TIP3    H168765   1.735   2.825  16.270  0.8304  1.9071 -0.0869
15758TIP3    H268766   1.669   2.898  16.154 -1.3678 -1.8191 -1.2693
15759TIP3   OH268767   3.025   2.747   4.610  0.0951 -0.3361 -0.0725
15759TIP3    H168768   3.089   2.808   4.649 -0.4730 -0.0752  0.4696
15759TIP3    H268769   2.976   2.714   4.685  1.2651 -2.4822 -0.2221
15760TIP3   OH268770   6.069   6.766  15.877 -0.0592  0.1551 -0.1505
15760TIP3    H168771   6.025   6.690  15.914  2.3508 -1.3291 -0.2418
15760TIP3    H268772   6.136   6.789  15.941  1.1177  0.4055 -1.4375
15761TIP3   OH268773   4.192   1.459  12.365  0.3424 -0.2022  0.2302
15761TIP3    H168774   4.219   1.376  12.403  1.6454  0.6885  1.3133
15761TIP3    H268775   4.099   1.447  12.344  0.1337 -1.4139  1.7704
15762TIP3   OH268776   4.740   0.024   4.498 -0.3261 -0.6845 -0.6662
15762TIP3    H168777   4.743  -0.070   4.483  0.0778 -0.4724 -1.9798
15762TIP3    H268778   4.826   0.045   4.536 -1.3006 -1.1997  1.9466
15763TIP3   OH268779   4.236   5.898   4.651 -0.2974 -0.2094  0.1179
15763TIP3    H168780   4.158   5.859   4.611 -1.9608  1.2373  1.8968
15763TIP3    H268781   4.269   5.830   4.710 -1.1931 -0.2103  0.6231
15764TIP3   OH268782   3.584   2.441  12.958  0.5583  0.4537 -0.2389
15764TIP3    H168783   3.502   2.424  12.912 -0.0968 -0.1824  1.1439
15764TIP3    H268784   3.567   2.521  13.009 -0.2168 -1.2723  2.3445
15765TIP3   OH268785   5.599   6.152  13.183 -0.4419  0.1344 -0.0514
15765TIP3    H168786   5.575   6.147  13.276  1.3118 -3.4061  0.2748
15765TIP3    H268787   5.517   6.134  13.137 -1.7233  3.6028  0.6790
15766TIP3   OH268788   1.505   0.473  17.128  0.0139 -0.1515 -0.4612
15766TIP3    H168789   1.560   0.447  17.202 -0.7565 -0.3967  0.0284
15766TIP3    H268790   1.493   0.393  17.077  1.1495  0.1711 -1.2595
15767TIP3   OH268791   5.143   3.856  15.591  0.3574 -0.5327 -0.1012
15767TIP3    H168792   5.060   3.843  15.545 -0.5853 -0.3216  1.5029
15767TIP3    H268793   5.202   3.891  15.524 -1.2198  0.5637 -0.9567
15768TIP3   OH268794   4.802   2.405  16.294  0.2739  0.1364 -0.1129
15768TIP3    H168795   4.736   2.392  16.362 -0.9046 -1.9824 -1.5911
15768TIP3    H268796   4.764   2.470  16.235  0.4950  0.6235  0.2877
15769TIP3   OH268797   6.061   1.422   0.091  0.2926  0.3799  0.4944
15769TIP3    H168798   5.980   1.471   0.102  0.5734  0.5930  1.6172
15769TIP3    H268799   6.119   1.482   0.044 -0.3516  0.0498 -0.7588
15770TIP3   OH268800   1.001   1.888  11.157  0.0322  0.4450  0.0855
15770TIP3    H168801   1.087   1.862  11.189 -0.2942  0.1972  0.7674
15770TIP3    H268802   0.946   1.810  11.168 -0.6021  0.9856  0.8619
15771TIP3   OH268803   0.574   2.366   0.522  1.0140  0.5018  0.0068
15771TIP3    H168804   0.554   2.454   0.490  0.5448  0.1722 -0.5974
15771TIP3    H268805   0.489   2.329   0.546  1.2933  0.5190  1.0653
15772TIP3   OH268806   3.722   1.529  12.859  0.1280 -0.1156  0.0319
15772TIP3    H168807   3.678   1.586  12.796  0.5194  1.4946  1.1744
15772TIP3    H268808   3.769   1.465  12.806  1.0354  1.6536 -1.3512
15773TIP3   OH268809   4.280   3.716   0.157  0.3387  0.2184 -0.0089
15773TIP3    H168810   4.310   3.783   0.218 -0.2411 -0.4099  0.9683
15773TIP3    H268811   4.213   3.759   0.104  1.3155  0.9573 -0.6603
15774TIP3   OH268812   0.817   4.045   2.282  0.2482 -0.2021  0.2149
15774TIP3    H168813   0.840   4.134   2.309  0.3564 -0.1018 -0.1959
15774TIP3    H268814   0.799   4.053   2.188  1.8630 -0.9327 -0.1630
15775TIP3   OH268815   5.271   5.728  17.024 -0.2650 -0.4059  0.2694
15775TIP3    H168816   5.209   5.675  17.076  0.5008 -0.4032  1.2015
15775TIP3    H268817   5.300   5.669  16.955 -0.6374 -0.6959  0.3574
15776TIP3   OH268818   6.243   0.177  13.368  0.0675  0.5641  0.2775
15776TIP3    H168819   6.329   0.212  13.394  0.4739 -0.4926  0.4073
15776TIP3    H268820   6.182   0.248  13.384  1.0694  1.6625 -0.7358
15777TIP3   OH268821   3.884   3.085  11.183 -0.0793  0.1003  0.2662
15777TIP3    H168822   3.910   3.081  11.091 -1.3554 -0.0471 -0.0974
15777TIP3    H268823   3.805   3.031  11.188 -0.5209  0.8226  1.2700
15778TIP3   OH268824   4.688   1.889  17.006 -0.0198 -0.2399 -0.3089
15778TIP3    H168825   4.688   1.793  16.997  0.3829 -0.4221  1.4343
15778TIP3    H268826   4.644   1.920  16.927  0.1476 -1.8496 -1.0611
15779TIP3   OH268827   4.705   2.005  17.256 -0.2322  0.1487  0.1787
15779TIP3    H168828   4.650   1.965  17.188  0.9914  0.8126 -1.2439
15779TIP3    H268829   4.794   1.997  17.221  0.2717  1.8367  1.0347
15780TIP3   OH268830   4.462   1.232  14.050  0.2818  0.0457  0.3274
15780TIP3    H168831   4.442   1.262  13.961  0.5280  2.1271  0.9675
15780TIP3    H268832   4.432   1.141  14.051 -0.0098  0.0877 -1.7906
15781TIP3   OH268833   3.116   0.086  16.755  0.0495 -0.4349 -0.1832
15781TIP3    H168834   3.109   0.096  16.660  1.8493  2.8767 -0.0285
15781TIP3    H268835   3.189   0.025  16.767 -0.1583 -0.8358 -0.8975
15782TIP3   OH268836   5.424   5.644  13.397  0.4378 -0.1833 -0.1534
15782TIP3    H168837   5.388   5.610  13.478  0.4515  0.1831  0.0071
15782TIP3    H268838   5.505   5.594  13.384  0.7852  0.2313  0.4115
15783TIP3   OH268839   1.705   2.533   0.637 -0.4285 -0.2629  0.6136
15783TIP3    H168840   1.674   2.545   0.548 -1.0279  2.7185  1.1863
15783TIP3    H268841   1.799   2.519   0.628 -0.5043 -0.1280 -0.4702
15784TIP3   OH268842   2.837   1.260   3.933 -0.0922 -0.8143 -0.5087
15784TIP3    H168843   2.859   1.167   3.927  2.0639 -0.3743  0.0841
15784TIP3    H268844   2.836   1.279   4.027  1.6394  0.2097 -0.6599
15785TIP3   OH268845   5.769   3.333   2.942 -0.3880  0.1262 -0.3450
15785TIP3    H168846   5.720   3.378   3.011 -0.1211 -0.3047  0.1355
15785TIP3    H268847   5.711   3.334   2.866 -0.9363  0.0634  0.0690
15786TIP3   OH268848   0.054   6.316  14.165  0.3144  0.2566 -0.2039
15786TIP3    H168849   0.054   6.226  14.133  0.0773  0.6460 -1.3196
15786TIP3    H268850  -0.028   6.325  14.214  1.6296 -0.9590  2.3511
15787TIP3   OH268851   2.800   6.543   3.904 -0.0049  0.2461  0.6165
15787TIP3    H168852   2.762   6.630   3.891  1.9280  0.6605 -2.7896
15787TIP3    H268853   2.880   6.560   3.954 -0.4199  0.2332  1.2913
15788TIP3   OH268854   5.948   4.345  11.382 -0.0611 -0.3521 -0.7157
15788TIP3    H168855   6.039   4.324  11.404 -0.0594  0.1814 -0.2089
15788TIP3    H268856   5.905   4.260  11.373  0.6433 -0.6184 -1.6211
15789TIP3   OH268857   1.269   0.355   2.190  0.7022  0.8809  0.2161
15789TIP3    H168858   1.287   0.431   2.246  1.6893  0.2418  0.7921
15789TIP3    H268859   1.190   0.317   2.227  1.3693  0.4421  1.2177
15790TIP3   OH268860   6.005   6.098   3.409 -0.0215  0.1989 -0.3715
15790TIP3    H168861   6.075   6.162   3.395 -0.6111  0.8763 -0.2590
15790TIP3    H268862   5.994   6.095   3.504  0.1475 -0.2314 -0.3626
15791TIP3   OH268863   3.469   2.602  16.178  0.4125  0.3044 -1.0226
15791TIP3    H168864   3.502   2.673  16.123  0.0645 -0.9830 -2.9605
15791TIP3    H268865   3.379   2.590  16.150  0.1490 -0.2085  0.0180
15792TIP3   OH268866   3.786   5.673   3.935 -0.9679 -0.8153  0.1342
15792TIP3    H168867   3.787   5.582   3.965  0.6770  0.0465  2.8860
15792TIP3    H268868   3.878   5.693   3.916 -1.2398  0.4622  0.0997
15793TIP3   OH268869   0.782   6.135  13.001  0.3776 -0.1477  0.3021
15793TIP3    H168870   0.735   6.067  13.049 -0.2811  1.3665  1.8701
15793TIP3    H268871   0.840   6.174  13.065  0.2595  1.2125 -0.4014
15794TIP3   OH268872   6.370   0.879  10.515 -0.3427  0.5508  0.6039
15794TIP3    H168873   6.366   0.963  10.560  0.0360 -0.1510  1.9906
15794TIP3    H268874   6.459   0.875  10.479 -0.2084  0.5545  0.9342
15795TIP3   OH268875   3.827   4.289  13.963 -0.4812  0.1584  0.5825
15795TIP3    H168876   3.736   4.266  13.981 -0.4237  0.5018  1.3219
15795TIP3    H268877   3.859   4.328  14.045  0.6763 -1.0349  0.7161
15796TIP3   OH268878   3.312   3.411  14.694 -0.7879 -0.0922  0.2153
15796TIP3    H168879   3.323   3.485  14.633 -1.9880  0.3688  0.5403
15796TIP3    H268880   3.285   3.338  14.638 -1.6786  0.2749  0.1567
15797TIP3   OH268881   4.066   2.319  17.255  0.2087 -0.1336 -0.3493
15797TIP3    H168882   4.049   2.269  17.335 -1.7680  0.3138 -0.4694
15797TIP3    H268883   4.037   2.408  17.277  1.8218  0.5126 -0.8035
15798TIP3   OH268884   4.342   2.083  11.072 -0.4163  0.0438 -0.4049
15798TIP3    H168885   4.350   1.991  11.046 -0.2501 -0.3627  1.0571
15798TIP3    H268886   4.250   2.093  11.096 -0.2390  0.0331  0.2786
15799TIP3   OH268887   4.127   4.135   0.160  0.7254 -0.1943 -0.1286
15799TIP3    H168888   4.110   4.179   0.244  1.5160  3.4953 -1.7922
15799TIP3    H268889   4.041   4.116   0.125  0.3710 -0.6974  0.9848
15800TIP3   OH268890   1.896   4.818  14.821  0.6110  0.2762 -0.4826
15800TIP3    H168891   1.874   4.910  14.835 -0.4489 -0.0897  0.3445
15800TIP3    H268892   1.966   4.800  14.884 -0.7800 -0.0811  0.9921
15801TIP3   OH268893   4.402   2.270   0.701 -0.1897  0.2719 -0.2277
15801TIP3    H168894   4.327   2.224   0.664  0.5967 -0.0256 -1.4802
15801TIP3    H268895   4.477   2.236   0.652  0.4044  2.8764 -1.1797
15802TIP3   OH268896   5.140   6.182   4.387  0.4261 -0.4787 -0.0763
15802TIP3    H168897   5.193   6.137   4.323 -0.2527 -0.9655 -0.3030
15802TIP3    H268898   5.201   6.239   4.433  1.4451 -2.1674  0.7211
15803TIP3   OH268899   5.550   3.712  16.363  0.0320  0.0559  0.2187
15803TIP3    H168900   5.462   3.741  16.388 -0.0875 -0.8207  0.8142
15803TIP3    H268901   5.608   3.781  16.396 -0.4159  0.5570 -0.0348
15804TIP3   OH268902   4.829   0.967  11.955  0.3623 -0.2389 -0.2052
15804TIP3    H168903   4.747   0.969  12.004 -0.4755 -0.5277 -1.5637
15804TIP3    H268904   4.837   1.054  11.917  1.3694  0.2065  1.0131
15805TIP3   OH268905   4.691   5.148   0.564 -0.1832  0.1611  0.8504
15805TIP3    H168906   4.636   5.225   0.577 -1.4903 -0.5929  0.0311
15805TIP3    H268907   4.705   5.145   0.469  0.6217 -0.1010  0.9757
15806TIP3   OH268908   1.791   3.108  16.853 -0.5567 -0.4942 -0.1563
15806TIP3    H168909   1.758   3.170  16.788 -0.3815 -0.0696  0.1629
15806TIP3    H268910   1.833   3.039  16.802  0.5165  0.3721 -0.4562
15807TIP3   OH268911   0.738   2.525   4.626 -0.1160 -0.4886 -0.4569
15807TIP3    H168912   0.788   2.583   4.568  0.2039 -0.3726 -0.0673
15807TIP3    H268913   0.788   2.523   4.707 -1.1345  0.2397  0.2024
15808TIP3   OH268914   5.924   6.430   4.627  0.0350 -0.0444 -0.3116
15808TIP3    H168915   5.885   6.375   4.695  1.0168 -0.0314  0.2725
15808TIP3    H268916   5.905   6.520   4.655  2.2450  0.0308  1.0830
15809TIP3   OH268917   0.854   6.729   2.463 -0.1167  0.2763 -0.5669
15809TIP3    H168918   0.912   6.799   2.492  1.3738 -1.0207 -0.3923
15809TIP3    H268919   0.911   6.665   2.421 -1.8098  0.5389 -3.4299
15810TIP3   OH268920   1.894   3.794   5.989 -0.5172  0.1695 -0.0206
15810TIP3    H168921   1.886   3.770   5.897 -2.2408  0.2017  0.0955
15810TIP3    H268922   1.834   3.734   6.034 -1.6717  1.8805  0.7557
15811TIP3   OH268923   2.648   3.149   3.624 -0.4076  0.0728 -0.6078
15811TIP3    H168924   2.606   3.229   3.593 -1.6673 -0.3843 -0.1113
15811TIP3    H268925   2.576   3.088   3.638  0.5562 -1.2020 -1.1138
15812TIP3   OH268926   1.646   3.636  16.348  0.2516  0.1983  0.5051
15812TIP3    H168927   1.566   3.686  16.328 -0.1304  0.5114  2.7193
15812TIP3    H268928   1.647   3.565  16.284 -0.4430  1.6771 -1.1902
15813TIP3   OH268929   5.787   3.293   0.142  0.8057 -0.1779  0.2201
15813TIP3    H168930   5.779   3.271   0.235 -0.7769  0.2881  0.2096
15813TIP3    H268931   5.703   3.332   0.119  1.0720 -0.5647 -1.4944
15814TIP3   OH268932   0.942   5.048   1.893 -0.3925 -0.3273  0.6088
15814TIP3    H168933   0.933   5.126   1.949  0.4221 -0.5025  0.9882
15814TIP3    H268934   1.012   5.072   1.831  0.2373 -0.9565  1.0720
15815TIP3   OH268935   6.729   4.443   5.378  0.2803 -0.3008 -1.2080
15815TIP3    H168936   6.814   4.411   5.407 -0.5317 -0.3917  1.1170
15815TIP3    H268937   6.719   4.528   5.420 -1.2121 -0.7281 -0.6760
15816TIP3   OH268938   5.969   1.766   1.534 -0.4106 -0.2307  0.1323
15816TIP3    H168939   5.900   1.827   1.507 -0.7962 -0.6036  0.2793
15816TIP3    H268940   5.959   1.759   1.629 -1.4131 -1.8061 -0.0872
15817TIP3   OH268941   4.953   0.092  15.542  0.0735  0.9184  0.6664
15817TIP3    H168942   4.892   0.041  15.594 -0.8551  1.2082 -0.1206
15817TIP3    H268943   4.981   0.032  15.472 -1.3999  1.6063 -0.5512
15818TIP3   OH268944   3.880   1.657   3.897  0.0836  0.1476  0.4039
15818TIP3    H168945   3.947   1.698   3.844  0.7225 -1.2755  0.0845
15818TIP3    H268946   3.797   1.684   3.858  0.5055  0.7558 -0.0651
15819TIP3   OH268947   5.711   0.023  13.546  0.1507 -0.4690  0.7200
15819TIP3    H168948   5.800  -0.009  13.563  0.6232  0.5360  0.1960
15819TIP3    H268949   5.702   0.018  13.451 -0.6469 -1.2927  0.8269
15820TIP3   OH268950   3.212   5.640   0.934  0.3208  0.4319  0.6149
15820TIP3    H168951   3.297   5.627   0.976  1.5621  0.5923 -1.7784
15820TIP3    H268952   3.233   5.674   0.847 -2.1654 -0.4401 -0.3670
15821TIP3   OH268953   2.518   1.685  11.101  0.0487 -0.4820  0.0783
15821TIP3    H168954   2.606   1.661  11.072  0.4018 -1.7510  2.1509
15821TIP3    H268955   2.460   1.652  11.032  1.2622  1.8715 -2.1593
15822TIP3   OH268956   5.721   4.257   2.811  0.4476  0.5298 -0.0443
15822TIP3    H168957   5.756   4.175   2.845  0.2049  0.1881 -0.6151
15822TIP3    H268958   5.781   4.282   2.741 -0.9405 -0.5273 -1.6310
15823TIP3   OH268959   1.231   0.097   3.507  0.3539 -0.2550  0.0906
15823TIP3    H168960   1.183   0.022   3.542 -1.2832  0.6214 -0.2518
15823TIP3    H268961   1.217   0.094   3.413  0.3947  0.3962  0.0583
15824TIP3   OH268962   5.974   0.544  10.706  0.1035  0.4602  0.3860
15824TIP3    H168963   5.997   0.494  10.628  1.8565  0.8388  0.6434
15824TIP3    H268964   6.024   0.626  10.699  2.0386 -0.4045  2.9333
15825TIP3   OH268965   3.587   0.431   1.964 -0.0311  0.3349 -0.3034
15825TIP3    H168966   3.616   0.439   1.873  0.8366  1.2814  0.0476
15825TIP3    H268967   3.602   0.517   2.002 -2.5553  0.6173  0.1232
15826TIP3   OH268968   4.999   5.046   4.374  0.3332 -0.6314 -0.0717
15826TIP3    H168969   5.036   5.133   4.364  0.2405 -0.2611  2.4707
15826TIP3    H268970   4.929   5.056   4.439  0.7024 -2.6837  0.7097
15827TIP3   OH268971   2.144   1.858  12.573 -0.2046 -0.2150 -0.3316
15827TIP3    H168972   2.090   1.931  12.543  0.1583  0.5901  0.9025
15827TIP3    H268973   2.191   1.893  12.649 -0.4199 -1.8818  0.6105
15828TIP3   OH268974   2.424   1.147  15.499 -0.0182  0.6865  0.2245
15828TIP3    H168975   2.420   1.195  15.581 -1.2130 -0.4641  0.8492
15828TIP3    H268976   2.345   1.093  15.498  1.1025 -1.0072 -0.6223
15829TIP3   OH268977   4.417   0.636  12.218  0.4563  0.1972  0.0771
15829TIP3    H168978   4.396   0.710  12.275  1.9349 -0.4643  1.5006
15829TIP3    H268979   4.485   0.588  12.264  0.6288 -1.1931 -1.5652
15830TIP3   OH268980   5.024   0.483  16.823  0.2322  0.1611  0.3094
15830TIP3    H168981   5.023   0.560  16.880 -0.6829  1.4238 -1.3817
15830TIP3    H268982   4.997   0.515  16.737  2.2499 -1.5547 -1.0473
15831TIP3   OH268983   2.224   6.212   0.348  0.4992 -0.4985 -0.5730
15831TIP3    H168984   2.294   6.191   0.408  0.2281  0.1658 -0.0146
15831TIP3    H268985   2.192   6.297   0.377  0.0906 -0.3588 -1.3990
15832TIP3   OH268986   6.687   4.259  11.165 -0.3010  0.1159 -0.2915
15832TIP3    H168987   6.770   4.307  11.170 -1.0699  1.3678  0.8110
15832TIP3    H268988   6.620   4.325  11.181 -1.5362 -0.8280 -1.5117
15833TIP3   OH268989   1.969   5.347   3.561  0.0709  0.3557 -0.0288
15833TIP3    H168990   1.979   5.302   3.477  1.6809 -0.9314  0.8243
15833TIP3    H268991   2.053   5.332   3.606 -0.4625  1.7478  1.4536
15834TIP3   OH268992   3.290   2.172   5.602 -0.5580  0.1478  0.0860
15834TIP3    H168993   3.373   2.210   5.630 -1.8146  2.3359  0.9400
15834TIP3    H268994   3.248   2.142   5.683 -0.7740 -0.6183 -0.2994
15835TIP3   OH268995   1.926   0.080   4.782 -0.3753 -0.2361  0.5283
15835TIP3    H168996   1.960   0.067   4.870 -0.0561  1.1542  0.6163
15835TIP3    H268997   1.969   0.013   4.729  0.7049 -0.0034  1.0997
15836TIP3   OH268998   3.970   3.501   0.501 -0.2759  0.4947  0.7613
15836TIP3    H168999   4.004   3.450   0.575 -1.4282  0.4611  1.2809
15836TIP3    H269000   4.039   3.564   0.481  0.8080 -0.7118  0.6730
15837TIP3   OH269001   5.916   0.464   2.382 -0.2847 -0.5226  0.3321
15837TIP3    H169002   5.916   0.519   2.304 -0.1496  0.3945  0.9704
15837TIP3    H269003   5.846   0.401   2.367 -0.2590 -0.3484 -0.5301
15838TIP3   OH269004   2.831   4.482   2.320 -0.2451 -0.7147 -0.0981
15838TIP3    H169005   2.740   4.505   2.304 -0.1783 -0.2807  0.1402
15838TIP3    H269006   2.847   4.505   2.411  0.2569 -0.2503 -0.2933
15839TIP3   OH269007   2.887   4.579  16.076 -0.1485  0.2089  0.1539
15839TIP3    H169008   2.953   4.585  16.007  0.2094 -1.6293  0.2893
15839TIP3    H269009   2.920   4.509  16.133 -2.3493 -0.9424  0.0557
15840TIP3   OH269010   4.848   0.451  14.381  0.1228  0.0674 -0.7092
15840TIP3    H169011   4.812   0.539  14.377 -0.2024 -0.1208 -2.2753
15840TIP3    H269012   4.938   0.460  14.350  0.5043  0.0502  0.3655
15841TIP3   OH269013   4.272   2.253   4.786 -0.2752 -0.3227 -0.3358
15841TIP3    H169014   4.364   2.229   4.800 -0.5791 -0.2547  1.8818
15841TIP3    H269015   4.233   2.250   4.873 -2.9047 -2.4585 -1.5158
15842TIP3   OH269016   2.053   3.448   4.101 -0.2727 -0.0221  0.4984
15842TIP3    H169017   2.102   3.475   4.023 -0.3789 -0.8367  0.1486
15842TIP3    H269018   1.971   3.413   4.066 -0.4250 -0.1518  0.9940
15843TIP3   OH269019   5.957   3.287   5.206 -0.0476  0.0406 -0.6902
15843TIP3    H169020   6.037   3.303   5.257  0.0424 -0.3634 -0.7072
15843TIP3    H269021   5.981   3.217   5.145 -1.1131 -1.7601  0.9275
15844TIP3   OH269022   5.242   2.212  15.566  0.3384 -0.1425  0.3519
15844TIP3    H169023   5.205   2.300  15.569  1.6362  0.4448 -0.0294
15844TIP3    H269024   5.200   2.164  15.637 -0.0592  0.9252  0.8387
15845TIP3   OH269025   4.676   5.169  14.259  0.1553 -0.1100 -0.4032
15845TIP3    H169026   4.728   5.234  14.212 -0.0901  0.7457  0.4957
15845TIP3    H269027   4.587   5.202  14.257  0.3685  0.7175  1.9431
15846TIP3   OH269028   2.698   4.676  14.423  0.1292 -0.1482 -0.0758
15846TIP3    H169029   2.662   4.752  14.378 -3.4295 -0.2297  2.4239
15846TIP3    H269030   2.677   4.602  14.366  1.1772  0.4123 -1.2024
15847TIP3   OH269031   0.011   3.400   5.610 -0.1549 -0.5726  0.2694
15847TIP3    H169032   0.051   3.454   5.678 -0.5202 -1.2658  1.0440
15847TIP3    H269033   0.085   3.365   5.561  0.0670  1.1152 -0.6297
15848TIP3   OH269034   6.719   6.789  17.073  0.1884  0.3626  0.4263
15848TIP3    H169035   6.731   6.700  17.040 -1.0307  0.6340 -0.7622
15848TIP3    H269036   6.771   6.791  17.154  1.0669 -1.0991 -0.0811
15849TIP3   OH269037   4.955   5.137  12.144 -0.3880  0.3661  0.2993
15849TIP3    H169038   4.916   5.164  12.060 -0.4170  0.3419  0.3045
15849TIP3    H269039   4.894   5.169  12.210 -1.4343 -1.3833  0.2226
15850TIP3   OH269040   5.708   6.673  16.892 -0.0246 -0.2093 -0.2550
15850TIP3    H169041   5.619   6.703  16.909 -0.4221 -1.5799  0.2190
15850TIP3    H269042   5.723   6.690  16.800 -1.4647 -1.6255 -0.7784
15851TIP3   OH269043   5.398   6.714   5.433  0.1006 -0.5540  0.0468
15851TIP3    H169044   5.453   6.786   5.465  0.8593 -1.2496  0.3463
15851TIP3    H269045   5.374   6.666   5.512 -1.3123 -0.0100 -0.0414
15852TIP3   OH269046   5.956   4.450   0.672  0.1785 -0.1687 -0.1966
15852TIP3    H169047   5.948   4.540   0.641 -3.0153 -0.0025  0.9741
15852TIP3    H269048   6.028   4.453   0.736 -0.8570  1.8889  0.9321
15853TIP3   OH269049   3.358   3.197   1.558 -0.0675 -0.1179  0.0036
15853TIP3    H169050   3.406   3.274   1.528 -0.6237  0.3950  0.4482
15853TIP3    H269051   3.426   3.139   1.593  0.1958  0.7223  0.8839
15854TIP3   OH269052   4.924   5.198   0.846  0.4018  0.1680  0.2853
15854TIP3    H169053   4.926   5.155   0.760 -0.3281 -0.7527  0.7267
15854TIP3    H269054   4.989   5.151   0.898 -0.0378 -0.0762  0.6157
15855TIP3   OH269055   0.180   3.486  12.037 -0.4018 -0.2082 -0.1569
15855TIP3    H169056   0.121   3.551  12.076 -1.4669 -1.6675  0.7391
15855TIP3    H269057   0.252   3.478  12.099  0.3877  1.0380 -0.8938
15856TIP3   OH269058   1.036   1.173   1.654  1.0219 -0.7962 -1.0135
15856TIP3    H169059   1.001   1.093   1.615  1.3614 -0.7794 -1.3556
15856TIP3    H269060   0.977   1.242   1.626  1.0599 -0.8396 -1.2000
15857TIP3   OH269061   5.879   5.835   5.286 -0.0700 -0.0432  0.1782
15857TIP3    H169062   5.858   5.779   5.362 -0.9403  0.0736  0.0250
15857TIP3    H269063   5.902   5.773   5.217  0.9078 -0.1451  0.5858
15858TIP3   OH269064   4.984   5.013   3.808 -0.4475  0.2665  0.0286
15858TIP3    H169065   4.930   5.069   3.752 -2.3518 -0.7551  0.7968
15858TIP3    H269066   4.938   5.011   3.892  2.2451  1.5962  1.6020
15859TIP3   OH269067   6.065   0.762  12.064 -0.1680  0.0337 -0.0423
15859TIP3    H169068   6.056   0.707  12.142  1.5235 -2.3699 -1.4811
15859TIP3    H269069   5.988   0.741  12.011 -0.5813  0.5884  0.3406
15860TIP3   OH269070   3.166   6.207   5.898  0.3956  0.2274  0.6741
15860TIP3    H169071   3.242   6.149   5.891  0.9123  1.0977 -1.7485
15860TIP3    H269072   3.197   6.290   5.861 -2.3222 -0.0431 -2.4107
15861TIP3   OH269073   1.500   2.624   4.431  0.0735  0.0303 -0.2009
15861TIP3    H169074   1.453   2.702   4.460  0.6426  0.4658 -0.4290
15861TIP3    H269075   1.518   2.575   4.511 -0.9682 -0.2521 -0.1400
15862TIP3   OH269076   3.303   5.522  15.403 -0.0584 -0.2843  0.5143
15862TIP3    H169077   3.274   5.545  15.492 -2.8451 -2.6389  0.2929
15862TIP3    H269078   3.296   5.604  15.354  0.6728  0.8555  2.2629
15863TIP3   OH269079   2.369   1.686   1.983 -0.1382  0.6057 -0.1445
15863TIP3    H169080   2.322   1.602   1.986  1.2374 -0.1949 -0.6217
15863TIP3    H269081   2.412   1.692   2.068  2.2876 -0.6716 -1.2430
15864TIP3   OH269082   5.424   2.894  13.315 -0.0370 -0.3760 -0.0869
15864TIP3    H169083   5.423   2.906  13.410 -0.5065 -3.0689  0.2807
15864TIP3    H269084   5.474   2.813  13.301 -0.4190 -0.2897 -2.1030
15865TIP3   OH269085   3.068   2.923  15.089 -0.6877  0.3501 -0.5065
15865TIP3    H169086   2.990   2.957  15.045 -1.8107  1.7789  2.4335
15865TIP3    H269087   3.042   2.835  15.116 -1.8618  1.3355  1.7176
15866TIP3   OH269088   6.663   2.672   2.362 -0.3453 -0.0912  0.0911
15866TIP3    H169089   6.745   2.698   2.405  0.3646  0.3839 -1.5311
15866TIP3    H269090   6.596   2.683   2.430  0.5291  2.1117  0.6296
15867TIP3   OH269091   5.193   5.833  11.285  0.0156  0.0231 -0.5074
15867TIP3    H169092   5.181   5.919  11.246 -0.1904 -0.2843 -1.1244
15867TIP3    H269093   5.121   5.825  11.348 -0.7481 -0.2220 -1.3880
15868TIP3   OH269094   6.214   4.786   6.276 -0.6074  0.3664  0.5074
15868TIP3    H169095   6.118   4.781   6.276 -0.6964  1.2867 -2.2016
15868TIP3    H269096   6.233   4.879   6.289 -0.1204  0.3600 -0.1283
15869TIP3   OH269097   1.760   1.827  12.958  0.0286 -0.0633 -0.1964
15869TIP3    H169098   1.807   1.870  12.886  0.9244  0.0399  0.4354
15869TIP3    H269099   1.818   1.756  12.985 -0.7628 -0.7272 -0.2410
15870TIP3   OH269100   3.165   6.760   4.986 -0.0907  0.2067 -0.0731
15870TIP3    H169101   3.165   6.843   4.937  0.1125  0.2591  0.0129
15870TIP3    H269102   3.221   6.777   5.062  0.1255 -0.0744 -0.1681
15871TIP3   OH269103   0.369   1.221   5.167 -0.6437 -0.0822  0.1799
15871TIP3    H169104   0.363   1.131   5.137 -0.8521  0.2816 -0.8829
15871TIP3    H269105   0.297   1.267   5.122 -0.5292  0.6156  0.6903
15872TIP3   OH269106   6.132   2.382   4.873 -0.2182  0.4334  0.2251
15872TIP3    H169107   6.092   2.406   4.790  2.4933  0.8849 -0.9931
15872TIP3    H269108   6.219   2.421   4.870  2.1234 -4.3636  0.7778
15873TIP3   OH269109   5.272   5.419   4.553  0.1550  0.1729 -0.1720
15873TIP3    H169110   5.211   5.345   4.560  0.5689 -0.1553  0.0157
15873TIP3    H269111   5.328   5.396   4.478 -0.0230  0.5245 -0.4101
15874TIP3   OH269112   3.029   2.862  14.261 -0.6782  0.1308 -0.2862
15874TIP3    H169113   3.070   2.777  14.279 -1.5410 -0.2965 -0.3117
15874TIP3    H269114   3.052   2.880  14.170 -1.4913 -0.6513 -0.6575
15875TIP3   OH269115   2.753   5.975   0.572  0.3970  0.2233  0.3872
15875TIP3    H169116   2.712   6.056   0.604  0.8278 -0.4701  2.7951
15875TIP3    H269117   2.699   5.949   0.497 -2.0560  0.7021  1.9346
15876TIP3   OH269118   3.267   3.908  16.168 -0.4270 -0.2641 -0.1944
15876TIP3    H169119   3.348   3.910  16.220 -0.2347  1.0901 -0.5117
15876TIP3    H269120   3.297   3.896  16.078 -0.5927 -0.0252 -0.2822
15877TIP3   OH269121   4.266   3.617  12.688 -0.3099 -0.1497  0.0881
15877TIP3    H169122   4.202   3.567  12.738 -1.2436  1.1052  0.1503
15877TIP3    H269123   4.335   3.636  12.752  0.1746 -1.5342  0.0071
15878TIP3   OH269124   6.579   3.432   6.492  0.2035 -0.3578 -0.0266
15878TIP3    H169125   6.538   3.473   6.569 -1.2710  1.5210 -1.7574
15878TIP3    H269126   6.671   3.456   6.499 -0.1363  0.8564  0.5340
15879TIP3   OH269127   4.419   5.146   1.759 -0.0338  0.4741 -0.3317
15879TIP3    H169128   4.455   5.082   1.697  1.2792  0.9613 -0.0846
15879TIP3    H269129   4.417   5.099   1.842  0.1814  0.4951 -0.3140
15880TIP3   OH269130   1.078   0.724   6.632  0.0095 -0.1913 -0.2147
15880TIP3    H169131   1.087   0.804   6.684 -1.2014  0.1349 -0.4790
15880TIP3    H269132   1.134   0.660   6.676 -0.5675  0.2420  1.1863
15881TIP3   OH269133   1.095   3.251   0.564  0.3307 -0.3510 -0.1111
15881TIP3    H169134   1.148   3.216   0.636 -0.0880 -1.5366 -0.3733
15881TIP3    H269135   1.038   3.179   0.539  0.1728  0.1951 -1.3475
15882TIP3   OH269136   5.972   3.102  11.557 -0.1379 -0.6164  0.2954
15882TIP3    H169137   6.026   3.119  11.479 -0.0220 -0.8280  0.3311
15882TIP3    H269138   5.975   3.007  11.568  0.5592 -0.5119  1.0648
15883TIP3   OH269139   2.656   5.701   5.091 -0.0123 -0.0983  0.5820
15883TIP3    H169140   2.630   5.780   5.044  0.5387 -0.4688 -0.3627
15883TIP3    H269141   2.702   5.648   5.026 -0.5609 -1.2965  1.1554
15884TIP3   OH269142   6.493   0.943  17.151 -0.2723 -0.5237  0.6474
15884TIP3    H169143   6.422   0.929  17.088  0.4923 -3.2073  0.3304
15884TIP3    H269144   6.450   0.980  17.228 -1.5007  1.0274 -0.7502
15885TIP3   OH269145   4.559   1.529   1.796  0.4227  0.2213 -0.5602
15885TIP3    H169146   4.562   1.601   1.859 -2.2464  0.2141 -0.3384
15885TIP3    H269147   4.636   1.475   1.816  1.7550  2.3249  0.0880
15886TIP3   OH269148   3.032   4.570   1.990  0.1542 -0.4364 -0.0659
15886TIP3    H169149   3.001   4.566   1.900  1.9122  2.4354 -0.8686
15886TIP3    H269150   2.986   4.644   2.029  2.1444  0.6984  0.2211
15887TIP3   OH269151   5.964   5.560  14.314  0.2807  0.2859  0.1923
15887TIP3    H169152   5.949   5.538  14.223  0.2276  2.4421 -0.3647
15887TIP3    H269153   5.877   5.581  14.348  0.3808  0.1386  0.5405
15888TIP3   OH269154   0.473   3.431   4.573  0.1834 -0.0616  0.3651
15888TIP3    H169155   0.393   3.403   4.616  0.6133  0.9155  1.8115
15888TIP3    H269156   0.543   3.404   4.632  0.7783  1.2201  0.2612
15889TIP3   OH269157   4.821   3.462   4.618  0.0013  0.2001 -0.4742
15889TIP3    H169158   4.737   3.452   4.664 -0.3657  1.8686 -0.7522
15889TIP3    H269159   4.854   3.547   4.646  0.7414  0.3522 -1.7606
15890TIP3   OH269160   3.062   0.315   3.002 -0.0437 -0.0676  0.0024
15890TIP3    H169161   3.052   0.408   2.983 -1.7187 -0.3183 -0.4314
15890TIP3    H269162   2.977   0.288   3.035 -0.1011 -1.7947 -1.4626
15891TIP3   OH269163   3.013   3.303  14.543 -0.3634  0.6398 -0.1644
15891TIP3    H169164   2.993   3.312  14.450 -2.4657 -0.9133  0.1202
15891TIP3    H269165   3.087   3.243  14.546  0.2130  1.3022 -0.8599
15892TIP3   OH269166   6.308   6.135   2.651  0.0420  0.1787  0.5571
15892TIP3    H169167   6.232   6.123   2.707  0.3494  0.0084  0.9383
15892TIP3    H269168   6.348   6.048   2.646 -1.0015 -0.2257 -1.4026
15893TIP3   OH269169   0.567   6.737  13.322  0.6414  0.7087  0.1102
15893TIP3    H169170   0.531   6.649  13.333 -1.4864  1.8188  2.7753
15893TIP3    H269171   0.655   6.723  13.287  1.6822 -2.6887  3.7338
15894TIP3   OH269172   1.535   6.548  15.179 -0.4233  0.1951  0.0074
15894TIP3    H169173   1.485   6.616  15.223 -3.0093 -0.8938 -1.1598
15894TIP3    H269174   1.503   6.466  15.216  0.9239 -0.5024 -0.3318
15895TIP3   OH269175   5.069   2.180  11.333 -0.2419 -0.3044 -0.1369
15895TIP3    H169176   5.004   2.194  11.403  0.5056  0.7098  0.3802
15895TIP3    H269177   5.152   2.204  11.374  0.3676 -0.9401 -1.0040
15896TIP3   OH269178   6.514   0.332  14.887 -0.5540  0.6078 -0.8855
15896TIP3    H169179   6.437   0.362  14.840 -2.4572 -0.4502  1.4753
15896TIP3    H269180   6.496   0.351  14.979  1.3889 -0.9409 -0.1289
15897TIP3   OH269181   0.111   6.435  11.818  0.2886  0.2113  0.6886
15897TIP3    H169182   0.201   6.420  11.787 -0.2567 -0.5896 -0.5477
15897TIP3    H269183   0.078   6.348  11.838 -0.2477  0.5005  1.0555
15898TIP3   OH269184   2.136   4.235   0.797  0.0890  0.2168  0.4991
15898TIP3    H169185   2.193   4.278   0.861  0.4188  1.2861 -0.4939
15898TIP3    H269186   2.136   4.294   0.722 -1.5743 -0.2384  0.1184
15899TIP3   OH269187   6.676   4.289  17.019 -0.9168  0.2577  0.1628
15899TIP3    H169188   6.729   4.247  16.950 -0.7477  0.6968  0.0228
15899TIP3    H269189   6.607   4.334  16.971 -1.7170 -0.7149  0.3717
15900TIP3   OH269190   0.258   0.897  12.936 -0.2649 -0.7425  0.1972
15900TIP3    H169191   0.312   0.931  12.864 -1.1387  0.9974  0.3326
15900TIP3    H269192   0.267   0.962  13.005 -0.6251 -1.6642  1.1138
15901TIP3   OH269193   5.930   0.909  16.225  0.0020  0.4273 -0.0800
15901TIP3    H169194   5.882   0.890  16.144 -1.0560  1.7363  0.2179
15901TIP3    H269195   5.983   0.986  16.203  1.0572 -0.3034 -0.0593
15902TIP3   OH269196   1.093   1.668  16.514  0.3379  0.1028  0.4912
15902TIP3    H169197   1.169   1.716  16.548 -0.0618  1.2797 -0.2311
15902TIP3    H269198   1.030   1.669  16.586  0.3767  0.5796  0.5196
15903TIP3   OH269199   0.724   4.145  11.857  0.1854 -0.3954 -0.1741
15903TIP3    H169200   0.761   4.059  11.836 -0.9458 -0.5680 -1.5685
15903TIP3    H269201   0.683   4.133  11.942 -0.4964 -1.4361 -0.6275
15904TIP3   OH269202   4.900   5.491  12.983 -0.6172 -0.5514 -0.9256
15904TIP3    H169203   4.896   5.494  13.079  0.3328  0.9066 -0.9218
15904TIP3    H269204   4.841   5.419  12.959 -2.5348  0.4485  0.6357
15905TIP3   OH269205   0.297   0.007  13.322  1.1675  0.4032  0.3091
15905TIP3    H169206   0.390   0.003  13.344  1.2521  3.7776  0.7900
15905TIP3    H269207   0.257   0.056  13.393 -0.5043  1.2895 -1.1884
15906TIP3   OH269208   3.879   2.936   1.882  0.5469 -0.2607 -0.2620
15906TIP3    H169209   3.867   3.000   1.812  0.4831  0.3720  0.3213
15906TIP3    H269210   3.955   2.885   1.855  0.5943  0.0509 -0.7316
15907TIP3   OH269211   5.043   3.741  12.135  0.0074 -0.1944  0.6482
15907TIP3    H169212   4.981   3.770  12.067 -1.5550  0.4019  2.2931
15907TIP3    H269213   5.011   3.655  12.161  0.0217  0.0070  1.3247
15908TIP3   OH269214   2.390   0.423  15.951  1.0475  0.4238  0.6389
15908TIP3    H169215   2.433   0.476  16.018 -0.2856  3.1692 -0.5861
15908TIP3    H269216   2.374   0.483  15.879 -1.6966 -1.3233 -0.3254
15909TIP3   OH269217   3.628   0.123   5.703 -0.4746 -0.2832 -0.0720
15909TIP3    H169218   3.597   0.048   5.753 -0.9533  0.2484  0.4314
15909TIP3    H269219   3.697   0.161   5.757 -3.0872  2.1516  1.7249
15910TIP3   OH269220   3.941   4.280   1.211 -0.3874 -0.3178  0.3953
15910TIP3    H169221   3.951   4.187   1.193  0.0689 -0.2930  0.5077
15910TIP3    H269222   3.998   4.296   1.286 -1.0216 -0.0961  0.8350
15911TIP3   OH269223   3.097   4.869  15.094  0.1616 -0.0476  0.2502
15911TIP3    H169224   3.159   4.808  15.053  0.3304  0.9292 -0.9631
15911TIP3    H269225   3.014   4.849  15.052  0.1134  0.2205  0.2228
15912TIP3   OH269226   0.442   6.314   3.805 -0.0540  0.1663  0.3572
15912TIP3    H169227   0.521   6.317   3.752  0.3893  0.6528  1.0408
15912TIP3    H269228   0.448   6.232   3.854 -1.2117 -1.0380 -1.4831
15913TIP3   OH269229   6.677   1.617  15.872  0.0034  0.2847 -0.1584
15913TIP3    H169230   6.771   1.637  15.870 -0.0207  0.5673  1.2009
15913TIP3    H269231   6.668   1.542  15.814  1.5624 -1.6744  2.0194
15914TIP3   OH269232   4.700   6.433   2.254  0.0081 -0.6160  0.1768
15914TIP3    H169233   4.771   6.393   2.204  0.7279 -0.4244  1.0262
15914TIP3    H269234   4.745   6.487   2.320 -0.8989 -1.5033  1.5456
15915TIP3   OH269235   1.111   6.059   5.039  0.2080 -0.0558  0.1831
15915TIP3    H169236   1.078   6.035   5.126 -2.5900  0.2116 -0.7367
15915TIP3    H269237   1.107   5.978   4.988  1.5499 -0.1424  0.2038
15916TIP3   OH269238   3.101   6.577  16.977 -0.1200 -0.5321  0.5836
15916TIP3    H169239   3.157   6.611  17.047  0.2755  0.8955 -0.4268
15916TIP3    H269240   3.091   6.649  16.916  0.1154 -1.9912 -1.2254
15917TIP3   OH269241   5.933   4.285   4.725 -0.5123 -0.1215  0.0244
15917TIP3    H169242   6.013   4.328   4.755 -0.8528  1.5388 -1.3800
15917TIP3    H269243   5.940   4.286   4.630  0.3315 -4.8566 -0.0870
15918TIP3   OH269244   1.979   4.662  16.092 -0.0374  0.7089  0.0226
15918TIP3    H169245   2.072   4.649  16.075 -0.3357 -0.7843 -0.5218
15918TIP3    H269246   1.956   4.595  16.156 -0.7455  1.0634  0.1509
15919TIP3   OH269247   5.145   1.434  16.062 -0.1139 -0.1764 -0.0254
15919TIP3    H169248   5.063   1.384  16.067 -0.2824  0.0364 -0.6340
15919TIP3    H269249   5.117   1.523  16.041  0.2822 -0.1190 -0.3077
15920TIP3   OH269250   6.092   0.235   0.058  0.2221 -0.3672  0.0565
15920TIP3    H169251   6.127   0.152   0.026  2.2028  0.5743 -0.3236
15920TIP3    H269252   6.068   0.283  -0.021  0.0296 -0.1723  0.2312
15921TIP3   OH269253   3.590   2.335  16.221  0.0639  0.0238 -0.2017
15921TIP3    H169254   3.523   2.397  16.191  1.2436  1.3571 -0.1375
15921TIP3    H269255   3.654   2.390  16.268  0.0497 -1.5443  1.7040
15922TIP3   OH269256   5.550   3.562  12.133  0.0808 -0.1107  0.1556
15922TIP3    H169257   5.604   3.636  12.104 -1.0855 -0.4509 -3.0729
15922TIP3    H269258   5.467   3.603  12.158 -0.0954 -0.1934 -0.3005
15923TIP3   OH269259   3.562   6.193  14.183  0.0411  0.2217  0.2741
15923TIP3    H169260   3.602   6.277  14.207 -0.4492  0.4011  0.4836
15923TIP3    H269261   3.528   6.207  14.095 -2.1770  1.0337  1.2200
15924TIP3   OH269262   0.439   1.934  11.222  0.1628 -0.1497 -0.1300
15924TIP3    H169263   0.527   1.973  11.225 -0.1712  0.8597 -2.2149
15924TIP3    H269264   0.453   1.841  11.241  1.5071  0.2399  0.8598
15925TIP3   OH269265   5.268   2.878   1.443  0.2134  0.4879  0.0223
15925TIP3    H169266   5.296   2.917   1.526  0.1472 -1.2058  0.8734
15925TIP3    H269267   5.173   2.872   1.449  0.3031 -0.8291  0.4005
15926TIP3   OH269268   1.875   5.671   3.031  0.2450 -0.3166  0.2316
15926TIP3    H169269   1.868   5.637   3.120 -3.0989 -0.4073  0.0032
15926TIP3    H269270   1.848   5.762   3.038 -2.4639 -0.9686 -1.0183
15927TIP3   OH269271   2.774   6.103  15.867  0.1365 -0.0629 -0.2666
15927TIP3    H169272   2.827   6.171  15.910 -0.1618  0.7300 -1.1192
15927TIP3    H269273   2.791   6.024  15.917  0.3956  0.6777  0.8316
15928TIP3   OH269274   1.311   3.777  15.391  0.4069  0.0790 -0.0936
15928TIP3    H169275   1.302   3.689  15.353  0.7186 -0.2319  0.5398
15928TIP3    H269276   1.382   3.769  15.454  0.0850  0.6553  0.3531
15929TIP3   OH269277   0.374   0.143   0.008  0.5796  0.2518  0.0159
15929TIP3    H169278   0.466   0.121  -0.005  0.5893 -0.3062  0.9186
15929TIP3    H269279   0.351   0.197  -0.066  0.4400 -3.2200 -2.6083
15930TIP3   OH269280   5.877   0.677  15.560  0.1125 -0.4721 -0.4457
15930TIP3    H169281   5.939   0.614  15.523  0.3479 -0.7841  0.4766
15930TIP3    H269282   5.930   0.739  15.610 -0.1890  0.0396 -0.7497
15931TIP3   OH269283   2.393   1.146  15.177 -0.2989 -0.0280  0.0003
15931TIP3    H169284   2.300   1.154  15.198 -0.4783 -1.7877  0.0237
15931TIP3    H269285   2.436   1.143  15.263 -0.0330  2.4901 -0.0276
15932TIP3   OH269286   5.940   0.760   6.356  0.0505 -0.4921  0.4595
15932TIP3    H169287   5.914   0.829   6.418  1.9066 -0.4607  1.2323
15932TIP3    H269288   5.863   0.748   6.300 -1.1556  0.4912  1.8618
15933TIP3   OH269289   5.367   2.766   0.235  0.5143 -0.2361  0.2083
15933TIP3    H169290   5.355   2.671   0.232  0.6826 -0.2219 -2.3468
15933TIP3    H269291   5.444   2.779   0.292 -0.6409 -1.4708  2.0938
15934TIP3   OH269292   5.360   6.580  11.778 -0.0655 -0.6458 -0.1617
15934TIP3    H169293   5.345   6.518  11.706  0.8692 -0.4917 -0.5051
15934TIP3    H269294   5.410   6.651  11.738  0.4967 -0.5752  0.6540
15935TIP3   OH269295   4.595   5.234  11.279  0.1161 -0.1924 -0.5011
15935TIP3    H169296   4.529   5.271  11.220  0.1475  0.8660  0.0945
15935TIP3    H269297   4.664   5.300  11.280 -0.4587  0.4251  1.6921
15936TIP3   OH269298   4.814   0.383  16.226 -0.7028 -0.2665  0.0504
15936TIP3    H169299   4.777   0.329  16.296 -1.6149 -0.5077 -0.6077
15936TIP3    H269300   4.870   0.324  16.177 -1.3271 -0.5096 -0.3829
15937TIP3   OH269301   3.769   2.950   1.510 -0.4041 -0.4846 -0.0767
15937TIP3    H169302   3.840   2.916   1.456 -0.0984 -0.9927  0.6378
15937TIP3    H269303   3.696   2.890   1.494  0.2661 -1.7822  1.5162
15938TIP3   OH269304   2.942   2.694  12.287  0.4679  0.5688 -0.7086
15938TIP3    H169305   2.973   2.652  12.207  1.0774 -1.0702  0.3741
15938TIP3    H269306   3.005   2.667  12.354 -1.4249 -0.0599  0.8332
15939TIP3   OH269307   2.025   2.195  10.951  0.1729 -0.3133 -0.3817
15939TIP3    H169308   2.085   2.121  10.960  1.0386  0.3332 -0.8271
15939TIP3    H269309   2.039   2.247  11.030  2.0764  1.2004 -1.6921
15940TIP3   OH269310   5.054   5.642   5.431  0.0753  0.0051  0.5346
15940TIP3    H169311   5.059   5.726   5.479 -1.7011 -0.8656  2.3484
15940TIP3    H269312   4.978   5.652   5.374  1.6077  0.6735 -1.4386
15941TIP3   OH269313   0.927   1.279  12.790  0.4209 -0.1216  0.2009
15941TIP3    H169314   1.018   1.268  12.762  0.4892  0.4420  0.1972
15941TIP3    H269315   0.916   1.374  12.799 -0.5777 -0.0970 -1.1932
15942TIP3   OH269316   5.508   2.226   4.166 -0.2626  0.0073 -0.6766
15942TIP3    H169317   5.417   2.202   4.146  0.3725 -0.4615 -3.1656
15942TIP3    H269318   5.552   2.143   4.183 -0.6052  0.3395  2.1451
15943TIP3   OH269319   0.668   5.276  12.813 -0.1688  0.3248  0.2459
15943TIP3    H169320   0.723   5.278  12.891  0.9295 -0.4124 -0.4952
15943TIP3    H269321   0.713   5.217  12.753 -1.0432  0.8167 -0.9211
15944TIP3   OH269322   1.201   4.024  12.718 -0.3480  0.4642  0.8496
15944TIP3    H169323   1.134   4.053  12.656  0.0456 -0.2092  0.0922
15944TIP3    H269324   1.156   3.959  12.773 -0.5866  0.7564  1.0018
15945TIP3   OH269325   6.034   3.538   4.843  0.3977  0.2477 -0.0296
15945TIP3    H169326   5.972   3.465   4.845 -1.1930  1.5984  1.5200
15945TIP3    H269327   6.062   3.543   4.752 -1.6041 -0.5656 -0.7310
15946TIP3   OH269328   2.988   0.132  15.920  0.2997 -0.2713 -0.4131
15946TIP3    H169329   2.965   0.106  16.010 -1.0224 -1.9370 -1.2217
15946TIP3    H269330   2.907   0.121  15.870  0.6875  1.9267 -1.5508
15947TIP3   OH269331   6.094   5.576   5.633  0.2108  0.3495  0.4162
15947TIP3    H169332   6.147   5.601   5.556 -0.6577 -1.6525 -0.8585
15947TIP3    H269333   6.018   5.634   5.628  1.8168  2.6547  1.7780
15948TIP3   OH269334   5.144   0.439   0.053 -0.0213  0.2342  0.0529
15948TIP3    H169335   5.234   0.422   0.080  0.1268 -0.4838 -0.8664
15948TIP3    H269336   5.148   0.443  -0.043 -1.2188 -1.3547 -0.0819
15949TIP3   OH269337   5.878   4.565  14.094  0.5000 -0.5034 -0.1997
15949TIP3    H169338   5.830   4.598  14.018 -0.6712  0.2321  0.8520
15949TIP3    H269339   5.842   4.478  14.109 -2.0294  0.8378  1.8534
15950TIP3   OH269340   3.125   2.228  16.073 -0.1928  0.1478 -0.1359
15950TIP3    H169341   3.208   2.239  16.025 -0.7963  0.9915 -1.0145
15950TIP3    H269342   3.059   2.225  16.004 -0.8833 -0.6139  0.5613
15951TIP3   OH269343   3.867   0.646   5.552  0.0233 -0.0547 -0.1042
15951TIP3    H169344   3.896   0.685   5.469 -1.0177  1.9076  0.4083
15951TIP3    H269345   3.803   0.579   5.526  1.8862 -1.5150 -1.0115
15952TIP3   OH269346   3.163   4.945  16.000  0.2088  0.5998  0.4278
15952TIP3    H169347   3.133   4.909  15.917  0.6352 -1.4811  1.1521
15952TIP3    H269348   3.113   4.898  16.066  1.9097  0.2233  1.4595
15953TIP3   OH269349   4.173   3.117   0.048  0.1863 -0.1494 -0.4506
15953TIP3    H169350   4.184   3.129   0.143  1.1409 -0.3595 -0.5243
15953TIP3    H269351   4.190   3.024   0.034  1.1106  0.0920 -0.9619
15954TIP3   OH269352   5.980   4.949  16.662  0.4731  0.1233  0.0364
15954TIP3    H169353   5.963   4.856  16.672 -0.3703  0.2063 -0.5806
15954TIP3    H269354   5.923   4.991  16.727 -0.9602  0.3392 -1.3224
15955TIP3   OH269355   4.486   4.760   5.405 -0.2721  0.3602 -0.2582
15955TIP3    H169356   4.394   4.765   5.428 -0.1307 -0.5345  0.5133
15955TIP3    H269357   4.513   4.851   5.395 -0.4555  0.7797  2.6427
15956TIP3   OH269358   3.562   2.564  10.567  0.1514  0.0399  0.2204
15956TIP3    H169359   3.594   2.585  10.479  1.5111 -2.4376  0.0943
15956TIP3    H269360   3.634   2.515  10.607 -0.5965  0.8282  2.6022
15957TIP3   OH269361   5.871   4.733  10.947 -0.2062 -0.8070 -0.1784
15957TIP3    H169362   5.868   4.782  10.865  1.3743 -0.6732 -0.1709
15957TIP3    H269363   5.802   4.667  10.939  0.3694 -1.2087 -1.8846
15958TIP3   OH269364   1.447   5.360   5.786  0.1189  0.2629  0.0287
15958TIP3    H169365   1.422   5.387   5.698  0.2245  0.1073 -0.0482
15958TIP3    H269366   1.530   5.313   5.775  0.0431  0.0892  0.1874
15959TIP3   OH269367   4.717   5.709  13.923 -0.1800  0.6009 -0.7908
15959TIP3    H169368   4.710   5.626  13.971 -1.0108  0.8395 -0.4904
15959TIP3    H269369   4.652   5.702  13.853 -2.0406  1.9791  0.7287
15960TIP3   OH269370   5.896   5.214   1.098  0.0892 -0.0429 -0.4915
15960TIP3    H169371   5.905   5.284   1.033  0.7581  1.6619  1.3886
15960TIP3    H269372   5.837   5.250   1.164  1.3842 -0.7956  1.1135
15961TIP3   OH269373   0.392   0.432   0.480  0.3653 -0.1339 -0.5139
15961TIP3    H169374   0.479   0.394   0.492 -0.8515 -3.3181 -1.2255
15961TIP3    H269375   0.374   0.422   0.386 -0.6658  0.7965 -0.4329
15962TIP3   OH269376   0.663   5.829  16.847  0.1920 -0.0562 -0.3786
15962TIP3    H169377   0.650   5.784  16.764  1.3386  1.7992 -1.5902
15962TIP3    H269378   0.749   5.870  16.839  1.1357 -1.3467  2.4275
15963TIP3   OH269379   2.382   1.989   2.962 -0.1543 -0.0647 -0.6243
15963TIP3    H169380   2.373   2.008   3.055  1.4950  0.4427 -0.5649
15963TIP3    H269381   2.314   1.923   2.945  0.3904 -1.1433  1.2184
15964TIP3   OH269382   2.649   2.191   2.759  0.0596  0.3418  0.5354
15964TIP3    H169383   2.569   2.235   2.730  0.2331  1.3557  1.5808
15964TIP3    H269384   2.715   2.259   2.761  1.2361 -0.7273 -1.3898
15965TIP3   OH269385   3.982   6.565   0.465  0.1415  0.1624 -0.3073
15965TIP3    H169386   4.072   6.598   0.464  0.2197 -0.0204  0.2018
15965TIP3    H269387   3.943   6.604   0.544 -0.7475  1.6009 -1.4316
15966TIP3   OH269388   0.141   2.188  12.779 -0.3150 -0.7839 -0.0413
15966TIP3    H169389   0.103   2.183  12.692 -1.5258  0.8729  0.3946
15966TIP3    H269390   0.226   2.231  12.766 -0.5462 -0.4327 -0.3780
15967TIP3   OH269391   3.142   2.285  14.467 -0.2810  0.0223 -0.1921
15967TIP3    H169392   3.211   2.272  14.532  0.0184 -1.3244 -0.7571
15967TIP3    H269393   3.092   2.204  14.469 -1.3113  0.6408 -0.4341
15968TIP3   OH269394   0.151   2.985   4.204  0.0920 -0.1549 -0.1116
15968TIP3    H169395   0.122   2.896   4.225 -0.1692  0.2296  1.1994
15968TIP3    H269396   0.157   2.986   4.109  1.7820 -2.1069 -0.0657
15969TIP3   OH269397   5.363   2.494   2.687  0.2235 -0.3933  0.0135
15969TIP3    H169398   5.322   2.514   2.771  0.4378  2.2394 -0.4537
15969TIP3    H269399   5.402   2.407   2.699  0.6218  0.1100  2.7808
15970TIP3   OH269400   0.546   5.344  12.314  0.1673 -0.7355  0.0325
15970TIP3    H169401   0.513   5.431  12.334  1.3331 -0.3850  0.5005
15970TIP3    H269402   0.480   5.305  12.257 -0.6652  0.2137  0.3397
15971TIP3   OH269403   5.632   4.734   5.117 -0.2096 -0.0753 -0.2601
15971TIP3    H169404   5.639   4.775   5.204 -1.2394 -1.3160  0.4241
15971TIP3    H269405   5.670   4.647   5.130  1.9854  0.6397 -1.7009
15972TIP3   OH269406   4.265   0.830  10.588 -0.1718  0.2232  0.1730
15972TIP3    H169407   4.201   0.901  10.588 -2.6527 -1.9329  0.9855
15972TIP3    H269408   4.335   0.861  10.531 -1.3789  3.1328  0.1780
15973TIP3   OH269409   3.119   1.104  17.014 -0.2131 -0.6610 -0.3234
15973TIP3    H169410   3.150   1.118  16.925  0.0386 -0.5294 -0.2190
15973TIP3    H269411   3.108   1.010  17.022 -0.9924 -0.6042 -0.7430
15974TIP3   OH269412   3.585   4.329   3.691 -0.1482  0.8408 -0.2240
15974TIP3    H169413   3.612   4.243   3.660 -0.1771  0.8100 -0.1636
15974TIP3    H269414   3.549   4.313   3.778 -0.5443  0.8504 -0.3820
15975TIP3   OH269415   5.477   3.900   5.702 -0.8091  0.2351  0.3529
15975TIP3    H169416   5.385   3.923   5.685 -0.7912  0.5471  0.6689
15975TIP3    H269417   5.526   3.979   5.679 -0.9458  1.3561  3.5534
15976TIP3   OH269418   5.351   5.893   0.243 -0.1205  0.3180 -0.1648
15976TIP3    H169419   5.296   5.933   0.175  1.3177  0.5329 -1.2367
15976TIP3    H269420   5.373   5.807   0.207 -2.2212 -0.9965  1.6064
15977TIP3   OH269421   3.071   6.379   7.194 -0.0036 -0.0779 -0.0677
15977TIP3    H169422   3.132   6.345   7.127  1.5790 -1.2890  1.9353
15977TIP3    H269423   3.045   6.301   7.243 -0.2268  0.9676  1.4678
15978TIP3   OH269424   6.602   4.094   0.887  0.1296 -0.3533  0.5136
15978TIP3    H169425   6.587   4.050   0.971  0.9266 -0.3245  0.6808
15978TIP3    H269426   6.589   4.187   0.906  3.4482  0.0033  1.4081
15979TIP3   OH269427   6.792   5.905  11.744  0.2702 -0.0382 -0.0943
15979TIP3    H169428   6.823   5.910  11.654  0.8192  0.9635  0.1386
15979TIP3    H269429   6.704   5.869  11.737  0.5284 -0.5209 -0.9791
15980TIP3   OH269430   3.046   0.662  12.613  0.3832  0.0636 -0.2844
15980TIP3    H169431   3.046   0.747  12.568 -2.0054  0.4674  0.3745
15980TIP3    H269432   2.955   0.633  12.608  0.5932 -1.1169  1.9525
15981TIP3   OH269433   3.995   1.032  14.075  0.4369 -0.0640  0.1544
15981TIP3    H169434   3.966   0.970  14.008  1.1700  0.1003 -0.3234
15981TIP3    H269435   4.009   1.114  14.028 -0.4971  0.4680  0.7775
15982TIP3   OH269436   3.531   5.573  13.169 -0.3452 -0.2312 -0.1690
15982TIP3    H169437   3.574   5.556  13.253 -0.0873 -0.5340 -0.3606
15982TIP3    H269438   3.532   5.488  13.125 -0.0342  0.0407 -0.6850
15983TIP3   OH269439   4.867   0.104  11.087  0.5299 -0.3104 -0.3868
15983TIP3    H169440   4.917   0.138  11.161  0.0867  0.3639 -0.3888
15983TIP3    H269441   4.933   0.073  11.025  0.9389  0.4464 -0.3349
15984TIP3   OH269442   2.676   3.508   0.069 -0.1884  0.0076  0.0964
15984TIP3    H169443   2.702   3.468   0.152 -0.5023 -0.2812  0.0574
15984TIP3    H269444   2.617   3.444   0.029  0.2748 -0.0217 -0.5324
15985TIP3   OH269445   6.313   3.644  14.353  0.2739 -0.2296  0.0077
15985TIP3    H169446   6.358   3.693  14.422  2.0580 -1.3310 -0.3476
15985TIP3    H269447   6.349   3.556  14.358 -2.0245 -1.2345 -0.1573
15986TIP3   OH269448   3.043   6.720   1.722 -0.3237 -0.1747  0.0032
15986TIP3    H169449   3.028   6.663   1.797  1.3266 -0.7542 -0.0977
15986TIP3    H269450   3.079   6.801   1.759  0.8509 -0.6033 -0.1850
15987TIP3   OH269451   6.555   1.996   1.975 -0.2766  0.6432  0.2434
15987TIP3    H169452   6.461   2.013   1.964 -0.4767  0.3076  1.4235
15987TIP3    H269453   6.570   1.915   1.926 -0.5978  0.6988  0.0508
15988TIP3   OH269454   3.867   5.460   0.776 -0.6614 -0.3029  0.1937
15988TIP3    H169455   3.959   5.452   0.803 -0.7290  0.7069  0.7353
15988TIP3    H269456   3.821   5.489   0.855 -1.1823  0.7173 -0.4749
15989TIP3   OH269457   5.359   2.777  17.222 -0.3573 -0.7749  0.1174
15989TIP3    H169458   5.397   2.784  17.310 -0.3236 -2.3731  0.2495
15989TIP3    H269459   5.433   2.792  17.163 -0.3057 -0.0538  0.3561
15990TIP3   OH269460   2.615   3.338  12.827 -0.2160 -0.3975  0.3753
15990TIP3    H169461   2.667   3.417  12.842  0.1669 -0.9780  2.1847
15990TIP3    H269462   2.645   3.305  12.742  1.8127 -0.2634  1.0141
15991TIP3   OH269463   0.772   4.910  12.312  0.1887 -0.4270 -0.1523
15991TIP3    H169464   0.819   4.990  12.288  0.9330 -0.0580  2.4377
15991TIP3    H269465   0.821   4.840  12.269  2.7593  0.0194  1.9434
15992TIP3   OH269466   4.511   5.524  15.909  0.5764  0.4323 -0.3856
15992TIP3    H169467   4.490   5.526  15.815 -1.1780 -0.6841 -0.0447
15992TIP3    H269468   4.542   5.612  15.929  0.8390  0.7176 -1.9804
15993TIP3   OH269469   0.239   6.600   1.496 -0.1199  0.1788  0.4738
15993TIP3    H169470   0.329   6.570   1.483 -0.6590 -2.4661  2.4351
15993TIP3    H269471   0.203   6.608   1.407  1.8370  0.6727 -0.2976
15994TIP3   OH269472   1.632   0.649   4.222  0.6913  0.0378  0.6000
15994TIP3    H169473   1.647   0.742   4.241 -0.1514  0.5140 -0.9860
15994TIP3    H269474   1.543   0.633   4.252 -0.4889  0.6845 -2.3369
15995TIP3   OH269475   6.119   3.974   5.980  0.6880 -0.4273  0.0295
15995TIP3    H169476   6.048   4.037   5.975  1.8977  1.0203  0.5520
15995TIP3    H269477   6.100   3.910   5.912 -0.4290  0.6508 -0.6901
15996TIP3   OH269478   1.472   2.014  11.381 -0.0509 -0.7491 -0.5977
15996TIP3    H169479   1.557   1.971  11.373  0.2285 -0.2153 -0.5107
15996TIP3    H269480   1.474   2.055  11.467 -1.0312 -2.1049  0.0858
15997TIP3   OH269481   2.540   1.752  15.218  0.0873 -0.0174  0.0024
15997TIP3    H169482   2.470   1.724  15.159 -0.4640 -0.0741  0.6817
15997TIP3    H269483   2.502   1.825  15.267 -0.5328 -1.9110  2.4663
15998TIP3   OH269484   0.433   3.119  12.041  0.5708 -0.1580  0.1298
15998TIP3    H169485   0.401   3.099  12.129 -2.4939  0.0954 -0.8670
15998TIP3    H269486   0.456   3.212  12.045  1.5244 -0.4256  0.9680
15999TIP3   OH269487   3.620   5.028   1.243 -0.1875  0.7173  0.2601
15999TIP3    H169488   3.603   5.005   1.334  0.1965  0.0621  0.1662
15999TIP3    H269489   3.542   4.997   1.195  0.3694 -0.5089  0.1187
16000TIP3   OH269490   2.892   2.372   4.576  0.1942 -0.1045 -0.3083
16000TIP3    H169491   2.904   2.440   4.509 -1.8086 -0.4424 -1.0749
16000TIP3    H269492   2.814   2.400   4.624 -0.0848 -1.3675 -0.0133
16001TIP3   OH269493   2.465   4.103  16.222  0.5959  0.7146 -0.1197
16001TIP3    H169494   2.374   4.117  16.246  0.8332 -0.4917  1.5486
16001TIP3    H269495   2.464   4.027  16.165  0.4956  1.1218 -0.6683
16002TIP3   OH269496   5.173   2.702  13.410  0.1214 -0.7390  0.4845
16002TIP3    H169497   5.228   2.779  13.426  0.7776 -1.1134  0.0888
16002TIP3    H269498   5.220   2.631  13.455 -2.5973 -0.1911  4.4605
16003TIP3   OH269499   2.831   6.462  10.880  1.1436 -0.4329 -0.1178
16003TIP3    H169500   2.791   6.549  10.871  0.9400 -0.5711 -0.5449
16003TIP3    H269501   2.920   6.473  10.846 -0.0575 -1.2977 -3.7780
16004TIP3   OH269502   2.726   0.891  14.454  0.2649  0.0249 -0.5366
16004TIP3    H169503   2.630   0.897  14.457  0.2970  0.0521  1.8974
16004TIP3    H269504   2.756   0.977  14.484  1.0742  0.3439 -2.2225
16005TIP3   OH269505   5.301   5.437  10.837 -0.2860 -0.5289  0.6870
16005TIP3    H169506   5.332   5.347  10.839  0.0326 -0.4929 -1.1457
16005TIP3    H269507   5.209   5.431  10.812 -0.3589 -0.3745  0.9201
16006TIP3   OH269508   2.658   6.399  12.438  0.6809  0.0412 -0.8126
16006TIP3    H169509   2.595   6.447  12.491  1.2608  1.4955 -1.4126
16006TIP3    H269510   2.621   6.398  12.350  0.3147 -1.2778 -0.6501
16007TIP3   OH269511   3.360   5.395  12.355 -0.3283 -0.2838 -0.1532
16007TIP3    H169512   3.403   5.325  12.405 -1.9191  0.0567  1.7716
16007TIP3    H269513   3.287   5.350  12.311 -1.0846  0.0603  0.7307
16008TIP3   OH269514   4.050   2.808   3.829 -0.1852  0.2374 -0.2295
16008TIP3    H169515   3.967   2.783   3.790  0.0735 -1.1489  0.0531
16008TIP3    H269516   4.096   2.855   3.760 -0.2968 -0.9728 -1.1465
16009TIP3   OH269517   6.456   6.557   2.513 -0.0957  0.0774 -0.1052
16009TIP3    H169518   6.436   6.497   2.585  2.8055 -1.5112 -0.5412
16009TIP3    H269519   6.407   6.521   2.439 -1.4503  0.5251  0.5507
16010TIP3   OH269520   6.106   4.887  12.268 -0.0924  0.2898 -0.9947
16010TIP3    H169521   6.132   4.976  12.245 -0.2654  0.9059  1.0817
16010TIP3    H269522   6.179   4.832  12.239  1.2045  1.4081  0.0671
16011TIP3   OH269523   0.246   4.291   0.049 -0.7831  0.4958  0.0147
16011TIP3    H169524   0.199   4.310  -0.032  0.8698 -0.9650 -1.2992
16011TIP3    H269525   0.215   4.205   0.076  0.1355  0.1215 -0.1196
16012TIP3   OH269526   4.727   0.194   4.804  0.2251 -0.4519  0.4088
16012TIP3    H169527   4.797   0.195   4.868 -0.2527 -2.4332  0.9964
16012TIP3    H269528   4.771   0.189   4.719  0.8153 -0.9192  0.7391
16013TIP3   OH269529   4.100   1.398  11.680  0.2171  0.5768 -0.1169
16013TIP3    H169530   4.038   1.471  11.671 -0.1588  0.2395 -0.3066
16013TIP3    H269531   4.118   1.372  11.590  1.0014  0.9704 -0.0807
16014TIP3   OH269532   2.498   5.264   2.118  0.0636 -0.4228 -0.4167
16014TIP3    H169533   2.531   5.233   2.033  1.5471 -1.8952  0.6482
16014TIP3    H269534   2.472   5.184   2.163 -0.8423  0.3712  0.4804
16015TIP3   OH269535   1.825   2.238   1.900 -0.4398 -0.3572  0.3503
16015TIP3    H169536   1.850   2.210   1.813  2.3434  3.1257 -0.1032
16015TIP3    H269537   1.760   2.308   1.885  1.0256  1.1671  0.9686
16016TIP3   OH269538   1.377   3.819  12.148 -0.5036 -0.5136  0.0270
16016TIP3    H169539   1.436   3.746  12.170  0.8245  0.6924  0.5631
16016TIP3    H269540   1.303   3.809  12.208 -0.4457 -1.5282 -0.0474
16017TIP3   OH269541   0.135   6.705   5.939  0.6535 -0.2385 -0.2232
16017TIP3    H169542   0.105   6.698   6.029 -0.5181 -1.9873 -0.7184
16017TIP3    H269543   0.174   6.620   5.920  0.5159 -0.0326 -1.4809
16018TIP3   OH269544   5.821   1.144   6.364  0.5185  0.0874 -0.0337
16018TIP3    H169545   5.760   1.109   6.299  0.5372 -0.7269  0.3753
16018TIP3    H269546   5.777   1.221   6.399  0.2938  0.2487 -0.6598
16019TIP3   OH269547   2.951   0.801   1.950 -0.6494 -0.0789  0.4160
16019TIP3    H169548   2.907   0.870   1.900  1.1717 -1.3145 -3.0996
16019TIP3    H269549   2.893   0.725   1.940 -1.2501  0.1782  1.8839
16020TIP3   OH269550   2.470   0.619   0.346 -0.2516 -0.2195  0.1800
16020TIP3    H169551   2.431   0.571   0.418 -1.2989  0.4299  0.0561
16020TIP3    H269552   2.415   0.599   0.271  1.5211 -1.8429 -0.7376
16021TIP3   OH269553   0.423   0.594   3.659 -0.0401  0.3263  0.4664
16021TIP3    H169554   0.393   0.512   3.698 -2.2625  1.2507  0.7938
16021TIP3    H269555   0.350   0.655   3.673  1.1372  2.0497 -0.7261
16022TIP3   OH269556   0.539   5.625  11.483 -0.1005  0.0192  0.6103
16022TIP3    H169557   0.596   5.694  11.515  1.9096 -1.6327  0.6630
16022TIP3    H269558   0.512   5.577  11.561  3.2933 -2.8513  0.1320
16023TIP3   OH269559   3.030   2.537  13.205  0.4109  0.4982 -0.1229
16023TIP3    H169560   3.011   2.629  13.187  1.4452  0.8900  0.7201
16023TIP3    H269561   3.106   2.539  13.263  0.2879 -0.8850  0.1077
16024TIP3   OH269562   6.128   1.089   1.575 -0.3792 -0.4361 -0.4801
16024TIP3    H169563   6.152   1.089   1.482 -0.7697  1.1507 -0.5895
16024TIP3    H269564   6.161   1.005   1.608 -0.2644 -1.0338 -2.0535
16025TIP3   OH269565   4.143   5.433   3.674  0.1342 -0.0126  0.5235
16025TIP3    H169566   4.163   5.525   3.692  0.9585 -0.3884  1.5508
16025TIP3    H269567   4.229   5.392   3.663 -0.2245 -0.7084  0.3011
16026TIP3   OH269568   0.680   5.433   4.975 -0.4228 -0.0677  0.2466
16026TIP3    H169569   0.682   5.423   5.070 -0.1439  0.8367  0.3374
16026TIP3    H269570   0.646   5.521   4.960 -0.2245 -0.1080 -0.4922
16027TIP3   OH269571   4.061   6.459   2.611  0.4359  0.0357 -0.1308
16027TIP3    H169572   4.092   6.373   2.639  0.9496  0.3040  0.1165
16027TIP3    H269573   4.062   6.513   2.690  0.2712  0.3180 -0.3179
16028TIP3   OH269574   1.567   0.764   5.516 -0.8017 -0.7414 -0.1444
16028TIP3    H169575   1.655   0.739   5.546 -0.8253 -0.7259 -0.0622
16028TIP3    H269576   1.534   0.686   5.472  0.0987 -0.0663 -2.0744
16029TIP3   OH269577   4.368   6.071   6.000  0.2684  0.2278 -0.0364
16029TIP3    H169578   4.459   6.040   5.992  0.2450  0.2017 -0.2088
16029TIP3    H269579   4.360   6.100   6.091  1.1157  2.3296 -0.6101
16030TIP3   OH269580   4.762   5.787   3.561  0.3028 -0.2257  0.5471
16030TIP3    H169581   4.690   5.785   3.625  0.0588  1.6118  0.3525
16030TIP3    H269582   4.719   5.773   3.477  0.2388  0.3354  0.4855
16031TIP3   OH269583   1.725   5.133   1.650 -0.1276  0.4998  0.8396
16031TIP3    H169584   1.749   5.222   1.626 -2.2588  0.5253 -1.4166
16031TIP3    H269585   1.668   5.144   1.726 -2.7882  1.3470 -1.2008
16032TIP3   OH269586   3.563   0.335   5.509  0.1159  0.0106 -0.9372
16032TIP3    H169587   3.547   0.242   5.523 -2.9918  0.5599 -0.4560
16032TIP3    H269588   3.561   0.373   5.597  2.4662  0.4109 -1.0277
16033TIP3   OH269589   4.774   2.125  16.122 -0.2628 -0.0331  0.1113
16033TIP3    H169590   4.834   2.061  16.161 -0.0853 -1.3062 -2.1597
16033TIP3    H269591   4.698   2.072  16.095 -0.7600  0.9491 -0.4248
16034TIP3   OH269592   6.329   5.915   1.809 -0.2117 -0.7273 -0.0068
16034TIP3    H169593   6.306   5.876   1.893 -0.2433  0.1597  0.4064
16034TIP3    H269594   6.292   6.004   1.813  0.6723 -0.3246 -0.5372
16035TIP3   OH269595   4.518   2.307   5.519 -0.1699  0.0728 -0.0158
16035TIP3    H169596   4.437   2.340   5.481  0.3110  1.4176  0.1241
16035TIP3    H269597   4.491   2.228   5.567 -1.7023  1.5313  1.5621
16036TIP3   OH269598   3.336   2.699   4.336 -0.4257  0.3528  0.0898
16036TIP3    H169599   3.420   2.697   4.381 -0.9088 -0.3711  0.9703
16036TIP3    H269600   3.333   2.787   4.297  0.1920  0.8523  1.1152
16037TIP3   OH269601   0.991   3.486   2.372  0.1585  0.0876  0.3016
16037TIP3    H169602   1.004   3.542   2.295  1.4537  2.3065  2.0373
16037TIP3    H269603   1.054   3.415   2.362 -0.4267 -0.2326 -1.1851
16038TIP3   OH269604   1.584   5.063   1.017 -0.0832  0.0353  0.3438
16038TIP3    H169605   1.600   4.968   1.015  0.0250  0.0545  0.2912
16038TIP3    H269606   1.531   5.077   1.095  1.1574  0.1311  1.1937
16039TIP3   OH269607   4.910   3.661  17.097  0.4340 -0.0571 -0.2542
16039TIP3    H169608   4.821   3.656  17.063  0.6763 -1.8038 -0.6616
16039TIP3    H269609   4.900   3.671  17.192 -0.2072  2.5714 -0.5423
16040TIP3   OH269610   2.788   1.656   4.388 -0.2102  0.7052  0.1245
16040TIP3    H169611   2.759   1.597   4.458 -0.8742  0.7375 -0.1186
16040TIP3    H269612   2.823   1.732   4.433  0.2768  0.2985  0.4349
16041TIP3   OH269613   1.334   1.947   0.857 -0.1529  0.3475  0.6243
16041TIP3    H169614   1.370   2.017   0.802  2.5180 -3.2166 -2.4175
16041TIP3    H269615   1.404   1.927   0.919  0.6204 -2.1690 -1.0176
16042TIP3   OH269616   6.136   4.605  10.273 -0.1407 -0.1271  0.4327
16042TIP3    H169617   6.134   4.675  10.337 -1.7872 -0.5193  0.8133
16042TIP3    H269618   6.143   4.650  10.188 -2.5679  0.5681  0.5750
16043TIP3   OH269619   3.773   5.706  12.995 -0.0026 -0.0203  0.3565
16043TIP3    H169620   3.743   5.622  12.962  0.4182  0.3194 -0.9173
16043TIP3    H269621   3.723   5.719  13.076 -2.7984  0.1681 -1.3033
16044TIP3   OH269622   6.707   1.240  14.504 -0.1039  0.6527 -0.2001
16044TIP3    H169623   6.741   1.191  14.429 -1.5623  1.5062 -1.4276
16044TIP3    H269624   6.749   1.326  14.498  1.6848 -0.0708  1.3915
16045TIP3   OH269625   2.077   6.428   2.807  0.0081 -0.1500  0.1572
16045TIP3    H169626   2.102   6.445   2.716 -0.1727 -1.5025 -0.1597
16045TIP3    H269627   1.982   6.441   2.809  0.1676  0.9946  0.4196
16046TIP3   OH269628   2.815   1.564   2.359  0.3876  0.4149 -0.7622
16046TIP3    H169629   2.907   1.550   2.340  1.5519  2.9129  2.5695
16046TIP3    H269630   2.791   1.493   2.419  0.2996  0.1637 -1.0903
16047TIP3   OH269631   5.394   1.631   3.041 -0.2885 -0.2099 -0.5099
16047TIP3    H169632   5.323   1.577   3.004  0.0067 -0.6961 -0.3694
16047TIP3    H269633   5.437   1.574   3.104  0.2926  0.0567 -0.6648
16048TIP3   OH269634   2.032   0.005   2.699 -0.0984  0.0495 -0.1541
16048TIP3    H169635   2.013  -0.010   2.792 -0.3164 -2.1897 -0.5290
16048TIP3    H269636   1.951   0.041   2.664 -0.5668 -0.6125  0.2214
16049TIP3   OH269637   1.280   1.889  11.238  0.0795  0.0067  0.5454
16049TIP3    H169638   1.352   1.919  11.293  1.1734  0.2991 -1.0119
16049TIP3    H269639   1.278   1.951  11.165 -1.4071 -0.3163  0.2896
16050TIP3   OH269640   0.208   5.728   3.426  0.1759  0.2289  0.3400
16050TIP3    H169641   0.140   5.661   3.430  0.2816  0.1885  1.6348
16050TIP3    H269642   0.257   5.708   3.346 -2.2713  1.1768 -1.4589
16051TIP3   OH269643   6.764   3.248  11.219  0.3682 -0.1704  0.3018
16051TIP3    H169644   6.791   3.218  11.133  0.3120  1.3243 -0.2387
16051TIP3    H269645   6.766   3.169  11.273  2.0183 -0.8011 -0.6500
16052TIP3   OH269646   5.987   2.195  13.910  0.2911  0.5781  0.4230
16052TIP3    H169647   5.914   2.178  13.969  2.2760  1.4147  3.1857
16052TIP3    H269648   6.039   2.114  13.912  0.9885  1.0308  0.7310
16053TIP3   OH269649   5.900   3.153   4.594  0.3941 -0.0163 -0.5216
16053TIP3    H169650   5.879   3.238   4.632  0.2242 -0.8831  1.3720
16053TIP3    H269651   5.828   3.136   4.533 -0.2510  0.6075  0.0513
16054TIP3   OH269652   6.730   2.109  16.364 -0.4961 -0.2393 -0.1993
16054TIP3    H169653   6.794   2.040  16.377 -1.2004 -0.8609  0.0226
16054TIP3    H269654   6.740   2.166  16.440  0.0214 -0.1553 -0.3337
16055TIP3   OH269655   0.349   4.047   1.532  0.4664 -0.3343 -0.7445
16055TIP3    H169656   0.313   4.121   1.484  1.8858  0.0187 -1.2824
16055TIP3    H269657   0.396   3.996   1.466 -1.1497 -2.1605 -0.5482
16056TIP3   OH269658   1.762   0.808  13.534 -0.4769  0.2143  0.1130
16056TIP3    H169659   1.731   0.811  13.444 -2.1810  1.0684  0.7229
16056TIP3    H269660   1.704   0.867  13.582  1.4071  1.0002  1.4793
16057TIP3   OH269661   5.829   2.488   4.207  1.0207  0.2226  0.5857
16057TIP3    H169662   5.739   2.458   4.219  1.4832 -0.5928  2.0590
16057TIP3    H269663   5.821   2.582   4.191 -0.0908  0.1498  0.6812
16058TIP3   OH269664   4.040   3.151   2.630 -0.6048 -0.1956  0.1864
16058TIP3    H169665   4.123   3.129   2.589 -0.1045  0.1644  0.9836
16058TIP3    H269666   4.041   3.104   2.713  0.3708  2.5470  1.8118
16059TIP3   OH269667   0.915   3.668   2.908 -0.5195  0.1471  0.3584
16059TIP3    H169668   0.886   3.578   2.923 -0.0266 -0.1465 -0.4409
16059TIP3    H269669   0.981   3.683   2.976 -0.7486 -0.0197  0.6212
16060TIP3   OH269670   0.139   3.075  14.973  0.1838  0.2245  0.3841
16060TIP3    H169671   0.069   3.033  14.923 -0.0720  0.8723  0.1998
16060TIP3    H269672   0.139   3.166  14.943  1.1767  0.2005  0.3075
16061TIP3   OH269673   2.088   4.942   1.376 -0.0654  0.5463 -0.3574
16061TIP3    H169674   1.997   4.969   1.369  0.0963  0.7960 -1.6786
16061TIP3    H269675   2.120   4.985   1.455 -2.1096 -2.6216  2.3156
16062TIP3   OH269676   3.677   2.454  11.029  0.0226 -0.1329  0.0732
16062TIP3    H169677   3.598   2.503  11.007  0.5324  0.8474  0.3864
16062TIP3    H269678   3.658   2.364  11.003 -0.9280  0.2308 -0.5052
16063TIP3   OH269679   5.200   3.978  12.022 -0.2694 -0.2027 -0.7897
16063TIP3    H169680   5.150   3.903  12.052 -0.8366  0.1027 -0.9616
16063TIP3    H269681   5.163   4.053  12.069  1.4908 -0.2657  0.7446
16064TIP3   OH269682   5.021   3.296   5.106  0.0623 -0.5653  0.2046
16064TIP3    H169683   5.092   3.267   5.162 -0.3080 -0.1833  0.8839
16064TIP3    H269684   5.014   3.229   5.038  2.2864  0.3229 -0.9464
16065TIP3   OH269685   0.467   2.344   3.617 -0.2394 -0.0048 -0.2794
16065TIP3    H169686   0.440   2.396   3.542 -0.4848  0.7248  0.3072
16065TIP3    H269687   0.535   2.285   3.583 -0.3576  0.3182 -1.0659
16066TIP3   OH269688   0.709   4.681   0.631 -0.5224 -0.0138 -0.1743
16066TIP3    H169689   0.759   4.632   0.697  0.6929  1.5287  0.0641
16066TIP3    H269690   0.678   4.759   0.676  3.5312  3.0426 -2.2760
16067TIP3   OH269691   0.546   1.056   4.351 -0.3340  0.0274 -0.4772
16067TIP3    H169692   0.514   0.989   4.291 -0.2526  0.8899 -1.4992
16067TIP3    H269693   0.547   1.013   4.436 -3.8199 -0.1544 -0.4441
16068TIP3   OH269694   5.774   4.338   2.549 -0.0329  0.0382  0.1751
16068TIP3    H169695   5.801   4.412   2.495 -2.3038  1.5748  1.0884
16068TIP3    H269696   5.737   4.275   2.486  0.0513  0.5469 -0.3869
16069TIP3   OH269697   6.509   4.062   3.050 -0.0964 -0.0631 -0.0766
16069TIP3    H169698   6.554   4.109   2.979  0.7283  0.2702  0.6614
16069TIP3    H269699   6.517   4.119   3.126 -0.4559 -0.6899  0.4367
16070TIP3   OH269700   1.987   4.745  13.999 -0.4570 -0.1825 -0.4156
16070TIP3    H169701   1.976   4.650  13.989  0.1005 -0.0464 -2.5394
16070TIP3    H269702   1.903   4.775  14.034 -1.6043 -1.1281 -2.2661
16071TIP3   OH269703   1.286   4.622  13.025  0.1784  0.0579 -0.3642
16071TIP3    H169704   1.259   4.684  12.957 -2.0449  4.0336  3.8446
16071TIP3    H269705   1.204   4.587  13.059  1.2404 -1.6650  0.4871
16072TIP3   OH269706   2.490   4.492  11.353  0.2414  0.6809 -0.6724
16072TIP3    H169707   2.427   4.528  11.290 -1.2563 -1.4288 -0.4582
16072TIP3    H269708   2.435   4.454  11.422  1.8114  0.5224  0.5127
16073TIP3   OH269709   2.600   6.532   2.198  0.2484  0.2901  0.1389
16073TIP3    H169710   2.640   6.615   2.170 -0.7081  0.7074 -0.0474
16073TIP3    H269711   2.521   6.559   2.244  0.8797 -0.4682  1.6890
16074TIP3   OH269712   0.610   5.697   4.991 -0.0723  0.0235  0.0845
16074TIP3    H169713   0.541   5.699   5.058 -0.2538 -1.6461 -0.0416
16074TIP3    H269714   0.680   5.750   5.027 -0.7560  0.3514  0.9559
16075TIP3   OH269715   6.518   1.856   5.714  0.5185  0.1772  0.6680
16075TIP3    H169716   6.480   1.892   5.634  0.1937 -0.7176  0.4095
16075TIP3    H269717   6.484   1.911   5.784  0.0728  0.4039  0.2721
16076TIP3   OH269718   3.028   4.854  14.742  0.2232  0.2737 -0.0934
16076TIP3    H169719   2.992   4.838  14.829 -0.3188  3.2993  0.3111
16076TIP3    H269720   3.000   4.779  14.690 -2.9321  0.3805  1.3281
16077TIP3   OH269721   0.249   3.630  16.027 -0.1658 -0.0709 -0.2559
16077TIP3    H169722   0.232   3.683  16.105  2.0283  0.4515 -0.1027
16077TIP3    H269723   0.337   3.596  16.040 -0.0861 -0.6367 -2.1566
16078TIP3   OH269724   2.035   0.989  11.456  0.2961 -0.0611  0.2610
16078TIP3    H169725   2.076   1.076  11.460  0.2686  0.0333 -1.3014
16078TIP3    H269726   1.943   1.006  11.473  0.2224  0.2736 -0.4659
16079TIP3   OH269727   1.572   6.338  16.724  0.2249  0.0127  0.1154
16079TIP3    H169728   1.558   6.246  16.743 -0.2377  0.0138 -0.1995
16079TIP3    H269729   1.602   6.376  16.807  1.1422 -0.5618  0.0463
16080TIP3   OH269730   4.706   1.016  15.793 -0.1162  0.2522  0.1410
16080TIP3    H169731   4.776   1.055  15.741 -1.1746  0.6045 -1.0750
16080TIP3    H269732   4.662   1.092  15.833  0.5623 -0.0044  1.3976
16081TIP3   OH269733   1.049   1.932  13.450  0.1828  0.9051 -0.0378
16081TIP3    H169734   1.128   1.929  13.397  1.2154  2.9844  1.3395
16081TIP3    H269735   1.078   1.961  13.536 -1.5655 -1.6773  1.5111
16082TIP3   OH269736   6.149   2.268   3.739  0.0485 -0.0741 -0.0937
16082TIP3    H169737   6.155   2.185   3.692 -0.1655  0.0209 -0.2916
16082TIP3    H269738   6.137   2.244   3.830  1.8308 -0.2752  0.1136
16083TIP3   OH269739   5.629   1.261   4.716  0.5677  0.2619  0.3599
16083TIP3    H169740   5.570   1.301   4.780  0.6926 -0.6650  1.0575
16083TIP3    H269741   5.642   1.330   4.650 -0.3669  0.8707  0.7948
16084TIP3   OH269742   2.112   1.012   5.790  0.1710 -0.0164 -0.3192
16084TIP3    H169743   2.127   1.028   5.883 -1.2723 -0.1379 -0.0414
16084TIP3    H269744   2.098   1.100   5.753  3.0676  0.2387 -0.8866
16085TIP3   OH269745   0.029   3.722   1.121  0.6114  0.0731  0.4653
16085TIP3    H169746   0.060   3.724   1.031  0.4613  0.5632  0.4261
16085TIP3    H269747   0.107   3.741   1.173  0.9797 -1.4660  0.5113
16086TIP3   OH269748   3.706   3.512  12.630  0.8744  0.7560  0.1902
16086TIP3    H169749   3.765   3.517  12.705  1.0816  1.4048 -0.0140
16086TIP3    H269750   3.726   3.426  12.591  0.9295  0.5171  0.7344
16087TIP3   OH269751   5.377   1.789   5.980 -0.1860 -0.1434 -0.3695
16087TIP3    H169752   5.292   1.828   5.998 -0.5744 -1.4262  0.6526
16087TIP3    H269753   5.358   1.696   5.964  0.8757 -0.2168 -1.3200
16088TIP3   OH269754   4.251   0.773  11.020 -0.3214 -0.2265 -0.1297
16088TIP3    H169755   4.201   0.845  10.983 -1.1346 -1.6133 -1.7692
16088TIP3    H269756   4.323   0.758  10.959  0.4428 -0.1301  0.7321
16089TIP3   OH269757   4.095   1.996   5.102 -0.1927 -0.0407  0.2100
16089TIP3    H169758   4.122   1.906   5.121  0.8778  0.5098  1.3891
16089TIP3    H269759   4.059   1.992   5.014  0.9490 -1.4142 -0.2152
16090TIP3   OH269760   3.602   1.880  13.626 -1.0042 -0.7671 -0.5276
16090TIP3    H169761   3.648   1.797  13.617 -2.2041 -1.3825 -1.1757
16090TIP3    H269762   3.634   1.933  13.553  2.1253  0.5324  1.6830
16091TIP3   OH269763   4.083   5.725  11.991  0.0527  0.5345 -0.5733
16091TIP3    H169764   4.054   5.764  11.908  0.4428  0.9174 -0.5271
16091TIP3    H269765   4.123   5.797  12.039  0.4326  0.1607 -0.3328
16092TIP3   OH269766   4.931   5.866  13.057  0.0007  0.6380  0.4772
16092TIP3    H169767   4.933   5.962  13.048 -2.6486  0.5788 -1.2778
16092TIP3    H269768   4.908   5.835  12.969 -0.6426 -1.5288  1.4065
16093TIP3   OH269769   5.045   0.014   0.507 -0.1344 -0.1297  0.2378
16093TIP3    H169770   5.020   0.003   0.598  0.0236  0.9817  0.4213
16093TIP3    H269771   5.036   0.108   0.490 -0.0403 -0.3021 -0.8527
16094TIP3   OH269772   4.695   3.083  14.809  0.0172  0.4644  0.1253
16094TIP3    H169773   4.634   3.096  14.881  1.4107  0.3757  1.3468
16094TIP3    H269774   4.664   3.003  14.766 -2.2775  1.8602 -0.9155
16095TIP3   OH269775   1.830   2.495   2.520  0.2638 -0.1926 -0.5476
16095TIP3    H169776   1.906   2.530   2.566  1.3506 -2.6952 -0.3690
16095TIP3    H269777   1.781   2.572   2.493  2.4320  1.4453  0.0570
16096TIP3   OH269778   0.748   1.320   3.896  0.0243 -0.6598 -0.0474
16096TIP3    H169779   0.674   1.308   3.837  0.8247  1.6152 -1.5622
16096TIP3    H269780   0.730   1.402   3.942  2.2339  0.6881 -1.4693
16097TIP3   OH269781   6.529   4.269   1.944  0.8288  0.3456 -0.4408
16097TIP3    H169782   6.616   4.244   1.915  0.7397  1.4507 -1.7021
16097TIP3    H269783   6.482   4.186   1.951  1.7134 -0.1775 -0.6266
16098TIP3   OH269784   2.999   5.901   4.310 -0.0672  0.0490  0.1894
16098TIP3    H169785   3.018   5.830   4.249 -0.7742  1.8245 -2.1837
16098TIP3    H269786   2.948   5.964   4.259  0.0489  2.0002  2.3718
16099TIP3   OH269787   3.086   4.690   3.543  0.0401 -0.4881 -0.3798
16099TIP3    H169788   3.144   4.729   3.609  0.6773  1.0359 -1.8075
16099TIP3    H269789   3.123   4.718   3.460 -2.1171 -0.4401 -1.3463
16100TIP3   OH269790   0.710   1.085  14.150  0.1974 -0.2406 -0.0615
16100TIP3    H169791   0.630   1.070  14.200  0.0844 -1.1380 -0.5110
16100TIP3    H269792   0.690   1.053  14.062  1.5142 -1.8349  0.1866
16101TIP3   OH269793   1.195   4.465   4.345 -0.0497  0.7032  0.2148
16101TIP3    H169794   1.281   4.424   4.346 -0.1286  0.5432  0.7586
16101TIP3    H269795   1.169   4.467   4.437 -1.4065 -0.9054 -0.1019
16102TIP3   OH269796   0.817   3.782   2.311  0.4252  0.0534 -0.2913
16102TIP3    H169797   0.757   3.765   2.383  2.6476 -0.0570  1.5780
16102TIP3    H269798   0.811   3.876   2.296  1.0735  0.3198  1.0613
16103TIP3   OH269799   3.684   2.257   5.089  0.2404  0.0726 -0.4918
16103TIP3    H169800   3.700   2.319   5.017  0.8012 -1.2670 -1.5324
16103TIP3    H269801   3.732   2.179   5.064 -0.4281 -0.7746  0.8470
16104TIP3   OH269802   1.332   6.643   0.135  0.4022  0.4071  0.1489
16104TIP3    H169803   1.280   6.652   0.215  0.4518 -0.0539  0.2342
16104TIP3    H269804   1.277   6.679   0.066  0.2944  0.6605  0.3662
16105TIP3   OH269805   0.846   4.684  11.900 -0.5058  0.1789 -0.5991
16105TIP3    H169806   0.774   4.746  11.895 -1.0203 -0.3764 -0.0965
16105TIP3    H269807   0.859   4.669  11.993  1.5295  1.7379 -0.5888
16106TIP3   OH269808   6.675   5.188  16.739 -0.3552 -0.2448  0.0016
16106TIP3    H169809   6.681   5.213  16.647  1.5113 -0.7465 -0.0404
16106TIP3    H269810   6.724   5.257  16.785  0.7486 -1.2495  0.3603
16107TIP3   OH269811   3.876   2.155  15.645 -0.4256 -0.0393 -0.3519
16107TIP3    H169812   3.818   2.080  15.645  0.2362 -0.5635  0.3091
16107TIP3    H269813   3.896   2.172  15.553 -0.2712 -0.9063 -0.4738
16108TIP3   OH269814   5.134   6.515   3.984 -0.0010  0.3568  0.4820
16108TIP3    H169815   5.099   6.453   4.048 -1.9945 -0.0569 -0.9668
16108TIP3    H269816   5.056   6.547   3.937  1.2042  2.3895 -0.1664
16109TIP3   OH269817   6.517   2.215   2.747 -0.1797  0.7725 -0.2369
16109TIP3    H169818   6.541   2.152   2.680 -0.9091  4.0245 -3.7348
16109TIP3    H269819   6.589   2.211   2.810  0.6440 -2.2152 -1.2702
16110TIP3   OH269820   3.910   4.096   2.930  0.3067  0.3190 -0.3104
16110TIP3    H169821   3.888   4.174   2.981 -0.3815 -1.4727  2.2414
16110TIP3    H269822   3.839   4.088   2.866 -1.9409 -0.5904  2.2386
16111TIP3   OH269823   1.878   5.860   1.957  0.8765  0.2168 -0.4352
16111TIP3    H169824   1.816   5.922   1.918 -0.0044 -0.3607  0.0356
16111TIP3    H269825   1.937   5.915   2.010  1.8096  0.9458 -2.2068
16112TIP3   OH269826   1.282   2.624   5.675 -0.5779 -0.5305  0.2621
16112TIP3    H169827   1.260   2.669   5.594 -0.8131  0.1830  0.7173
16112TIP3    H269828   1.377   2.618   5.674 -0.5832 -0.5559 -0.0827
16113TIP3   OH269829   4.356   3.710  14.915 -0.6655 -0.4687 -0.8467
16113TIP3    H169830   4.357   3.803  14.937  0.7372 -0.4820 -0.8291
16113TIP3    H269831   4.316   3.707  14.828 -2.1842 -0.0139 -0.1873
16114TIP3   OH269832   1.800   4.994  16.525 -0.0781 -0.2815  0.2313
16114TIP3    H169833   1.854   4.937  16.471 -0.6097 -0.6459  0.0811
16114TIP3    H269834   1.844   5.079  16.522 -0.9219  0.0904 -2.0077
16115TIP3   OH269835   2.467   5.651  12.251  0.0578  0.1541 -0.4067
16115TIP3    H169836   2.429   5.597  12.320  0.0098 -0.5611 -0.9836
16115TIP3    H269837   2.410   5.729  12.247 -0.3109 -0.0978 -0.0850
16116TIP3   OH269838   1.793   5.266  11.296 -0.4695 -0.6221 -0.2375
16116TIP3    H169839   1.860   5.230  11.355  0.6810 -1.7744 -2.1894
16116TIP3    H269840   1.842   5.322  11.236 -1.5659  0.1699 -0.3938
16117TIP3   OH269841   0.649   3.148   2.722 -0.0013  0.3568 -0.2958
16117TIP3    H169842   0.686   3.161   2.810 -0.3851  0.6450 -0.1682
16117TIP3    H269843   0.617   3.058   2.723 -1.8053  0.9739  0.5691
16118TIP3   OH269844   0.675   6.382  12.904  0.0966 -0.5434 -0.2126
16118TIP3    H169845   0.681   6.428  12.988  1.9134 -1.9540  0.4506
16118TIP3    H269846   0.702   6.293  12.923  2.1550 -0.5094 -2.6037
16119TIP3   OH269847   0.405   4.697   5.935  0.0424  0.0549 -0.2565
16119TIP3    H169848   0.460   4.648   5.874  2.3560 -0.8821  2.4596
16119TIP3    H269849   0.456   4.774   5.958  0.4008 -0.9235  2.4455
16120TIP3   OH269850   2.863   1.952  14.693  0.4384  0.4831  0.4293
16120TIP3    H169851   2.848   1.858  14.694 -0.1995  0.5610 -1.1733
16120TIP3    H269852   2.790   1.989  14.743  0.8796  0.1145  1.3612
16121TIP3   OH269853   3.832   2.872   0.768 -0.2778 -0.2330  0.5571
16121TIP3    H169854   3.914   2.898   0.811  1.9239 -0.6131 -3.1857
16121TIP3    H269855   3.822   2.934   0.696 -2.3754 -1.2362 -0.0454
16122TIP3   OH269856   1.233   3.296   3.703  0.5843  0.1995 -0.1352
16122TIP3    H169857   1.289   3.219   3.691  1.6579  1.0790 -0.8991
16122TIP3    H269858   1.144   3.262   3.694  0.9896 -1.1887  0.8822
16123TIP3   OH269859   2.950   4.593   4.549 -0.0431  0.1932  0.0012
16123TIP3    H169860   2.962   4.610   4.455  0.7159 -0.7806 -0.0865
16123TIP3    H269861   2.986   4.671   4.592 -2.0580  1.4698 -0.5496
16124TIP3   OH269862   0.649   6.727  15.941  0.0282 -0.3255 -0.2980
16124TIP3    H169863   0.700   6.701  16.018 -1.0240 -0.5617  0.3353
16124TIP3    H269864   0.650   6.650  15.884 -0.0309 -0.5005 -0.0637
16125TIP3   OH269865   4.977   0.636   4.250 -0.3809 -0.2678 -0.0543
16125TIP3    H169866   4.978   0.543   4.273 -2.7760  0.2804  2.5571
16125TIP3    H269867   4.912   0.643   4.180  0.3323 -0.6553 -0.7589
16126TIP3   OH269868   5.447   4.474  14.022 -0.1402 -0.4486 -0.6082
16126TIP3    H169869   5.366   4.464  14.073  0.1821 -0.7268 -0.1472
16126TIP3    H269870   5.478   4.385  14.009 -0.5466 -0.4229 -1.8354
16127TIP3   OH269871   0.797   6.717   0.253 -0.4128  0.4021 -0.0322
16127TIP3    H169872   0.733   6.681   0.314  0.7520  0.1666  1.0812
16127TIP3    H269873   0.778   6.811   0.250 -0.6718  0.3678  0.4782
16128TIP3   OH269874   4.283   0.816  12.398  0.1993  0.2565  0.0663
16128TIP3    H169875   4.355   0.872  12.429  1.0402 -1.1821  0.7993
16128TIP3    H269876   4.240   0.787  12.478  0.2114 -0.6972 -0.2694
16129TIP3   OH269877   3.482   4.474  11.544 -0.3823  0.5165  0.1429
16129TIP3    H169878   3.443   4.501  11.461 -1.1963  0.6619  0.5752
16129TIP3    H269879   3.510   4.384  11.529 -2.3484 -0.1442  0.3380
16130TIP3   OH269880   6.264   0.187   4.865 -0.2285 -0.3190 -0.6698
16130TIP3    H169881   6.188   0.130   4.881 -1.6390  1.1986 -1.8018
16130TIP3    H269882   6.229   0.275   4.873  1.9784  0.4205  1.2064
16131TIP3   OH269883   0.440   2.716   0.752  0.0596  1.0005 -0.1558
16131TIP3    H169884   0.398   2.630   0.747  0.3104  0.9528 -1.9717
16131TIP3    H269885   0.510   2.705   0.815  0.6981 -0.4208 -1.0863
16132TIP3   OH269886   5.655   5.887   1.632 -0.0580 -0.0430  0.1756
16132TIP3    H169887   5.694   5.820   1.576 -1.3514 -0.3726 -0.3284
16132TIP3    H269888   5.702   5.967   1.610  0.0922 -0.3719 -0.6829
16133TIP3   OH269889   0.470   1.704   3.968 -0.2669  0.0966 -0.0193
16133TIP3    H169890   0.414   1.769   4.010  0.9785  1.1823 -0.0162
16133TIP3    H269891   0.424   1.680   3.888 -0.2635  1.7474 -0.5375
16134TIP3   OH269892   4.885   1.724   0.212  0.1923  0.0631 -0.4123
16134TIP3    H169893   4.904   1.817   0.205 -0.5684  0.3140  0.6920
16134TIP3    H269894   4.804   1.711   0.161 -0.6398  0.3312  0.8115
16135TIP3   OH269895   1.366   6.244   2.146  0.1962 -0.2203 -0.3946
16135TIP3    H169896   1.354   6.334   2.115  2.7611 -0.4372 -2.2320
16135TIP3    H269897   1.356   6.250   2.241 -0.9900  1.7581 -0.6218
16136TIP3   OH269898   0.884   2.122  11.014 -0.0527 -0.4146  0.1659
16136TIP3    H169899   0.800   2.098  10.976 -0.3071  1.0876 -0.2853
16136TIP3    H269900   0.943   2.050  10.991 -0.9799 -1.0142 -0.3467
16137TIP3   OH269901   4.614   4.206  15.886  0.0593  0.1332 -0.3933
16137TIP3    H169902   4.530   4.216  15.842  0.5155  0.5123 -1.1927
16137TIP3    H269903   4.647   4.295  15.897 -0.6893  0.1413  2.0057
16138TIP3   OH269904   0.216   4.300   0.480 -0.5277 -0.6649 -0.0150
16138TIP3    H169905   0.269   4.222   0.473 -0.4269 -0.4528 -1.7546
16138TIP3    H269906   0.227   4.345   0.397  0.1476  1.6768  1.2915
16139TIP3   OH269907   5.111   4.908  12.119  0.5275 -0.2170 -0.4204
16139TIP3    H169908   5.067   4.991  12.133  0.4126 -0.4222  0.4523
16139TIP3    H269909   5.058   4.863  12.053 -0.1245 -0.1401  0.0565
16140TIP3   OH269910   5.332   0.948   0.474  0.3835  0.1579 -0.2421
16140TIP3    H169911   5.318   0.855   0.489  1.2209  0.0465 -0.1476
16140TIP3    H269912   5.395   0.974   0.542  0.5904  0.6650 -0.6269
16141TIP3   OH269913   3.303   1.296   0.623  0.6557 -0.2011  0.2457
16141TIP3    H169914   3.269   1.386   0.626  0.5821 -0.2301  0.2939
16141TIP3    H269915   3.387   1.301   0.668  0.6270 -0.1674  0.2953
16142TIP3   OH269916   1.243   4.236  11.399 -0.4592  0.1975 -0.0030
16142TIP3    H169917   1.292   4.313  11.430 -0.3159 -0.4334  1.4106
16142TIP3    H269918   1.164   4.235  11.454 -0.9166 -0.1216 -0.6640
16143TIP3   OH269919   0.165   1.376   2.213 -0.1548  0.1225  0.8253
16143TIP3    H169920   0.174   1.347   2.304 -0.8072  0.3929  0.9845
16143TIP3    H269921   0.248   1.420   2.193  0.0745 -0.1305  1.2200
16144TIP3   OH269922   1.115   6.311   4.387 -0.1346 -0.1645 -0.7215
16144TIP3    H169923   1.102   6.300   4.293  0.2629 -0.2943 -0.7616
16144TIP3    H269924   1.181   6.246   4.410 -0.2772 -0.1760 -0.3421
16145TIP3   OH269925   1.660   5.503  12.553  0.2661  0.2146  0.4591
16145TIP3    H169926   1.731   5.563  12.575  1.3222 -0.6650 -0.4415
16145TIP3    H269927   1.586   5.560  12.530  0.2972  1.1310  2.5658
16146TIP3   OH269928   3.721   4.803  11.976 -0.0709 -0.0307  0.2901
16146TIP3    H169929   3.797   4.847  12.015  0.0187 -0.1329  0.2291
16146TIP3    H269930   3.752   4.771  11.892 -0.1816 -0.0751  0.2669
16147TIP3   OH269931   2.397   4.833   5.240 -0.0957 -0.3605  0.6393
16147TIP3    H169932   2.390   4.761   5.302  0.8043  0.1490  1.3472
16147TIP3    H269933   2.462   4.892   5.278  0.6409 -0.1496 -0.8893
16148TIP3   OH269934   2.420   0.149   5.657 -0.2773  0.1845  0.5058
16148TIP3    H169935   2.421   0.204   5.735 -1.4358  0.0323  0.6403
16148TIP3    H269936   2.421   0.059   5.692  0.0854  0.1218  0.3289
16149TIP3   OH269937   4.385   5.513   1.029 -0.1698  0.4151 -0.0090
16149TIP3    H169938   4.342   5.560   0.957  1.2010  0.3732 -0.8820
16149TIP3    H269939   4.340   5.429   1.032 -1.5358  1.1503  0.4683
16150TIP3   OH269940   4.224   1.267   0.950 -0.1486 -0.3170  0.1013
16150TIP3    H169941   4.137   1.229   0.939 -0.6853  0.2060  2.2326
16150TIP3    H269942   4.247   1.301   0.864 -2.4158  0.2910 -0.2840
16151TIP3   OH269943   6.185   6.459   0.840 -0.4182 -0.9077  0.1725
16151TIP3    H169944   6.247   6.464   0.914  2.0193 -1.2717 -1.7669
16151TIP3    H269945   6.187   6.546   0.801 -1.4190 -0.8193  0.3244
16152TIP3   OH269946   0.700   6.661   0.903 -0.3711  0.0542 -0.3215
16152TIP3    H169947   0.770   6.723   0.924 -0.6653  0.5840 -0.8699
16152TIP3    H269948   0.650   6.654   0.984  0.4672 -0.5319  0.1494
16153TIP3   OH269949   3.702   2.224  15.265 -0.4652 -0.5347  0.1763
16153TIP3    H169950   3.754   2.281  15.323  1.3105 -1.4928 -0.4394
16153TIP3    H269951   3.652   2.285  15.211  3.0746  0.5689 -1.9906
16154TIP3   OH269952   0.604   5.739   3.603 -0.3578 -0.7803  0.3395
16154TIP3    H169953   0.588   5.686   3.525  1.0910 -0.5591 -0.1178
16154TIP3    H269954   0.607   5.675   3.674  2.7248 -1.5325 -0.3771
16155TIP3   OH269955   0.466   3.071  13.321  0.1417 -0.4335  0.0498
16155TIP3    H169956   0.426   3.098  13.404 -1.5285  0.0514 -0.8740
16155TIP3    H269957   0.486   3.153  13.276 -0.5914 -0.6763 -0.7559
16156TIP3   OH269958   3.440   1.404  13.650 -0.1453 -0.6326  0.6437
16156TIP3    H169959   3.426   1.341  13.721 -1.4901  0.5493  1.4460
16156TIP3    H269960   3.427   1.490  13.691 -0.4081  0.0831 -0.9137
16157TIP3   OH269961   3.744   0.323  12.330 -0.2269 -0.5264 -0.2319
16157TIP3    H169962   3.747   0.252  12.266 -1.5691  0.8326 -1.8413
16157TIP3    H269963   3.677   0.296  12.393  0.7504 -1.6369  0.3564
16158TIP3   OH269964   1.967   2.109  13.443 -0.1532 -0.2512  0.4204
16158TIP3    H169965   1.904   2.091  13.374 -1.2411  3.0261  0.4664
16158TIP3    H269966   1.925   2.079  13.524 -0.4092 -0.7779  0.0880
16159TIP3   OH269967   4.968   4.103   4.234  0.1765 -0.1540 -0.6062
16159TIP3    H169968   4.918   4.080   4.155  0.8062 -0.7484 -0.8346
16159TIP3    H269969   5.028   4.172   4.204 -1.0218  1.1165 -0.1525
16160TIP3   OH269970   1.031   1.682  12.896  0.1585  0.3873  0.3282
16160TIP3    H169971   1.043   1.612  12.832  0.4665  0.2840  0.4967
16160TIP3    H269972   0.943   1.715  12.880 -0.1204 -0.2784  0.4810
16161TIP3   OH269973   5.774   4.638  16.458  0.3428  0.0610  0.4072
16161TIP3    H169974   5.763   4.621  16.551 -0.1029 -1.5957  0.0786
16161TIP3    H269975   5.769   4.551  16.418 -3.3558  1.0770 -1.5413
16162TIP3   OH269976   0.113   4.087  13.833 -1.0996 -0.4061  0.8306
16162TIP3    H169977   0.069   4.171  13.847 -0.0095  0.3601 -0.2925
16162TIP3    H269978   0.089   4.035  13.910  0.6197  1.9663  3.0926
16163TIP3   OH269979   5.269   2.351  17.106 -0.0745 -0.3918 -0.5698
16163TIP3    H169980   5.329   2.315  17.040 -1.1226 -0.8986 -1.2625
16163TIP3    H269981   5.182   2.325  17.076 -0.6899  0.8387  0.1106
16164TIP3   OH269982   6.110   3.662  15.228 -0.0504  0.0909 -0.1365
16164TIP3    H169983   6.067   3.689  15.147 -1.0658  1.1641  0.7504
16164TIP3    H269984   6.198   3.699  15.221  0.5841 -1.6294 -1.6951
16165TIP3   OH269985   3.895   0.710   0.673 -0.0267  0.1350 -0.1478
16165TIP3    H169986   3.882   0.629   0.625  0.9033 -0.1477  0.0656
16165TIP3    H269987   3.947   0.765   0.614 -0.4162  0.4705 -0.1809
16166TIP3   OH269988   2.772   1.465   3.762  0.2640  0.1457 -0.1223
16166TIP3    H169989   2.794   1.388   3.815 -0.0171 -0.2168 -0.5226
16166TIP3    H269990   2.821   1.537   3.801  0.5550 -0.2480  0.2361
16167TIP3   OH269991   1.366   5.678   0.994  0.1681 -0.3582 -0.0353
16167TIP3    H169992   1.301   5.618   1.031 -0.4938 -0.9765 -2.1546
16167TIP3    H269993   1.439   5.622   0.969 -0.7410 -0.4449 -2.6877
16168TIP3   OH269994   2.417   1.348  10.780 -0.0052 -0.4055  0.5158
16168TIP3    H169995   2.402   1.355  10.874 -0.5773  1.3212  0.3146
16168TIP3    H269996   2.373   1.267  10.754  0.7180 -1.2351  1.8274
16169TIP3   OH269997   4.952   2.767  11.595  0.0584 -0.5404  0.1448
16169TIP3    H169998   4.935   2.792  11.504  2.0729 -0.1930 -0.1648
16169TIP3    H269999   4.866   2.764  11.635 -0.7609  0.6731 -1.4311
16170TIP3   OH270000   5.397   6.648  15.946  0.0412  0.2143  0.1814
16170TIP3    H170001   5.339   6.578  15.916 -0.2549  0.8650 -0.7929
16170TIP3    H270002   5.347   6.728  15.932  0.4596  0.6376  1.0959
16171TIP3   OH270003   4.861   6.264   5.295 -0.1150 -0.4903 -0.3868
16171TIP3    H170004   4.939   6.244   5.345  1.5002  0.9995 -2.2253
16171TIP3    H270005   4.869   6.211   5.215 -1.9775 -1.8257  0.2772
16172TIP3   OH270006   6.604   2.970   1.700  0.0707  0.3766  0.0104
16172TIP3    H170007   6.519   2.986   1.658  0.4072  0.7514 -0.5535
16172TIP3    H270008   6.623   3.052   1.746  0.3580  0.4803 -0.2882
16173TIP3   OH270009   4.058   6.715   3.572  0.2083 -0.0049  0.5575
16173TIP3    H170010   3.984   6.668   3.533 -0.2937  0.4484  0.9527
16173TIP3    H270011   4.135   6.664   3.546 -0.3548 -1.2783  1.3021
16174TIP3   OH270012   3.767   3.220   1.084 -0.0415 -0.6555 -0.3235
16174TIP3    H170013   3.763   3.211   0.989 -1.7117 -0.1109 -0.3208
16174TIP3    H270014   3.680   3.248   1.109  0.7443  0.4438  1.2536
16175TIP3   OH270015   3.041   1.878  10.166 -0.4246 -0.1515  0.4550
16175TIP3    H170016   3.019   1.971  10.162 -0.1180 -0.1686 -2.6970
16175TIP3    H270017   3.134   1.874  10.144 -1.0683 -1.4054 -2.1968
16176TIP3   OH270018   0.314   6.508   6.270  0.1847  0.5809  0.0570
16176TIP3    H170019   0.267   6.427   6.249  1.4322 -0.8693  2.6940
16176TIP3    H270020   0.249   6.577   6.258 -1.0374 -0.8277 -1.7360
16177TIP3   OH270021   0.687   6.778   6.248  0.3688  0.2406 -0.5222
16177TIP3    H170022   0.651   6.690   6.231 -0.1573  0.6817 -1.7575
16177TIP3    H270023   0.777   6.774   6.217 -0.2218  0.6796 -2.3399
16178TIP3   OH270024   0.860   2.939   5.567  0.2901  0.6880 -0.2354
16178TIP3    H170025   0.827   3.002   5.504  1.4033  1.0089 -0.5085
16178TIP3    H270026   0.946   2.972   5.592  0.7847 -0.5724 -0.1883
16179TIP3   OH270027   4.855   2.267   5.614 -0.1982 -0.3392  0.1474
16179TIP3    H170028   4.804   2.316   5.550  0.7397  0.0866 -0.2941
16179TIP3    H270029   4.810   2.183   5.622 -1.5321  0.3942  0.5291
16180TIP3   OH270030   2.040   3.849  14.608 -0.3513 -0.3055  0.4178
16180TIP3    H170031   1.948   3.861  14.629 -1.0130 -1.8770 -1.3613
16180TIP3    H270032   2.078   3.936  14.612 -1.7832  0.2702  1.7543
16181TIP3   OH270033   0.576   2.938  15.360  0.2252  0.4587 -0.5741
16181TIP3    H170034   0.623   2.965  15.439 -1.2305  1.7797 -0.1226
16181TIP3    H270035   0.597   3.006  15.296  1.8895 -0.9307 -1.5354
16182TIP3   OH270036   4.103   5.103   5.122  0.8070 -0.0124 -0.0036
16182TIP3    H170037   4.040   5.040   5.156 -0.6257  0.6039 -1.4776
16182TIP3    H270038   4.143   5.141   5.201 -0.9431 -0.1105  0.9679
16183TIP3   OH270039   2.260   3.519   0.598  0.1230  0.1069 -0.0992
16183TIP3    H170040   2.184   3.575   0.617  0.7970  0.3005  2.1312
16183TIP3    H270041   2.317   3.530   0.673  1.3668 -1.7692 -0.7447
16184TIP3   OH270042   4.247   0.155  14.497  0.0852  1.0896  0.2549
16184TIP3    H170043   4.280   0.098  14.566  2.2444  1.0536 -0.7635
16184TIP3    H270044   4.220   0.095  14.427  0.4231  1.2181  0.0102
16185TIP3   OH270045   1.588   3.046  15.554 -0.4176  0.6888 -0.1060
16185TIP3    H170046   1.522   2.999  15.604 -0.3103 -0.4669 -1.0510
16185TIP3    H270047   1.545   3.070  15.473 -0.3719  1.9630  0.2217
16186TIP3   OH270048   1.789   2.574   5.075 -0.3961 -0.1128 -0.0712
16186TIP3    H170049   1.802   2.481   5.094 -0.8802 -0.4736 -1.4519
16186TIP3    H270050   1.773   2.577   4.980  1.6284  1.5830 -0.4083
16187TIP3   OH270051   4.154   6.545   4.976  0.2560 -0.1678 -0.2062
16187TIP3    H170052   4.203   6.534   5.058  0.0579 -0.6541 -0.1558
16187TIP3    H270053   4.178   6.633   4.946 -0.7051  0.5379  1.0548
16188TIP3   OH270054   1.215   4.228  16.461 -0.1094  0.0548  0.1149
16188TIP3    H170055   1.140   4.251  16.405  0.2468 -0.2116 -0.4858
16188TIP3    H270056   1.182   4.238  16.550 -0.1660  2.3107 -0.1196
16189TIP3   OH270057   3.536   3.483  11.535  0.3051 -0.3719  0.0775
16189TIP3    H170058   3.607   3.420  11.546  0.3927 -0.0848  1.2479
16189TIP3    H270059   3.457   3.432  11.552  0.3370 -0.3139  0.4050
16190TIP3   OH270060   5.008   5.655  11.682 -0.4694  0.0063  0.0944
16190TIP3    H170061   4.934   5.644  11.741  1.7333 -0.9732  2.8194
16190TIP3    H270062   5.065   5.718  11.727  1.4526 -1.0784 -0.7469
16191TIP3   OH270063   1.063   2.700  14.141  0.2670 -0.3003  0.3336
16191TIP3    H170064   1.140   2.752  14.163  0.7009 -0.2274 -1.2915
16191TIP3    H270065   1.018   2.750  14.073  0.2880 -1.6724 -0.7140
16192TIP3   OH270066   6.342   3.716  13.291 -0.4052  0.5236 -0.6400
16192TIP3    H170067   6.375   3.679  13.373  0.8067 -1.0607 -1.8071
16192TIP3    H270068   6.388   3.799  13.282  0.0738  0.3224 -0.1124
16193TIP3   OH270069   6.227   0.784  11.013  0.1524 -0.2571  0.6420
16193TIP3    H170070   6.287   0.760  11.083  1.6811  0.9360 -0.2241
16193TIP3    H270071   6.267   0.861  10.972 -0.8275 -0.7830 -1.3844
16194TIP3   OH270072   3.127   5.018  12.111 -0.3739 -0.7633 -0.1893
16194TIP3    H170073   3.155   5.097  12.066 -0.1421 -0.9419 -0.3556
16194TIP3    H270074   3.163   5.026  12.199 -0.4607 -0.6239 -0.1657
16195TIP3   OH270075   0.001   1.571   3.189  0.1312 -0.6607  0.8968
16195TIP3    H170076  -0.041   1.625   3.256  0.4921 -1.5446  1.8478
16195TIP3    H270077  -0.059   1.499   3.175 -0.7786  0.4339 -1.0319
16196TIP3   OH270078   6.225   4.329   5.991 -0.1486 -0.4201 -0.7995
16196TIP3    H170079   6.304   4.290   5.954 -0.1681 -0.2635 -1.0053
16196TIP3    H270080   6.220   4.293   6.080  0.6538  0.2799 -0.4581
16197TIP3   OH270081   3.511   5.633  14.909  0.3486  0.3616  0.9042
16197TIP3    H170082   3.462   5.708  14.875 -0.0234  0.7843  2.3512
16197TIP3    H270083   3.565   5.669  14.979  0.1014 -0.7465  1.6699
16198TIP3   OH270084   3.054   0.460  15.525  0.0410  0.3129  0.1078
16198TIP3    H170085   3.095   0.530  15.576  0.1830  0.6155 -0.4119
16198TIP3    H270086   3.094   0.468  15.438 -0.4483  0.0204 -0.1440
16199TIP3   OH270087   1.720   2.615  11.218 -0.3984 -0.5842 -0.3123
16199TIP3    H170088   1.767   2.594  11.138 -1.0671  0.1305 -0.9088
16199TIP3    H270089   1.751   2.703  11.241 -2.5999  0.5860 -1.6129
16200TIP3   OH270090   2.888   2.008  13.204  0.0901 -0.3278 -0.2788
16200TIP3    H170091   2.853   2.067  13.138  1.0268  0.3337 -0.1905
16200TIP3    H270092   2.982   2.001  13.183  0.5327  0.4592  1.4082
16201TIP3   OH270093   1.522   0.728  12.711 -0.2384  0.3313 -0.2689
16201TIP3    H170094   1.440   0.755  12.669 -0.9050  0.8630  1.3220
16201TIP3    H270095   1.586   0.726  12.640 -0.8564  3.2418 -0.9682
16202TIP3   OH270096   2.966   0.615   1.323  0.1653 -0.3473 -0.7107
16202TIP3    H170097   2.945   0.553   1.252  0.4167  0.1167 -1.1917
16202TIP3    H270098   2.887   0.668   1.333 -1.3777 -3.0253  2.1118
16203TIP3   OH270099   4.168   0.624  16.855 -0.2858  0.2378 -0.0458
16203TIP3    H170100   4.134   0.703  16.896  0.2720  0.1943  0.5087
16203TIP3    H270101   4.225   0.656  16.785 -1.3190  0.3108 -0.8550
16204TIP3   OH270102   2.315   0.691   0.661  0.3116  0.3034  0.6401
16204TIP3    H170103   2.289   0.782   0.645 -0.8152 -0.1897 -0.4409
16204TIP3    H270104   2.384   0.697   0.727  1.3173  2.0595 -0.5207
16205TIP3   OH270105   4.619   3.743   3.110 -0.0941  0.3893 -0.0171
16205TIP3    H170106   4.559   3.707   3.046 -0.5425 -0.2560  0.7526
16205TIP3    H270107   4.704   3.744   3.066 -0.4508  0.2195 -0.7105
16206TIP3   OH270108   4.171   5.471   5.198  0.2459 -0.2130  0.1379
16206TIP3    H170109   4.154   5.551   5.247 -0.2254 -0.1431 -0.1392
16206TIP3    H270110   4.130   5.485   5.113  0.1556 -0.7494  0.0872
16207TIP3   OH270111   1.268   6.120  12.763 -0.4156  0.0909  0.5937
16207TIP3    H170112   1.252   6.031  12.730  1.1447  0.0797 -0.1861
16207TIP3    H270113   1.338   6.153  12.707 -2.0243  2.3995 -0.1235
16208TIP3   OH270114   4.922   1.735   5.173  0.2857 -0.3731  0.6810
16208TIP3    H170115   5.016   1.720   5.168  0.9070  1.8647  3.8293
16208TIP3    H270116   4.899   1.777   5.090  2.3804  0.6469  0.6108
16209TIP3   OH270117   1.213   4.718   3.640  0.2136 -0.0456  0.5999
16209TIP3    H170118   1.162   4.754   3.712 -0.6516  0.6949 -0.3646
16209TIP3    H270119   1.211   4.624   3.653 -1.7353 -0.0531  0.3736
16210TIP3   OH270120   6.256   5.149  14.372 -0.1988 -0.6525  0.7089
16210TIP3    H170121   6.240   5.062  14.335 -0.2704 -0.5382  0.4766
16210TIP3    H270122   6.180   5.201  14.346  0.4192 -0.1883 -0.1575
16211TIP3   OH270123   3.730   5.855  14.831  0.3533 -0.4040  0.1060
16211TIP3    H170124   3.702   5.801  14.905  1.0423  0.0041  0.6770
16211TIP3    H270125   3.671   5.831  14.759 -0.0939 -1.0588  0.6880
16212TIP3   OH270126   5.779   3.297   1.411  0.4652  0.2590  0.1084
16212TIP3    H170127   5.820   3.222   1.455  1.3481  0.0353 -1.0635
16212TIP3    H270128   5.688   3.295   1.440  1.1015  0.3832  2.2724
16213TIP3   OH270129   2.932   3.476  11.396  0.2315 -0.2078 -0.0832
16213TIP3    H170130   2.976   3.400  11.356  0.7710  0.5920 -1.0134
16213TIP3    H270131   2.991   3.504  11.466  1.9452  1.7567 -2.2551
16214TIP3   OH270132   5.135   5.450  16.036  0.2752  0.0113  0.3954
16214TIP3    H170133   5.207   5.400  15.998  0.7563  0.6607  0.4379
16214TIP3    H270134   5.082   5.385  16.081 -0.2080 -0.7524 -1.2402
16215TIP3   OH270135   3.260   3.869   2.835 -0.4504 -0.5158  0.4915
16215TIP3    H170136   3.209   3.837   2.761 -1.2168  1.3958  0.1658
16215TIP3    H270137   3.328   3.803   2.847 -0.8594 -1.3098 -1.3298
16216TIP3   OH270138   4.325   0.687  14.280 -0.0693  0.1631 -0.9684
16216TIP3    H170139   4.389   0.754  14.255  0.6643  0.4868  1.7157
16216TIP3    H270140   4.376   0.607  14.288  0.0596  0.4649  1.3861
16217TIP3   OH270141   3.782   5.214   4.804 -0.1690 -0.0591  0.6545
16217TIP3    H170142   3.830   5.296   4.819 -0.7573  0.4558 -0.2049
16217TIP3    H270143   3.770   5.177   4.891  1.1973  0.1499  0.9444
16218TIP3   OH270144   1.311   1.764   0.607 -0.1065  0.1995  0.2681
16218TIP3    H170145   1.261   1.695   0.650 -0.5210  0.0509 -0.4545
16218TIP3    H270146   1.345   1.818   0.680  0.3020 -0.8083  0.8389
16219TIP3   OH270147   2.047   5.260   1.328  0.1268  0.1843  0.4846
16219TIP3    H170148   1.978   5.209   1.286  0.7022 -0.7447  0.6531
16219TIP3    H270149   2.034   5.247   1.422 -0.4481  1.3178  0.5728
16220TIP3   OH270150   2.573   5.664  13.182 -0.4876  0.1519 -0.3249
16220TIP3    H170151   2.505   5.714  13.227  0.5914  0.2079  1.2489
16220TIP3    H270152   2.551   5.573  13.199  0.2233  0.1834  0.7683
16221TIP3   OH270153   5.853   6.509   2.355  0.3368  0.3647 -0.1628
16221TIP3    H170154   5.898   6.520   2.438 -0.2702  1.0921  0.0696
16221TIP3    H270155   5.791   6.438   2.370  0.0021  0.7115  0.0993
16222TIP3   OH270156   3.667   3.488   3.912  0.1942 -0.5125 -0.1922
16222TIP3    H170157   3.666   3.534   3.828 -2.5905  0.1116  0.1350
16222TIP3    H270158   3.638   3.554   3.976 -1.8225 -2.1058  0.5962
16223TIP3   OH270159   4.364   0.200  10.971  0.3245 -0.1771  0.1128
16223TIP3    H170160   4.318   0.280  10.996 -1.8796 -1.4371  0.2487
16223TIP3    H270161   4.438   0.195  11.032  0.4938  1.7520  0.0829
16224TIP3   OH270162   2.132   0.627   3.947 -0.4843 -0.4795 -0.3007
16224TIP3    H170163   2.108   0.717   3.966 -0.4069 -0.6068  0.4124
16224TIP3    H270164   2.206   0.634   3.886  1.4240 -0.0161  1.9902
16225TIP3   OH270165   1.806   5.948   5.361  0.3884  0.8264 -0.3671
16225TIP3    H170166   1.766   5.875   5.314  0.2554  0.0476  0.9111
16225TIP3    H270167   1.732   6.005   5.382  0.2004  0.3467  0.3180
16226TIP3   OH270168   6.168   2.389   5.850 -0.4698 -0.1574  0.5981
16226TIP3    H170169   6.246   2.342   5.821 -2.4144 -2.6335 -0.7567
16226TIP3    H270170   6.188   2.481   5.833  2.5539 -0.6548  1.2650
16227TIP3   OH270171   2.519   4.255  14.929 -0.2010 -0.3635 -0.0277
16227TIP3    H170172   2.455   4.312  14.969 -0.1289 -0.0001 -0.4217
16227TIP3    H270173   2.506   4.267  14.835  1.2576  0.6306 -0.1082
16228TIP3   OH270174   3.151   5.432  11.139  0.0219  0.0263  0.5665
16228TIP3    H170175   3.160   5.336  11.134 -2.1022 -0.2075  0.8319
16228TIP3    H270176   3.124   5.449  11.229 -1.5319  0.7033 -0.0151
16229TIP3   OH270177   4.995   3.901  17.269  0.2127  0.6170 -0.0843
16229TIP3    H170178   5.070   3.905  17.209 -0.2963 -0.3290 -0.8026
16229TIP3    H270179   4.942   3.977  17.246  0.8328  1.1687  0.2800
16230TIP3   OH270180   3.265   4.821   2.190  0.0775  0.5595  0.0066
16230TIP3    H170181   3.290   4.759   2.122  0.4176  1.2359 -0.4889
16230TIP3    H270182   3.180   4.790   2.221  0.2618 -0.1687 -0.2152
16231TIP3   OH270183   3.278   4.855   1.441 -0.2646 -0.7805 -0.3272
16231TIP3    H170184   3.197   4.803   1.443  0.2930 -1.6958 -1.2056
16231TIP3    H270185   3.248   4.945   1.450 -1.3093 -1.1820  0.3792
16232TIP3   OH270186   1.792   0.708   6.175 -0.3797  0.4237  0.7385
16232TIP3    H170187   1.700   0.732   6.171 -0.6995 -0.7114  1.0790
16232TIP3    H270188   1.814   0.710   6.268 -0.4464 -0.6677  0.7898
16233TIP3   OH270189   2.558   0.469  16.874  0.0097 -0.1333 -0.6364
16233TIP3    H170190   2.616   0.394  16.882  2.3944  1.7719  0.4447
16233TIP3    H270191   2.565   0.497  16.783  0.0689 -0.4463 -0.7273
16234TIP3   OH270192   0.773   5.898   5.049  0.0859  0.0525  0.3029
16234TIP3    H170193   0.865   5.873   5.038 -0.2144 -0.5895 -0.8412
16234TIP3    H270194   0.775   5.993   5.060  0.9014  0.0252  0.3941
16235TIP3   OH270195   4.522   3.945   3.262  0.8319  0.3083  0.4747
16235TIP3    H170196   4.431   3.918   3.248  0.5982  1.3481 -0.0105
16235TIP3    H270197   4.572   3.894   3.199  0.3674  1.1438 -0.5819
16236TIP3   OH270198   3.744   0.767  13.080 -0.5100  0.0079  0.1569
16236TIP3    H170199   3.708   0.774  12.991 -2.4942  0.7945  0.9867
16236TIP3    H270200   3.771   0.856  13.102  0.7102 -0.3258  0.0794
16237TIP3   OH270201   0.085   5.997  16.649  0.2572 -0.1974 -0.4191
16237TIP3    H170202   0.004   6.032  16.611  0.9121 -0.2892 -1.9258
16237TIP3    H270203   0.068   5.995  16.743 -0.7582  1.6946 -0.5278
16238TIP3   OH270204   4.154   3.011  12.499 -0.5116 -0.4125  0.1250
16238TIP3    H170205   4.197   3.062  12.567 -1.4846 -1.4682  1.5653
16238TIP3    H270206   4.212   2.937  12.484 -2.1670 -2.3220  2.7152
16239TIP3   OH270207   2.309   5.220   0.032  0.6229  0.1677  0.6762
16239TIP3    H170208   2.341   5.148   0.086  1.5632  1.4241  1.8394
16239TIP3    H270209   2.246   5.265   0.087  0.9514  0.9581  0.4208
16240TIP3   OH270210   6.630   3.333   6.166  0.7355  0.4414 -0.5156
16240TIP3    H170211   6.580   3.340   6.085 -0.3430  1.4208  0.2278
16240TIP3    H270212   6.569   3.295   6.230  1.5839 -0.3500 -0.1473
16241TIP3   OH270213   4.770   4.280   2.395  0.5682  0.2839 -0.6924
16241TIP3    H170214   4.678   4.301   2.377  0.2092 -1.2015 -0.6242
16241TIP3    H270215   4.816   4.306   2.315  0.0887  0.9553 -0.7622
16242TIP3   OH270216   6.325   1.161  12.428  0.1332  0.7910  0.2111
16242TIP3    H170217   6.280   1.102  12.367 -0.0892 -0.8605  1.9109
16242TIP3    H270218   6.387   1.104  12.473 -0.0499  1.8683  1.8518
16243TIP3   OH270219   6.433   5.346  10.993  0.4567 -0.4096 -0.7905
16243TIP3    H170220   6.395   5.272  10.946 -1.5233 -0.4024  0.7605
16243TIP3    H270221   6.395   5.423  10.950 -0.1948 -0.3782 -0.1744
16244TIP3   OH270222   4.528   0.815  12.808 -0.4706  0.2957  0.3351
16244TIP3    H170223   4.601   0.759  12.780 -0.1167  2.7450 -4.0797
16244TIP3    H270224   4.450   0.766  12.782 -0.2824  0.0208  0.2789
16245TIP3   OH270225   3.112   1.483   1.357 -0.2687 -0.4006  0.0520
16245TIP3    H170226   3.109   1.570   1.396  0.3416 -0.6748  0.7249
16245TIP3    H270227   3.144   1.498   1.268 -0.3378  0.0748  0.1043
16246TIP3   OH270228   5.763   0.203  15.893 -0.1296  0.0379 -0.3805
16246TIP3    H170229   5.771   0.295  15.867  2.2608  0.3958  1.4273
16246TIP3    H270230   5.817   0.156  15.829 -0.0128  0.0769 -0.3114
16247TIP3   OH270231   0.441   5.258   4.294  0.3158 -0.0495 -0.2386
16247TIP3    H170232   0.444   5.193   4.223 -2.6980  0.8373 -1.2374
16247TIP3    H270233   0.493   5.331   4.262 -0.3824  0.0238 -1.2348
16248TIP3   OH270234   4.706   6.676   3.736 -0.1870 -0.0618 -0.0322
16248TIP3    H170235   4.686   6.692   3.828 -2.7545  3.8690 -1.1804
16248TIP3    H270236   4.798   6.702   3.727 -0.4728  1.3399  1.0024
16249TIP3   OH270237   6.545   5.605  15.116  0.3137 -0.0075  0.6137
16249TIP3    H170238   6.548   5.602  15.020  0.1348  1.0745  0.5731
16249TIP3    H270239   6.630   5.573  15.144  0.8940  1.0411  0.0640
16250TIP3   OH270240   6.670   2.956  15.581 -0.2447 -0.1380 -0.4706
16250TIP3    H170241   6.649   2.872  15.540  0.2574  0.1793 -1.4038
16250TIP3    H270242   6.762   2.948  15.606  0.2292  0.6391 -1.8863
16251TIP3   OH270243   1.930   1.042   1.080  0.0781 -0.1879  0.4380
16251TIP3    H170244   1.944   1.074   0.991 -1.8327 -0.0558  0.1580
16251TIP3    H270245   1.941   1.119   1.135 -3.1036  0.7342 -0.1125
16252TIP3   OH270246   5.388   1.644   3.427 -0.6052  0.2137 -0.1593
16252TIP3    H170247   5.403   1.739   3.427  0.2679  0.0803  0.0142
16252TIP3    H270248   5.341   1.627   3.508  0.3906  0.3279  0.4516
16253TIP3   OH270249   2.125   3.764   1.623  0.0869 -0.6009 -1.0000
16253TIP3    H170250   2.096   3.677   1.649 -0.6195 -0.0077  0.2269
16253TIP3    H270251   2.178   3.795   1.696 -1.6129  0.9391 -0.4021
16254TIP3   OH270252   6.161   3.640   1.816  0.0146  0.3640  0.3455
16254TIP3    H170253   6.081   3.596   1.844 -0.3048  0.7725  0.0818
16254TIP3    H270254   6.162   3.631   1.721  0.3128  0.3053  0.3533
16255TIP3   OH270255   5.631   0.048   2.079 -0.3023  0.1146 -0.2207
16255TIP3    H170256   5.662   0.023   1.992  0.0290 -0.7091  0.1214
16255TIP3    H270257   5.601  -0.035   2.118 -3.4375  0.9551 -0.7344
16256TIP3   OH270258   3.997   6.567  13.363 -1.0025 -0.0260  0.6033
16256TIP3    H170259   4.072   6.626  13.356 -2.2284  1.5469  0.3763
16256TIP3    H270260   4.032   6.480  13.343  0.3603  0.9561 -1.3699
16257TIP3   OH270261   3.383   6.740   3.883  0.9611  0.1635 -0.1292
16257TIP3    H170262   3.377   6.818   3.828  1.1666  0.5465  0.3797
16257TIP3    H270263   3.394   6.775   3.972 -1.6138 -0.4254  0.4527
16258TIP3   OH270264   1.066   6.375  16.326 -0.3661  0.5993  0.0544
16258TIP3    H170265   1.113   6.292  16.315 -2.7270 -0.6753 -0.8114
16258TIP3    H270266   1.111   6.437  16.269  0.2470 -0.6079 -0.7811
16259TIP3   OH270267   2.089   4.297   3.395  0.3209 -0.2018 -0.7595
16259TIP3    H170268   2.142   4.371   3.423 -0.5656  0.6408 -1.2984
16259TIP3    H270269   2.098   4.295   3.300 -0.3572 -0.2562 -0.8233
16260TIP3   OH270270   6.820   1.618   2.526  0.3109 -0.0708  0.6975
16260TIP3    H170271   6.797   1.618   2.433 -0.4327  2.1905  0.8676
16260TIP3    H270272   6.801   1.528   2.555 -0.4706 -0.4903 -1.0767
16261TIP3   OH270273   0.631   3.194  11.578  0.2486  0.3467  0.1693
16261TIP3    H170274   0.601   3.138  11.506 -0.1693  0.1904  0.4596
16261TIP3    H270275   0.714   3.230  11.548 -0.0721  0.5187 -0.5124
16262TIP3   OH270276   1.416   5.901  11.792 -0.0649  0.2125  0.1598
16262TIP3    H170277   1.433   5.994  11.806 -1.7679  0.1650  2.7892
16262TIP3    H270278   1.322   5.895  11.774 -0.5577 -1.2561  2.9458
16263TIP3   OH270279   2.483   0.097  17.183 -0.5010  0.0376 -0.2029
16263TIP3    H170280   2.562   0.077  17.233  0.0589 -0.0904 -1.1251
16263TIP3    H270281   2.424   0.138  17.246 -0.2754 -1.2301  0.8551
16264TIP3   OH270282   2.973   4.742   1.047 -0.0287  0.3845 -0.3142
16264TIP3    H170283   3.039   4.712   0.985  0.3523  0.2625  0.1444
16264TIP3    H270284   2.897   4.686   1.032  0.1285  0.2328 -0.5348
16265TIP3   OH270285   3.285   3.178  14.561  0.0014 -0.3660 -0.9839
16265TIP3    H170286   3.310   3.111  14.625 -0.8688 -0.4845 -0.7602
16265TIP3    H270287   3.290   3.134  14.476 -0.6059 -0.7229 -0.8344
16266TIP3   OH270288   1.988   2.767  12.054  0.0325 -0.2733 -0.0401
16266TIP3    H170289   2.064   2.821  12.074  0.7314 -0.6823 -1.5371
16266TIP3    H270290   2.023   2.681  12.032 -1.0831 -1.3761  2.3270
16267TIP3   OH270291   4.131   5.286  12.785  0.0673 -0.2912  0.2394
16267TIP3    H170292   4.142   5.361  12.727  1.0211  1.8875  3.0769
16267TIP3    H270293   4.048   5.248  12.760 -0.2050  1.4465 -1.6105
16268TIP3   OH270294   5.000   5.191   1.492  0.1131 -0.2979 -0.2122
16268TIP3    H170295   4.923   5.158   1.446  0.4754  0.2375 -1.2074
16268TIP3    H270296   5.071   5.134   1.462  0.5520  0.7276 -1.1717
16269TIP3   OH270297   4.899   2.843  12.433 -0.2176 -0.3485 -0.1319
16269TIP3    H170298   4.914   2.754  12.402  0.5664  0.2255 -1.4637
16269TIP3    H270299   4.864   2.889  12.356 -0.6351  0.4815  0.5479
16270TIP3   OH270300   1.050   3.370  15.840 -0.3078 -0.9396  0.0322
16270TIP3    H170301   1.011   3.376  15.928 -0.2635 -0.9815  0.0542
16270TIP3    H270302   1.107   3.293  15.845  0.5481 -0.2904  0.2919
16271TIP3   OH270303   4.326   0.077   0.680  0.2893 -0.3086  0.1334
16271TIP3    H170304   4.236   0.107   0.688  0.4366  0.5584 -1.2553
16271TIP3    H270305   4.339   0.018   0.754 -0.8965  0.8401  1.2693
16272TIP3   OH270306   0.804   3.180   2.982  0.1053 -0.3953 -0.3567
16272TIP3    H170307   0.825   3.196   3.074 -0.8555 -2.6020  0.2772
16272TIP3    H270308   0.855   3.102   2.958 -0.6388 -0.6107 -1.3024
16273TIP3   OH270309   2.920   2.960   2.591 -0.1685 -0.0367  0.7027
16273TIP3    H170310   2.928   2.877   2.637  0.0742 -0.0274  0.6817
16273TIP3    H270311   2.829   2.965   2.564 -0.0879 -0.4896  0.3402
16274TIP3   OH270312   0.973   4.074   2.563 -0.1025 -1.0031  0.3283
16274TIP3    H170313   0.900   4.133   2.583  1.0405 -0.1609  2.2324
16274TIP3    H270314   0.965   4.003   2.627  2.0953  0.3537  2.2154
16275TIP3   OH270315   3.933   2.663  15.190 -0.4931 -0.0560 -0.4390
16275TIP3    H170316   3.972   2.723  15.127 -1.4470 -0.3605 -1.3246
16275TIP3    H270317   3.975   2.579  15.174 -1.2602 -0.3069 -1.1739
16276TIP3   OH270318   6.593   2.635   5.496 -0.3689 -0.3348 -0.2927
16276TIP3    H170319   6.661   2.698   5.520  1.1915 -1.4655 -1.6798
16276TIP3    H270320   6.595   2.569   5.566  2.0604 -1.9775 -1.8524
16277TIP3   OH270321   0.959   2.297   4.515 -0.9212 -0.1051  0.1441
16277TIP3    H170322   0.990   2.280   4.426 -3.3967 -0.9036 -0.6113
16277TIP3    H270323   0.899   2.371   4.505 -0.6891  0.2463  1.2910
16278TIP3   OH270324   3.586   6.024  11.453  0.5610 -0.3213 -0.3358
16278TIP3    H170325   3.603   6.112  11.486 -0.1807  0.5998 -2.3213
16278TIP3    H270326   3.506   6.032  11.401 -0.1394 -2.4072  0.3734
16279TIP3   OH270327   0.219   4.865   1.545  0.6125  0.5966 -0.3721
16279TIP3    H170328   0.218   4.774   1.573  1.0001  0.6120 -0.3041
16279TIP3    H270329   0.234   4.861   1.450  2.1841  0.6370 -0.1376
16280TIP3   OH270330   1.540   3.000   0.309 -0.2191  0.0231  0.0639
16280TIP3    H170331   1.473   2.932   0.319  0.5298 -0.7052  0.2548
16280TIP3    H270332   1.551   3.010   0.215 -1.5486  1.1039  0.0200
16281TIP3   OH270333   1.280   5.827   1.291 -0.5593  0.0102  0.7374
16281TIP3    H170334   1.341   5.896   1.268  0.5127 -1.2804 -0.3516
16281TIP3    H270335   1.239   5.802   1.208 -0.2294 -1.3152  0.9598
16282TIP3   OH270336   5.496   1.012  10.370 -0.1403  0.6317 -0.2136
16282TIP3    H170337   5.466   0.973  10.288  2.1664 -0.2358 -0.6950
16282TIP3    H270338   5.533   1.097  10.344  0.5770  0.3627 -0.0948
16283TIP3   OH270339   2.059   3.032   0.753 -0.2270 -0.3060 -0.2025
16283TIP3    H170340   2.076   3.079   0.671 -2.4186  1.0565  0.0680
16283TIP3    H270341   2.140   3.042   0.804  0.1359  1.2974 -1.0614
16284TIP3   OH270342   4.299   2.092  15.740 -0.4238 -0.4441 -0.2620
16284TIP3    H170343   4.381   2.089  15.789 -1.6278 -1.7377  1.7592
16284TIP3    H270344   4.321   2.063  15.652  1.8166  2.0097 -0.5518
16285TIP3   OH270345   2.580   1.626   0.020 -0.0769  0.0775  0.4819
16285TIP3    H170346   2.500   1.670   0.049 -0.4304 -2.5228  3.7794
16285TIP3    H270347   2.638   1.630   0.096  1.8076 -0.6457 -0.8936
16286TIP3   OH270348   5.107   1.226   4.692 -0.1378  0.3933  0.0839
16286TIP3    H170349   5.039   1.287   4.662 -1.5417 -0.8638  0.6742
16286TIP3    H270350   5.095   1.221   4.787  1.3404  0.8128  0.3065
16287TIP3   OH270351   5.746   6.006   3.295 -0.1527 -0.4981  0.4476
16287TIP3    H170352   5.820   6.048   3.339 -1.7287  1.4654  1.3346
16287TIP3    H270353   5.702   5.956   3.364 -0.0776 -1.0439  0.1006
16288TIP3   OH270354   4.031   1.902   1.878  0.0704 -0.0304  0.3155
16288TIP3    H170355   3.997   1.984   1.842 -0.8151 -0.5624 -0.0700
16288TIP3    H270356   4.115   1.926   1.917 -0.9880  1.4211  1.7744
16289TIP3   OH270357   4.712   0.344  15.831  0.8915  0.3107  0.2134
16289TIP3    H170358   4.740   0.402  15.902 -0.2783  1.9773 -0.6850
16289TIP3    H270359   4.786   0.343  15.770  0.7583  1.1621  0.0372
16290TIP3   OH270360   1.298   3.947   5.388  0.2650  0.0800  0.2612
16290TIP3    H170361   1.336   3.863   5.411 -1.2144 -0.6358  0.1368
16290TIP3    H270362   1.289   3.944   5.293  2.2071  1.2483  0.0208
16291TIP3   OH270363   2.565   6.291  14.110  0.4373  0.1640 -0.2335
16291TIP3    H170364   2.474   6.275  14.135  0.6762  0.3678  0.7908
16291TIP3    H270365   2.570   6.386  14.099  0.9842  0.3692  1.6067
16292TIP3   OH270366   3.027   1.495  14.613  0.3118 -0.5430 -0.5475
16292TIP3    H170367   3.066   1.551  14.680 -1.7485 -0.4455  0.5917
16292TIP3    H270368   3.015   1.411  14.656 -0.2841 -0.7084 -1.0303
16293TIP3   OH270369   1.642   1.077   1.530  0.3645 -0.3502 -0.6227
16293TIP3    H170370   1.723   1.129   1.534 -0.2204  0.5091  0.3616
16293TIP3    H270371   1.654   1.020   1.454  2.3071 -0.9117  0.0607
16294TIP3   OH270372   5.635   4.206  15.867  0.2245  0.3274  0.0708
16294TIP3    H170373   5.654   4.190  15.774 -0.1244  0.3920 -0.0106
16294TIP3    H270374   5.552   4.160  15.883 -0.1924  1.0992  0.1197
16295TIP3   OH270375   2.279   6.271   5.101  0.2155 -0.9442 -0.1134
16295TIP3    H170376   2.190   6.304   5.096  1.3631  2.0536 -1.9496
16295TIP3    H270377   2.275   6.184   5.061 -1.7361 -0.5567 -0.8206
16296TIP3   OH270378   2.068   6.290   6.753 -0.2388 -0.1999  0.5970
16296TIP3    H170379   1.974   6.271   6.749  0.1632 -2.1866  0.0421
16296TIP3    H270380   2.075   6.370   6.806 -2.1698 -0.4692  1.2691
16297TIP3   OH270381   0.454   1.002  11.357 -0.3043 -0.3880 -0.5070
16297TIP3    H170382   0.496   1.073  11.407 -0.2770 -0.1434 -0.8774
16297TIP3    H270383   0.491   0.922  11.395 -1.5350 -0.2686  0.9948
16298TIP3   OH270384   3.378   5.042   3.224  0.0665 -0.7915 -0.1122
16298TIP3    H170385   3.388   4.981   3.297  1.9090  0.7053  0.9302
16298TIP3    H270386   3.374   5.128   3.265 -0.5697 -0.0623 -1.6836
16299TIP3   OH270387   5.329   4.569  15.230  0.2046 -0.3998 -0.0060
16299TIP3    H170388   5.249   4.565  15.284  0.0939  2.0637  0.0500
16299TIP3    H270389   5.310   4.513  15.155 -1.3584 -0.2740  0.2810
16300TIP3   OH270390   2.020   2.799  16.747 -0.2177  0.5045 -0.6485
16300TIP3    H170391   2.094   2.749  16.713  1.1703  1.4976  0.8660
16300TIP3    H270392   2.017   2.877  16.691 -1.3527 -0.4542 -1.9521
16301TIP3   OH270393   5.395   3.459   6.255  0.1859 -0.6168 -0.1327
16301TIP3    H170394   5.303   3.478   6.235  0.2616  0.9915  0.9985
16301TIP3    H270395   5.395   3.367   6.283 -1.4781  0.1200  2.3650
16302TIP3   OH270396   5.898   3.647  13.552 -0.1841  0.1499  0.3518
16302TIP3    H170397   5.844   3.588  13.499 -0.2194  1.3895 -1.0527
16302TIP3    H270398   5.987   3.613  13.543 -0.1261  0.6040 -0.8886
16303TIP3   OH270399   2.058   2.938   3.562 -0.3451  0.3717 -0.7105
16303TIP3    H170400   1.975   2.893   3.577 -0.1742  0.2115 -0.2366
16303TIP3    H270401   2.123   2.883   3.606 -0.1144  0.9918 -0.2822
16304TIP3   OH270402   3.620   4.598   5.849 -0.0350  0.8230 -0.0457
16304TIP3    H170403   3.701   4.577   5.802  0.0827 -0.5525  0.7650
16304TIP3    H270404   3.649   4.649   5.924  0.2040 -0.6489  0.8735
16305TIP3   OH270405   4.067   0.136   0.790 -0.3244 -0.4276 -0.1853
16305TIP3    H170406   4.008   0.075   0.834 -0.1354  1.1880  2.3592
16305TIP3    H270407   4.023   0.221   0.795  0.9494  0.2846 -0.7342
16306TIP3   OH270408   5.440   3.003  12.547  0.0058  0.0315  0.0738
16306TIP3    H170409   5.390   3.079  12.515 -1.0875 -0.1549  1.2942
16306TIP3    H270410   5.506   3.041  12.605  0.3563  0.1585 -0.4042
16307TIP3   OH270411   4.323   1.346   3.251  0.2901  0.1036  0.5377
16307TIP3    H170412   4.414   1.344   3.280  0.2503 -0.4764  0.6309
16307TIP3    H270413   4.279   1.280   3.304 -0.2230  0.4979  0.6089
16308TIP3   OH270414   6.767   2.875  12.752 -0.3376 -0.2901 -0.0414
16308TIP3    H170415   6.788   2.838  12.837 -2.1375 -0.3292  0.4025
16308TIP3    H270416   6.761   2.800  12.693 -0.0059 -0.3375 -0.0193
16309TIP3   OH270417   0.610   3.202   5.497 -0.2871  0.2190 -0.6203
16309TIP3    H170418   0.580   3.224   5.585 -0.6370 -0.0205 -0.6803
16309TIP3    H270419   0.542   3.145   5.461  0.1046 -0.1070 -0.8536
16310TIP3   OH270420   2.553   3.733  14.106  0.4148 -0.3810 -0.3837
16310TIP3    H170421   2.474   3.689  14.076  0.1493  0.1924 -0.5288
16310TIP3    H270422   2.580   3.787  14.032  0.6371 -0.1585 -0.1406
16311TIP3   OH270423   6.014   4.316   5.756  0.3900  0.3146  0.3720
16311TIP3    H170424   6.082   4.324   5.822 -0.0189 -0.1665  0.8495
16311TIP3    H270425   6.025   4.228   5.720 -2.3792 -1.2450  3.1161
16312TIP3   OH270426   5.228   0.125  10.164 -0.0901  0.7345 -0.6377
16312TIP3    H170427   5.269   0.053  10.211 -1.8109 -0.0237 -0.2654
16312TIP3    H270428   5.149   0.087  10.125 -0.8928  2.3483 -0.6286
16313TIP3   OH270429   0.234   5.079  14.528 -0.0568 -0.2471  0.2095
16313TIP3    H170430   0.174   5.143  14.567  1.0696  0.6455  0.5061
16313TIP3    H270431   0.305   5.132  14.492  0.9447 -1.3393  0.5570
16314TIP3   OH270432   1.729   4.330   5.532 -0.1420 -0.2231  0.4711
16314TIP3    H170433   1.652   4.284   5.500  0.5365 -1.2450  0.2976
16314TIP3    H270434   1.735   4.307   5.624 -0.3561  0.3060  0.6232
16315TIP3   OH270435   1.514   5.946  13.878 -0.2028  0.1680 -0.1716
16315TIP3    H170436   1.597   5.914  13.914  1.0727  0.2894 -2.8330
16315TIP3    H270437   1.487   6.015  13.938  2.1131  0.7447  0.2828
16316TIP3   OH270438   5.119   5.390   0.839  0.0111  0.2924  0.3823
16316TIP3    H170439   5.051   5.322   0.844  0.0478  0.1896 -0.4377
16316TIP3    H270440   5.177   5.360   0.769  0.0987  1.1132  0.1053
16317TIP3   OH270441   1.664   2.683   6.714 -0.2432  0.7395  0.4443
16317TIP3    H170442   1.691   2.597   6.746  1.0770  1.5199  1.4919
16317TIP3    H270443   1.657   2.737   6.793 -0.9238  1.6333 -0.2134
16318TIP3   OH270444   6.681   5.824   0.067  0.5267 -0.0102  0.1232
16318TIP3    H170445   6.739   5.767   0.017 -0.2701 -0.6137 -0.1166
16318TIP3    H270446   6.638   5.879   0.000 -1.6152 -1.7869 -0.0311
16319TIP3   OH270447   5.405   6.498  16.673  0.1051  0.2863 -0.0750
16319TIP3    H170448   5.365   6.557  16.609  0.0767  1.4459  1.0036
16319TIP3    H270449   5.332   6.446  16.707  0.2938 -1.1888 -1.8480
16320TIP3   OH270450   1.340   3.334   5.582  0.2647 -0.0562 -0.4026
16320TIP3    H170451   1.259   3.386   5.582 -0.1906 -0.7413  0.4588
16320TIP3    H270452   1.352   3.308   5.491 -0.9779 -0.6871 -0.3962
16321TIP3   OH270453   4.757   6.758   1.574  0.2562 -0.0095  0.2647
16321TIP3    H170454   4.749   6.783   1.482 -1.7757 -1.0620  0.1218
16321TIP3    H270455   4.689   6.810   1.618  0.6486 -0.1513  1.0470
16322TIP3   OH270456   1.001   3.467   4.095  0.1351  0.3314 -0.7939
16322TIP3    H170457   0.911   3.470   4.128 -0.3251  0.2964 -1.9949
16322TIP3    H270458   1.049   3.530   4.149 -0.5922  0.2805 -0.0830
16323TIP3   OH270459   0.104   2.440   3.558 -0.1573 -0.0714 -0.4182
16323TIP3    H170460   0.020   2.410   3.524  0.5481  1.2236 -3.4953
16323TIP3    H270461   0.082   2.514   3.616 -1.1837 -0.1895 -0.6622
16324TIP3   OH270462   5.988   6.289   1.801 -0.1067 -0.1473  0.0995
16324TIP3    H170463   5.956   6.359   1.858  0.6501 -0.0197  0.3740
16324TIP3    H270464   5.924   6.285   1.730 -0.9233 -0.1379  0.8239
16325TIP3   OH270465   0.776   4.049   6.142 -0.6571 -0.0734  0.2398
16325TIP3    H170466   0.793   4.069   6.234  0.6555 -1.5737  0.3518
16325TIP3    H270467   0.769   4.134   6.099  0.5641  0.6289  1.4077
16326TIP3   OH270468   6.578   5.348  11.232  0.2227 -0.5035 -0.6126
16326TIP3    H170469   6.509   5.372  11.170 -2.3647  1.5413  2.8987
16326TIP3    H270470   6.532   5.300  11.301  2.7847 -1.2999  0.5781
16327TIP3   OH270471   6.280   6.485   3.281  0.0276  0.2642 -0.0435
16327TIP3    H170472   6.221   6.411   3.271 -0.9328  1.2946 -2.3332
16327TIP3    H270473   6.367   6.450   3.263 -0.4467 -0.2661 -1.3373
16328TIP3   OH270474   4.056   1.340   0.581 -0.1355 -0.5460 -0.2261
16328TIP3    H170475   4.147   1.336   0.611  0.1005  0.4705 -0.7983
16328TIP3    H270476   4.010   1.386   0.651  0.4382  1.9332 -1.3940
16329TIP3   OH270477   2.772   3.579  13.304 -0.3220 -0.1853 -0.1682
16329TIP3    H170478   2.816   3.569  13.220  1.2090  0.5682  0.5384
16329TIP3    H270479   2.752   3.490  13.332 -0.8014 -0.4449 -1.2917
16330TIP3   OH270480   4.377   1.562  11.570  0.3158 -0.1915 -0.0691
16330TIP3    H170481   4.325   1.589  11.646 -2.5066 -0.4549 -1.8339
16330TIP3    H270482   4.378   1.639  11.513  0.1388 -0.8128 -0.9310
16331TIP3   OH270483   0.959   0.213   0.455 -0.1639 -0.2153  0.6556
16331TIP3    H170484   0.987   0.301   0.429 -1.0780  0.0997  0.7177
16331TIP3    H270485   1.010   0.154   0.399 -0.9343  0.4015 -0.7204
16332TIP3   OH270486   0.880   0.825   5.060  1.2869 -0.0175 -0.2455
16332TIP3    H170487   0.870   0.873   4.978 -0.0032  3.4342  1.8592
16332TIP3    H270488   0.791   0.815   5.093  1.7427 -1.9672  0.4652
16333TIP3   OH270489   3.315   6.409   5.746 -0.2716 -0.0248 -0.2416
16333TIP3    H170490   3.325   6.462   5.825  1.3924  0.5641 -0.8331
16333TIP3    H270491   3.403   6.375   5.729 -0.5204  0.2301 -2.0908
16334TIP3   OH270492   1.861   2.053  12.058  0.0398 -0.3422 -0.0477
16334TIP3    H170493   1.839   1.989  11.990 -3.9115 -1.1432  1.8017
16334TIP3    H270494   1.843   2.008  12.140 -0.8403  2.4249  1.3678
16335TIP3   OH270495   4.637   1.172   1.746 -0.0698  0.0763 -0.0647
16335TIP3    H170496   4.644   1.201   1.837 -0.4694  0.1231 -0.0455
16335TIP3    H270497   4.698   1.228   1.698 -1.0098  1.1143 -0.0678
16336TIP3   OH270498   4.562   1.016  14.374  0.0215  0.3492  0.0860
16336TIP3    H170499   4.590   1.041  14.462 -0.0998  0.3846  0.1137
16336TIP3    H270500   4.469   0.998  14.383 -0.2201  1.3628 -0.2363
16337TIP3   OH270501   6.274   0.908  15.446  0.2916  0.8046  0.7690
16337TIP3    H170502   6.346   0.970  15.434 -0.3995  1.5747  0.4597
16337TIP3    H270503   6.204   0.961  15.486 -0.3620  0.2713  0.3506
16338TIP3   OH270504   3.629   5.128   4.590 -0.1784  0.4819 -0.2471
16338TIP3    H170505   3.695   5.170   4.645 -0.8123  1.3959 -0.1821
16338TIP3    H270506   3.668   5.126   4.502  1.1830 -1.7362  0.3581
16339TIP3   OH270507   6.109   4.507   3.448 -0.6620  0.0699  0.0576
16339TIP3    H170508   6.029   4.483   3.402 -1.3516  0.8991  0.7944
16339TIP3    H270509   6.107   4.456   3.529 -0.3052 -0.1112 -0.0468
16340TIP3   OH270510   1.451   2.101  13.663 -0.4568  0.0174  0.2586
16340TIP3    H170511   1.422   2.096  13.754  0.1592  0.1267  0.4616
16340TIP3    H270512   1.394   2.040  13.617  0.4676 -1.4814  1.0488
16341TIP3   OH270513   4.918   5.337  13.533  0.1419  0.0063  0.0643
16341TIP3    H170514   4.900   5.322  13.626 -0.1498 -0.6197 -0.0900
16341TIP3    H270515   5.013   5.336  13.526  0.2074  1.4687  0.5875
16342TIP3   OH270516   6.625   0.588   4.694 -0.3380  0.0394  0.1277
16342TIP3    H170517   6.542   0.594   4.742 -0.3740 -0.1154  0.0865
16342TIP3    H270518   6.602   0.543   4.613  0.2423 -2.2428  1.1921
16343TIP3   OH270519   3.597   6.386  15.002  0.2501  0.1513  0.9199
16343TIP3    H170520   3.652   6.424  15.071  0.3266  1.0277  0.3824
16343TIP3    H270521   3.638   6.302  14.982  1.0893  0.5634  0.8935
16344TIP3   OH270522   2.773   4.808  13.548  0.2549 -0.0175  0.9957
16344TIP3    H170523   2.805   4.734  13.496 -0.9522 -0.2496  0.5615
16344TIP3    H270524   2.711   4.768  13.610  1.3452  0.3138  2.3313
16345TIP3   OH270525   1.157   3.610   2.656 -0.5299  0.0903  0.6140
16345TIP3    H170526   1.070   3.570   2.657 -0.7322  0.5246  0.4541
16345TIP3    H270527   1.181   3.617   2.748 -0.9962  0.6873  0.6918
16346TIP3   OH270528   2.758   0.099  13.881 -0.0439 -0.1191  0.6690
16346TIP3    H170529   2.796   0.179  13.844  0.0754 -1.1330 -1.4563
16346TIP3    H270530   2.813   0.078  13.956 -0.0372  1.7560  1.2151
16347TIP3   OH270531   3.885   4.678  12.327 -0.3015  0.5718 -0.5388
16347TIP3    H170532   3.852   4.591  12.304 -0.0327  0.6635 -1.2672
16347TIP3    H270533   3.915   4.716  12.244 -0.2670  1.2949 -0.1992
16348TIP3   OH270534   1.747   3.702   6.230 -0.8896 -0.1931 -0.1425
16348TIP3    H170535   1.703   3.618   6.218  2.7301 -2.0150 -1.1148
16348TIP3    H270536   1.795   3.693   6.312  1.1356  0.1728 -1.2561
16349TIP3   OH270537   1.787   0.720   3.134 -0.4525 -0.4988  0.1103
16349TIP3    H170538   1.747   0.670   3.064 -0.3372  0.3661 -0.5892
16349TIP3    H270539   1.880   0.696   3.131 -0.4814 -0.6072  0.0889
16350TIP3   OH270540   3.985   0.183   1.327 -0.6077  0.6965  0.3906
16350TIP3    H170541   4.065   0.132   1.318  0.6366  2.9486 -1.9907
16350TIP3    H270542   3.936   0.164   1.247 -2.1636 -0.0804  1.4894
16351TIP3   OH270543   1.843   0.391  12.536 -0.6278  0.2019 -0.4600
16351TIP3    H170544   1.820   0.299  12.552 -0.9858  0.5581  1.0811
16351TIP3    H270545   1.921   0.406  12.589 -0.3980  0.7152 -0.9356
16352TIP3   OH270546   4.239   3.518  16.594 -0.0894 -0.2638 -0.0817
16352TIP3    H170547   4.265   3.502  16.685  0.3898 -0.5772 -0.2723
16352TIP3    H270548   4.198   3.436  16.566 -0.6199 -0.0228 -0.0133
16353TIP3   OH270549   4.515   5.807  13.390 -0.1616  0.0694  0.2019
16353TIP3    H170550   4.529   5.741  13.322  0.4977  0.5070 -0.0806
16353TIP3    H270551   4.423   5.832  13.380 -0.4396 -0.8551  0.3597
16354TIP3   OH270552   4.458   6.386  13.915 -0.2424  0.0028  0.1890
16354TIP3    H170553   4.473   6.300  13.953 -1.6027  0.2019  1.2420
16354TIP3    H270554   4.364   6.402  13.930 -0.1428  1.3745 -0.5899
16355TIP3   OH270555   3.256   6.076   4.583  0.5171 -0.5363 -0.4523
16355TIP3    H170556   3.254   6.132   4.660 -0.6095 -1.2031  0.0223
16355TIP3    H270557   3.319   6.117   4.524 -0.1247  1.1007 -0.0310
16356TIP3   OH270558   5.596   3.505   0.137 -0.3945 -0.0698 -1.3167
16356TIP3    H170559   5.515   3.540   0.099  0.3483  2.7337 -0.4333
16356TIP3    H270560   5.583   3.513   0.232  1.0653  0.7991 -1.1809
16357TIP3   OH270561   2.554   1.702  12.850  0.4536 -0.4602  0.3050
16357TIP3    H170562   2.642   1.666  12.838 -0.1958 -1.3096 -2.1588
16357TIP3    H270563   2.509   1.637  12.903  0.3901 -1.5852 -1.0797
16358TIP3   OH270564   0.479   0.124  13.806  0.7403 -0.1418  0.1248
16358TIP3    H170565   0.522   0.204  13.836  0.1590 -0.2435  1.2816
16358TIP3    H270566   0.550   0.066  13.782  1.1675  0.7204 -0.7408
16359TIP3   OH270567   5.906   1.241  14.510  0.2747 -0.4905 -0.9002
16359TIP3    H170568   5.924   1.168  14.568  1.0177 -0.0569 -0.5884
16359TIP3    H270569   5.917   1.205  14.422  0.8640 -0.6929 -0.7455
16360TIP3   OH270570   4.698   6.551  13.054  0.1212 -0.3951  0.4069
16360TIP3    H170571   4.758   6.568  13.127 -1.6430 -0.3066  1.8779
16360TIP3    H270572   4.623   6.509  13.095 -1.3521  0.5987 -1.2225
16361TIP3   OH270573   5.860   1.677  11.698  0.1874  0.4506 -0.0515
16361TIP3    H170574   5.903   1.592  11.710 -0.9275 -0.0901  0.1297
16361TIP3    H270575   5.862   1.717  11.785  1.1234  0.8104 -0.2352
16362TIP3   OH270576   3.544   2.792   3.000  0.1482  0.0720  0.3597
16362TIP3    H170577   3.609   2.862   3.010  0.6059 -0.5166  1.5213
16362TIP3    H270578   3.460   2.837   3.012  0.4499  0.3888  1.3463
16363TIP3   OH270579   0.034   2.323   4.861  0.4698  0.8367 -0.0115
16363TIP3    H170580   0.118   2.330   4.816  0.5113  0.0718 -0.0520
16363TIP3    H270581   0.057   2.319   4.954  0.6662 -2.3104 -0.1492
16364TIP3   OH270582   5.458   5.673   4.785 -0.2129  0.2285 -0.0064
16364TIP3    H170583   5.435   5.712   4.869  1.2400  1.6128 -0.2308
16364TIP3    H270584   5.413   5.728   4.720 -2.0211 -1.3362 -0.1352
16365TIP3   OH270585   2.580   3.068  14.830 -0.1622  0.1452  0.1064
16365TIP3    H170586   2.593   2.977  14.802  0.4593  0.1366  0.4131
16365TIP3    H270587   2.543   3.111  14.753 -2.8073 -0.9169  0.7385
16366TIP3   OH270588   0.354   6.443   5.777  0.4568 -0.2484 -0.0399
16366TIP3    H170589   0.387   6.393   5.852 -1.7993 -0.4423  0.8396
16366TIP3    H270590   0.315   6.378   5.719 -1.7076  0.3724  0.6965
16367TIP3   OH270591   4.052   1.100  15.797 -0.4347 -0.2861  0.1294
16367TIP3    H170592   4.013   1.183  15.826  2.2506  0.9771  0.2648
16367TIP3    H270593   4.037   1.098  15.703  1.1939  1.3272 -0.1872
16368TIP3   OH270594   4.525   4.882  13.517 -0.2611  0.1771 -0.5273
16368TIP3    H170595   4.512   4.936  13.439  1.2105 -0.0222 -0.9398
16368TIP3    H270596   4.455   4.817  13.514  0.0044 -0.0675 -1.9081
16369TIP3   OH270597   2.207   1.614  16.006 -0.1383 -0.2276 -0.3372
16369TIP3    H170598   2.181   1.556  15.935 -0.4821  0.5742 -0.8841
16369TIP3    H270599   2.302   1.605  16.012  0.1008  0.9635 -2.0408
16370TIP3   OH270600   0.991   0.654  17.000  0.1188 -0.3664 -0.7085
16370TIP3    H170601   1.067   0.598  17.015 -0.3407 -1.3229 -1.8889
16370TIP3    H270602   0.940   0.607  16.934 -2.1680 -0.3864  1.0311
16371TIP3   OH270603   2.094   0.483   0.782  0.3528 -0.2276  0.1004
16371TIP3    H170604   2.123   0.564   0.741 -1.0502 -0.2871 -1.0165
16371TIP3    H270605   2.174   0.447   0.821  1.5769  0.2089 -1.9084
16372TIP3   OH270606   5.351   1.412  10.373 -0.4438  0.1970 -0.2877
16372TIP3    H170607   5.399   1.471  10.433 -1.8600  2.2071 -1.0646
16372TIP3    H270608   5.259   1.422  10.399 -0.7253 -1.5131 -0.6091
16373TIP3   OH270609   2.347   2.347   5.156 -0.4789 -0.2636  0.0964
16373TIP3    H170610   2.310   2.261   5.136 -0.0100 -0.1962 -1.1409
16373TIP3    H270611   2.297   2.379   5.230 -0.2581 -1.8769  0.9668
16374TIP3   OH270612   5.714   6.219   0.871  0.8146  0.7021 -0.2576
16374TIP3    H170613   5.802   6.246   0.896  0.3133  0.0741  2.3074
16374TIP3    H270614   5.662   6.232   0.950 -0.7384 -1.9206 -0.8161
16375TIP3   OH270615   3.560   1.035   1.426 -0.0622 -0.3653 -0.0469
16375TIP3    H170616   3.594   0.985   1.500 -1.1065  0.9611  1.3611
16375TIP3    H270617   3.586   1.125   1.443 -1.5279  0.1845 -0.5586
16376TIP3   OH270618   5.440   4.983  11.425 -0.8298 -0.2777  0.0023
16376TIP3    H170619   5.501   5.013  11.358 -1.0903 -0.1790 -0.1929
16376TIP3    H270620   5.466   4.892  11.442 -0.2593 -0.0503  0.3457
16377TIP3   OH270621   5.345   4.149  15.258  0.0995  0.0850  0.5313
16377TIP3    H170622   5.293   4.070  15.244  0.2590  0.1136 -0.2680
16377TIP3    H270623   5.417   4.142  15.195  0.7911  0.2809  1.2926
16378TIP3   OH270624   4.801   3.620   4.257 -0.2484 -0.2719  0.1478
16378TIP3    H170625   4.798   3.695   4.316 -0.6731  0.6532 -1.0331
16378TIP3    H270626   4.755   3.649   4.178 -1.9978 -2.3759  0.3394
16379TIP3   OH270627   0.846   1.969   5.569 -0.3002 -0.5074  0.1252
16379TIP3    H170628   0.850   1.874   5.576 -0.6339 -0.6698 -1.6754
16379TIP3    H270629   0.771   1.994   5.624 -0.8656 -1.3895 -0.2355
16380TIP3   OH270630   6.472   4.193   5.937 -0.5134  0.3125 -0.2199
16380TIP3    H170631   6.529   4.231   6.004 -1.1244  1.1657 -0.1831
16380TIP3    H270632   6.533   4.166   5.867  0.0485  0.0838  0.3533
16381TIP3   OH270633   3.764   6.504  15.236 -0.3331  0.2043  0.8389
16381TIP3    H170634   3.711   6.574  15.198  0.7271  0.5827  0.0496
16381TIP3    H270635   3.747   6.510  15.330  2.0973  3.5167  1.1444
16382TIP3   OH270636   1.438   1.248   5.952  0.2550  0.3424 -0.1503
16382TIP3    H170637   1.482   1.167   5.980  2.5531  1.4646 -0.4228
16382TIP3    H270638   1.350   1.219   5.929  0.5123 -1.8182  1.3278
16383TIP3   OH270639   2.352   4.625   1.451 -0.4734  0.2890  0.1221
16383TIP3    H170640   2.274   4.625   1.395 -1.0297  1.8075  0.8436
16383TIP3    H270641   2.425   4.624   1.391 -1.0618  2.2983 -0.6903
16384TIP3   OH270642   5.107   5.938  16.705  0.5363 -0.0730  0.1911
16384TIP3    H170643   5.045   5.910  16.772 -1.3683 -0.2361 -1.5846
16384TIP3    H270644   5.092   5.879  16.632 -1.5058  3.6016 -2.5299
16385TIP3   OH270645   0.761   4.928   2.965  0.4200  0.3097 -0.3053
16385TIP3    H170646   0.723   4.871   3.032  0.9769  0.1342 -0.1372
16385TIP3    H270647   0.855   4.911   2.969  0.4929  0.5589 -0.8917
16386TIP3   OH270648   2.122   0.219  14.992  0.1255 -0.0016 -0.5613
16386TIP3    H170649   2.119   0.312  15.011  1.1250  0.0151 -0.4468
16386TIP3    H270650   2.085   0.211  14.904 -1.7591  0.2621  0.2017
16387TIP3   OH270651   1.320   3.501  13.228 -0.5863  0.0145  0.0292
16387TIP3    H170652   1.293   3.450  13.152 -1.9786  2.1962 -0.9840
16387TIP3    H270653   1.238   3.537  13.263  0.3308  1.2486  0.9486
16388TIP3   OH270654   3.332   5.692   0.376  0.1427  0.1916 -0.0657
16388TIP3    H170655   3.244   5.665   0.402 -0.3547 -0.1507 -1.9819
16388TIP3    H270656   3.372   5.612   0.341  0.0870  1.0125 -2.0695
16389TIP3   OH270657   1.125   3.368   6.189 -0.1941 -0.2812 -0.3440
16389TIP3    H170658   1.204   3.349   6.139  0.0980  0.7002 -0.2739
16389TIP3    H270659   1.072   3.288   6.183 -1.3495  0.6693 -4.4250
16390TIP3   OH270660   3.238   2.634   1.542 -0.0093  0.3749  0.1341
16390TIP3    H170661   3.254   2.723   1.574 -2.2488  0.3058  1.6228
16390TIP3    H270662   3.261   2.577   1.616 -1.9318 -0.0142  0.4717
16391TIP3   OH270663   5.131   1.416   0.841  0.4966 -0.4746  0.4834
16391TIP3    H170664   5.149   1.417   0.747  1.8488  0.0053  0.7403
16391TIP3    H270665   5.165   1.332   0.871 -1.1965 -1.2361  0.3142
16392TIP3   OH270666   1.456   4.393   5.321 -0.4393 -0.4418  0.2551
16392TIP3    H170667   1.468   4.298   5.329 -1.7430 -0.5423  1.2452
16392TIP3    H270668   1.461   4.425   5.411  0.9029  0.5609 -0.1624
16393TIP3   OH270669   1.162   0.508  11.908 -0.2004  0.4173  0.0958
16393TIP3    H170670   1.142   0.573  11.840 -1.7094 -1.5038 -1.3800
16393TIP3    H270671   1.121   0.542  11.987 -1.6456  0.9173 -0.8395
16394TIP3   OH270672   2.941   2.449  11.516  0.2748  0.0525 -0.4998
16394TIP3    H170673   2.954   2.364  11.557  2.5799  0.2321 -0.7525
16394TIP3    H270674   2.972   2.436  11.426  1.4291  1.3630 -0.3023
16395TIP3   OH270675   2.522   1.394  15.427  0.0521  0.1341  0.4044
16395TIP3    H170676   2.473   1.410  15.346 -0.0371  1.1439  0.6455
16395TIP3    H270677   2.488   1.312  15.461 -1.4005  0.7730  0.5166
16396TIP3   OH270678   6.012   5.803  12.618 -0.0979 -0.0819  0.7549
16396TIP3    H170679   6.015   5.812  12.714 -1.4171 -1.9323  0.9873
16396TIP3    H270680   6.093   5.845  12.588 -1.0003  3.0148  2.4612
16397TIP3   OH270681   4.853   6.819   2.542  0.2960 -0.2394  0.1518
16397TIP3    H170682   4.759   6.836   2.542  0.4627  0.7528  0.3964
16397TIP3    H270683   4.893   6.905   2.554  1.2621 -0.5216 -0.8484
16398TIP3   OH270684   6.112   4.541   4.375  0.2467  0.1557 -0.3487
16398TIP3    H170685   6.083   4.450   4.371  0.5590  0.0160  0.4718
16398TIP3    H270686   6.131   4.556   4.468  2.7199  0.2528 -0.8351
16399TIP3   OH270687   2.582   4.807  15.398  0.3368  0.5935  0.0634
16399TIP3    H170688   2.592   4.868  15.325 -1.0607  0.6311 -0.1140
16399TIP3    H270689   2.489   4.812  15.421  0.3031 -1.0806  0.3811
16400TIP3   OH270690   1.914   4.130  14.859 -0.2716 -0.0516 -0.0674
16400TIP3    H170691   1.999   4.145  14.901  0.5853 -3.5943 -0.3905
16400TIP3    H270692   1.917   4.183  14.780  0.4896  2.0388  1.3132
16401TIP3   OH270693   2.185   4.428  13.767  0.0026  0.3938 -0.3366
16401TIP3    H170694   2.254   4.493  13.783  2.7225 -2.6638  0.8917
16401TIP3    H270695   2.203   4.395  13.678 -0.5187  0.2950 -0.4101
16402TIP3   OH270696   4.096   4.465   0.104  0.2883  0.3256  0.0636
16402TIP3    H170697   4.081   4.429   0.191 -1.0750 -0.9004 -0.6539
16402TIP3    H270698   4.032   4.420   0.048  2.2731 -0.1607 -1.8863
16403TIP3   OH270699   5.558   0.612  10.318  0.2032 -0.6468 -0.2036
16403TIP3    H170700   5.610   0.553  10.262 -0.3447 -1.2148 -0.1276
16403TIP3    H270701   5.495   0.554  10.361 -0.0107 -0.0687  0.2654
16404TIP3   OH270702   6.648   2.760  15.400 -0.3566  0.4004 -0.8139
16404TIP3    H170703   6.649   2.778  15.306 -1.5573 -1.0826 -1.1159
16404TIP3    H270704   6.566   2.712  15.415  0.7999 -1.1740  0.6429
16405TIP3   OH270705   2.816   0.045  11.018  1.0519 -0.6161  0.1660
16405TIP3    H170706   2.893   0.100  11.004 -1.4548  3.0719  0.2114
16405TIP3    H270707   2.780   0.032  10.931 -1.3279  2.4081  0.6252
16406TIP3   OH270708   6.674   5.631   6.687  0.1873  0.3717 -0.1740
16406TIP3    H170709   6.761   5.590   6.684 -0.1148 -0.3163  0.1551
16406TIP3    H270710   6.690   5.718   6.724  0.6003 -0.1754  0.9940
16407TIP3   OH270711   2.198   1.611  14.004 -0.3272 -0.4193  0.7011
16407TIP3    H170712   2.272   1.630  13.946 -0.1114  2.4168  1.7992
16407TIP3    H270713   2.120   1.627  13.951 -0.1423 -0.8743  0.2938
16408TIP3   OH270714   6.068   2.938  10.930 -0.2055  0.0598 -0.0783
16408TIP3    H170715   6.135   2.949  10.997 -0.9144 -2.1522  1.0555
16408TIP3    H270716   6.083   3.010  10.869  2.3197  0.3917  0.8656
16409TIP3   OH270717   3.164   1.918  13.669  0.2661  0.2401  0.5153
16409TIP3    H170718   3.148   1.907  13.575  0.8073 -0.2250  0.4751
16409TIP3    H270719   3.181   2.012  13.679  0.2977  0.2774  0.1374
16410TIP3   OH270720   6.799   6.140   2.505  0.0245 -0.3531  0.0263
16410TIP3    H170721   6.723   6.105   2.459  0.6154  0.0091 -1.2419
16410TIP3    H270722   6.771   6.147   2.596 -0.0614 -4.3662  0.3981
16411TIP3   OH270723   3.291   5.798   5.706  0.4459 -0.4678  0.5953
16411TIP3    H170724   3.244   5.717   5.724 -0.7336  0.5339  2.1662
16411TIP3    H270725   3.316   5.792   5.614 -2.4971 -1.1601 -0.1898
16412TIP3   OH270726   1.946   3.468  16.110 -0.0555 -0.4630 -0.2496
16412TIP3    H170727   1.932   3.520  16.189  0.9493 -1.5016  0.6199
16412TIP3    H270728   2.018   3.512  16.065 -1.2321  0.6655 -1.0746
16413TIP3   OH270729   4.631   6.081  14.507 -0.4509  0.2898 -0.7973
16413TIP3    H170730   4.644   6.103  14.415  0.6199 -2.6977 -1.4064
16413TIP3    H270731   4.719   6.069  14.542 -0.8517  1.2852  0.6130
16414TIP3   OH270732   3.988   1.723  14.416 -0.1647 -0.7514 -0.3472
16414TIP3    H170733   3.893   1.729  14.406 -0.0348 -1.6993 -2.3444
16414TIP3    H270734   4.013   1.644  14.367  1.2465 -2.6358  3.1958
16415TIP3   OH270735   1.912   0.258  14.283  0.1188  0.3078  0.2058
16415TIP3    H170736   1.995   0.280  14.327 -0.3599  2.0738  0.2501
16415TIP3    H270737   1.926   0.285  14.192  0.0465 -0.6036 -0.0781
16416TIP3   OH270738   3.684   4.146   5.704 -0.2233  0.1613 -0.1189
16416TIP3    H170739   3.608   4.099   5.671 -0.1877  0.0635 -0.0599
16416TIP3    H270740   3.754   4.081   5.704 -0.2318  0.1503  0.1859
16417TIP3   OH270741   6.326   4.972   0.833 -0.2381 -0.2453  0.0656
16417TIP3    H170742   6.400   4.975   0.773  1.9404 -0.1497  2.6340
16417TIP3    H270743   6.285   5.058   0.826  2.9084  1.5636  2.1178
16418TIP3   OH270744   1.709   3.908  11.447  0.0623  1.1854 -0.3628
16418TIP3    H170745   1.732   3.847  11.377 -1.3856  0.1960  0.0123
16418TIP3    H270746   1.751   3.872  11.525  1.6171  2.2498 -0.6839
16419TIP3   OH270747   1.863   5.111   0.266 -1.1147 -0.1928  0.1695
16419TIP3    H170748   1.781   5.158   0.277 -1.8942 -1.3298 -0.6821
16419TIP3    H270749   1.857   5.070   0.180 -0.4115 -1.7414  0.8333
16420TIP3   OH270750   5.377   4.679   6.276  0.0888 -0.5780 -0.1902
16420TIP3    H170751   5.402   4.628   6.353 -1.4124  0.5051  1.0398
16420TIP3    H270752   5.369   4.768   6.308  0.3065  0.0336 -1.8071
16421TIP3   OH270753   1.389   3.374   3.397 -0.5886 -0.5115 -0.1878
16421TIP3    H170754   1.376   3.456   3.349 -1.3624 -0.5932 -0.1332
16421TIP3    H270755   1.469   3.387   3.446 -0.5699  0.1202 -0.3813
16422TIP3   OH270756   3.647   6.064   0.854  0.8720 -0.1887  0.4438
16422TIP3    H170757   3.603   6.131   0.907  0.6306  1.0079 -1.2275
16422TIP3    H270758   3.600   6.066   0.770  2.9364 -0.1766 -0.7266
16423TIP3   OH270759   0.236   4.554   1.535 -0.0210  0.6091 -0.5303
16423TIP3    H170760   0.233   4.460   1.515  1.6123  0.3099  0.5297
16423TIP3    H270761   0.145   4.582   1.534 -0.6584 -1.3415  0.6759
16424TIP3   OH270762   4.410   4.129  13.374 -0.2787  0.3223 -0.0424
16424TIP3    H170763   4.492   4.099  13.412 -1.3592 -1.0025  1.3205
16424TIP3    H270764   4.432   4.153  13.284  1.2115 -1.9338 -0.3122
16425TIP3   OH270765   1.290   3.108  12.993 -0.7226 -0.1521 -0.0715
16425TIP3    H170766   1.326   3.129  13.079  0.9735 -1.5170 -0.4126
16425TIP3    H270767   1.259   3.192  12.959  1.2768  0.9322  0.6781
16426TIP3   OH270768   2.667   3.368   2.842 -0.2367 -0.3929 -0.2016
16426TIP3    H170769   2.656   3.395   2.751  3.1245 -0.9475 -0.8274
16426TIP3    H270770   2.712   3.442   2.884 -1.0285 -0.4813  0.8241
16427TIP3   OH270771   1.286   1.273  15.549 -0.1382 -0.2051 -0.1481
16427TIP3    H170772   1.222   1.264  15.479  1.3958 -1.6939 -1.3757
16427TIP3    H270773   1.243   1.234  15.626  0.1298 -3.3557 -1.5138
16428TIP3   OH270774   2.761   4.859  13.140 -1.0809 -0.3239 -0.5803
16428TIP3    H170775   2.726   4.831  13.055 -0.0849 -1.0438 -0.7706
16428TIP3    H270776   2.856   4.845  13.132 -0.9973 -0.5435  0.7111
16429TIP3   OH270777   4.346   4.993  17.217 -0.4273 -0.5291  0.6135
16429TIP3    H170778   4.286   5.024  17.286 -1.2842 -1.2151  0.1858
16429TIP3    H270779   4.318   5.040  17.139  1.6151  1.5065  1.0657
16430TIP3   OH270780   5.726   5.190   3.207 -0.2932 -0.4801  0.3560
16430TIP3    H170781   5.664   5.119   3.224  0.0236 -1.3446 -1.8432
16430TIP3    H270782   5.677   5.270   3.222 -2.0987 -1.1447 -1.6905
16431TIP3   OH270783   1.805   4.015   2.098 -0.6060  0.3906  0.5294
16431TIP3    H170784   1.801   4.055   2.011 -3.5675 -1.8452 -0.4784
16431TIP3    H270785   1.715   4.023   2.131 -0.3737 -2.0470  1.8142
16432TIP3   OH270786   2.812   6.323  11.720  0.7256 -0.2831 -0.1839
16432TIP3    H170787   2.777   6.235  11.707  0.4343 -0.1905 -0.0082
16432TIP3    H270788   2.905   6.314  11.699  0.7936 -0.7382  0.2996
16433TIP3   OH270789   5.407   2.691  16.281  0.4223  0.2274 -0.0355
16433TIP3    H170790   5.363   2.727  16.204 -3.6078  1.0172  2.5026
16433TIP3    H270791   5.385   2.598  16.279 -0.8480  0.5094  0.9149
16434TIP3   OH270792   4.492   6.367   5.245 -0.4988 -0.4880 -0.2846
16434TIP3    H170793   4.449   6.449   5.220  0.7659 -0.1755 -1.5083
16434TIP3    H270794   4.583   6.392   5.262 -0.5801 -1.2918  1.3911
16435TIP3   OH270795   5.776   6.113  16.123 -0.0333  0.4985 -0.0656
16435TIP3    H170796   5.720   6.116  16.201  2.1924 -1.9504  1.6981
16435TIP3    H270797   5.840   6.183  16.137 -0.2123  0.6907 -0.1892
16436TIP3   OH270798   6.003   6.325  11.730 -0.3736 -0.5218 -0.5843
16436TIP3    H170799   6.090   6.290  11.711 -0.1074  0.0293 -0.3900
16436TIP3    H270800   5.953   6.309  11.650  0.6576  1.5263 -1.6971
16437TIP3   OH270801   0.641   2.282  11.571  0.1918 -0.3917  0.6467
16437TIP3    H170802   0.692   2.331  11.507  0.8844 -1.4099  0.4099
16437TIP3    H270803   0.554   2.274  11.531  0.4625 -0.5429  0.0853
16438TIP3   OH270804   0.992   1.495   3.264 -0.3607  0.2224  0.6477
16438TIP3    H170805   0.978   1.443   3.343 -0.2560 -0.1385  0.4326
16438TIP3    H270806   0.929   1.461   3.201  0.1095 -0.0535  0.3159
16439TIP3   OH270807   1.586   2.005   5.058 -0.1912 -0.0500  0.8901
16439TIP3    H170808   1.565   1.973   4.970 -0.9043  1.4582  0.5051
16439TIP3    H270809   1.557   1.935   5.116 -0.3803 -0.7512 -0.0339
16440TIP3   OH270810   0.799   2.096   4.616  0.6670  0.4040 -0.8845
16440TIP3    H170811   0.845   2.012   4.617 -0.9764 -0.5183  1.4565
16440TIP3    H270812   0.868   2.160   4.598  2.6704 -1.0815  1.2049
16441TIP3   OH270813   3.328   1.380  12.295 -0.1327  0.1832 -0.2430
16441TIP3    H170814   3.408   1.381  12.348  0.1042  0.8014 -0.6106
16441TIP3    H270815   3.341   1.309  12.232  0.2570  0.4884 -0.5030
16442TIP3   OH270816   4.599   3.014  12.796 -0.2738 -0.0841  0.3345
16442TIP3    H170817   4.606   2.920  12.816  1.2923 -0.0929 -0.2448
16442TIP3    H270818   4.553   3.016  12.712 -0.8025 -0.3069  0.6163
16443TIP3   OH270819   1.159   4.470  11.148 -0.3024 -0.2699 -0.5690
16443TIP3    H170820   1.069   4.485  11.175 -0.4420 -1.4675 -0.3567
16443TIP3    H270821   1.181   4.384  11.183  0.4266 -0.6427 -1.9083
16444TIP3   OH270822   3.292   4.861   6.716 -0.5003  0.1639  0.3081
16444TIP3    H170823   3.299   4.935   6.776 -0.7407  0.3228  0.1362
16444TIP3    H270824   3.199   4.838   6.715 -0.3118 -0.6268  0.9533
16445TIP3   OH270825   0.293   3.690  15.477  0.5206  0.0860  0.2653
16445TIP3    H170826   0.264   3.608  15.439 -1.1247 -0.0092  1.6621
16445TIP3    H270827   0.219   3.750  15.465  1.5965  1.2906 -0.4962
16446TIP3   OH270828   6.652   3.192   3.603 -0.6477  0.0392 -0.7066
16446TIP3    H170829   6.656   3.286   3.620  0.0523 -0.0824 -0.2117
16446TIP3    H270830   6.722   3.154   3.656 -0.4877 -0.6895 -1.4186
16447TIP3   OH270831   1.904   6.003  15.865  0.1752 -0.0094 -0.0820
16447TIP3    H170832   1.921   6.020  15.773  2.1488  1.2856  0.4967
16447TIP3    H270833   1.836   5.935  15.865 -2.1718  2.2133 -2.4825
16448TIP3   OH270834   6.387   2.618  14.623 -0.2375 -0.1771  0.1130
16448TIP3    H170835   6.294   2.617  14.643 -0.7575  1.7761 -1.9824
16448TIP3    H270836   6.393   2.588  14.533  0.9949  1.1283 -0.2659
16449TIP3   OH270837   2.365   4.660  12.706  0.0223 -0.1601 -0.7277
16449TIP3    H170838   2.374   4.617  12.792 -1.9681  3.0543  1.1723
16449TIP3    H270839   2.290   4.616  12.666  0.4423 -1.1076 -0.5126
16450TIP3   OH270840   0.026   3.244   3.984 -0.7963  0.1892  0.2695
16450TIP3    H170841  -0.031   3.320   3.994 -1.4538 -0.1219 -0.9629
16450TIP3    H270842   0.064   3.253   3.897  1.7501  0.8317  1.3909
16451TIP3   OH270843   2.876   3.651  11.763 -0.0505 -0.3296  0.3446
16451TIP3    H170844   2.809   3.688  11.820 -2.0699 -1.5603 -1.1574
16451TIP3    H270845   2.832   3.580  11.717  2.2393 -1.0307 -0.8650
16452TIP3   OH270846   3.482   5.419   2.747  0.2911 -0.1150  0.2185
16452TIP3    H170847   3.408   5.474   2.722 -0.9645 -1.5086  0.8038
16452TIP3    H270848   3.442   5.338   2.779  2.0440 -0.6240  1.1876
16453TIP3   OH270849   0.805   4.672  12.535  0.4443  0.2397 -0.0063
16453TIP3    H170850   0.867   4.671  12.607  0.2439  0.6935  0.1761
16453TIP3    H270851   0.737   4.734  12.562  2.0668  3.0090 -2.0014
16454TIP3   OH270852   5.874   1.728  12.485  0.1340 -0.2417 -0.3478
16454TIP3    H170853   5.873   1.808  12.537 -2.4403 -0.3945 -0.0827
16454TIP3    H270854   5.849   1.659  12.547 -1.7416 -0.6069 -1.4571
16455TIP3   OH270855   5.884   6.235   2.971  0.1803 -0.1313 -0.4604
16455TIP3    H170856   5.809   6.179   2.994  1.0421 -1.0207  0.2088
16455TIP3    H270857   5.844   6.318   2.947 -0.9523 -0.0825  1.4528
16456TIP3   OH270858   0.355   1.906   0.931  0.0574 -0.1300  0.0249
16456TIP3    H170859   0.326   1.822   0.896  1.9790 -0.9404  0.3456
16456TIP3    H270860   0.375   1.958   0.853 -1.4537  0.1821 -0.1832
16457TIP3   OH270861   2.127   3.145   1.037  0.1865  0.4177  0.5989
16457TIP3    H170862   2.209   3.102   1.062 -0.2222 -0.8573 -0.2399
16457TIP3    H270863   2.149   3.192   0.957 -0.2438 -1.0368 -0.3814
16458TIP3   OH270864   4.099   2.298  10.783 -0.3906  0.4341 -0.1049
16458TIP3    H170865   4.083   2.392  10.781  0.2946  0.5477 -0.2599
16458TIP3    H270866   4.012   2.259  10.768 -0.8302  1.0232  0.8701
16459TIP3   OH270867   0.937   4.387  17.082 -0.2537  0.5507  0.4378
16459TIP3    H170868   1.019   4.435  17.095  0.4611  0.4967 -3.3739
16459TIP3    H270869   0.874   4.454  17.054 -0.6391  0.0940  0.1928
16460TIP3   OH270870   1.340   5.918   5.176  0.0092 -0.3089 -0.1677
16460TIP3    H170871   1.249   5.940   5.156  0.1589  0.1989 -0.2949
16460TIP3    H270872   1.364   5.851   5.112 -0.0651  0.0433 -0.5671
16461TIP3   OH270873   3.516   1.805   2.431 -0.0005  0.1891  0.5553
16461TIP3    H170874   3.446   1.741   2.447  1.6279 -1.9785 -0.7864
16461TIP3    H270875   3.591   1.773   2.481  0.6177  1.5022  0.4993
16462TIP3   OH270876   1.027   6.117   1.780 -0.3059  0.1360  0.4035
16462TIP3    H170877   1.090   6.053   1.747  0.7100  2.3781 -2.1416
16462TIP3    H270878   0.945   6.068   1.786 -0.2889 -0.7368 -4.4144
16463TIP3   OH270879   4.341   6.685   5.468 -0.1482  0.5916  0.4745
16463TIP3    H170880   4.315   6.762   5.519 -0.2816  0.8301  0.0449
16463TIP3    H270881   4.336   6.612   5.530 -2.5815  0.5054  0.2067
16464TIP3   OH270882   2.819   5.625   0.364  0.1467  0.1516  0.3885
16464TIP3    H170883   2.911   5.637   0.388  0.3498 -0.4798 -0.0516
16464TIP3    H270884   2.771   5.687   0.419  0.9430  1.2885 -0.1862
16465TIP3   OH270885   1.128   4.316  11.642 -0.0744 -0.6007 -0.0910
16465TIP3    H170886   1.073   4.378  11.595  1.1060 -0.0273 -0.7434
16465TIP3    H270887   1.070   4.275  11.706 -1.2142  0.0802 -0.6885
16466TIP3   OH270888   6.307   6.732  15.694  0.6575 -0.3177  0.0675
16466TIP3    H170889   6.222   6.769  15.717  1.2625  0.2674  1.4122
16466TIP3    H270890   6.371   6.795  15.726  1.5866  0.0648 -2.4416
16467TIP3   OH270891   2.730   3.864   3.791 -0.0180 -0.5413 -0.0558
16467TIP3    H170892   2.723   3.775   3.827 -1.2167 -0.1646  0.6582
16467TIP3    H270893   2.783   3.911   3.855  0.0218 -0.5522 -0.0804
16468TIP3   OH270894   3.807   1.793   4.848  0.0815 -0.0691  0.2467
16468TIP3    H170895   3.780   1.720   4.903  0.4477  0.6846  1.4674
16468TIP3    H270896   3.766   1.777   4.763  0.4529 -1.8602  0.3954
16469TIP3   OH270897   6.228   2.163   6.158 -0.3622 -0.3389 -0.4472
16469TIP3    H170898   6.158   2.109   6.122 -0.3901  0.2367 -1.2568
16469TIP3    H270899   6.306   2.107   6.155 -0.6607 -0.7758 -0.0857
16470TIP3   OH270900   2.243   6.488  13.666  0.2016 -0.0164 -0.3591
16470TIP3    H170901   2.325   6.489  13.616  0.0319 -0.2241 -0.6449
16470TIP3    H270902   2.267   6.522  13.752  0.5716  0.0077 -0.4697
16471TIP3   OH270903   2.409   3.535   1.330  0.1113  0.0959  0.8400
16471TIP3    H170904   2.336   3.559   1.273  0.0786  0.3746  1.0000
16471TIP3    H270905   2.483   3.586   1.298  0.0799  0.2967  1.0792
16472TIP3   OH270906   4.956   4.304   3.994 -0.0887  0.3310  0.3233
16472TIP3    H170907   4.907   4.222   3.981  1.0615 -0.4697  0.9904
16472TIP3    H270908   4.943   4.352   3.912 -0.0048 -0.9352 -0.4556
16473TIP3   OH270909   0.902   3.683   6.671  0.2672  0.2356  0.1989
16473TIP3    H170910   0.962   3.681   6.745  1.7057 -0.2580 -0.9644
16473TIP3    H270911   0.889   3.776   6.653  2.2227  0.3453 -0.7608
16474TIP3   OH270912   3.059   4.141   0.035  0.2702  0.0009 -0.1044
16474TIP3    H170913   3.111   4.222   0.031 -2.3421  1.9484  3.2455
16474TIP3    H270914   2.984   4.159  -0.021  0.0470 -0.3891  0.0723
16475TIP3   OH270915   3.591   5.996  16.380 -0.1286 -0.3008 -0.1245
16475TIP3    H170916   3.653   5.923  16.373 -0.6039 -0.8486  1.1178
16475TIP3    H270917   3.545   5.980  16.462 -0.5932  1.1423 -0.0894
16476TIP3   OH270918   6.146   4.845   1.708  0.1118  0.0055  0.5196
16476TIP3    H170919   6.106   4.893   1.781 -1.2424  0.8531 -0.7303
16476TIP3    H270920   6.239   4.862   1.717 -0.3217  2.9164  0.1483
16477TIP3   OH270921   2.702   2.461  12.111  0.3298 -0.4491  0.4636
16477TIP3    H170922   2.796   2.477  12.123  0.2485  0.6127 -0.2714
16477TIP3    H270923   2.697   2.403  12.036  0.3073  1.0366 -0.7006
16478TIP3   OH270924   4.084   5.969  16.613  0.1695 -0.2274  0.3661
16478TIP3    H170925   4.088   5.955  16.518  1.2481  1.7521  0.0832
16478TIP3    H270926   4.037   6.053  16.621 -1.4284 -1.2207  1.6751
16479TIP3   OH270927   0.615   2.658  11.687  0.3985 -0.3809 -0.2293
16479TIP3    H170928   0.534   2.708  11.678 -0.8817 -2.2344  0.6699
16479TIP3    H270929   0.670   2.689  11.615 -1.4484  0.2586 -1.4005
16480TIP3   OH270930   3.573   3.266  12.652  0.4066  0.4346 -0.1866
16480TIP3    H170931   3.557   3.247  12.560 -2.5389 -2.7930  0.9027
16480TIP3    H270932   3.511   3.336  12.674 -1.3342 -1.1841  0.1492
16481TIP3   OH270933   1.134   2.807   2.302  0.4980  0.3166 -0.2499
16481TIP3    H170934   1.114   2.878   2.363  0.4271 -3.1770  4.0346
16481TIP3    H270935   1.050   2.764   2.287  0.5758  0.9367 -2.6620
16482TIP3   OH270936   6.418   0.054   4.152 -0.6749 -0.6333  0.7612
16482TIP3    H170937   6.350   0.118   4.133  0.6264  0.1222 -1.5323
16482TIP3    H270938   6.374  -0.031   4.147 -1.7937 -0.0788  1.0110
16483TIP3   OH270939   3.826   1.629   1.295  0.0869 -0.5755  0.0781
16483TIP3    H170940   3.920   1.622   1.309 -0.1348 -3.0517  0.4761
16483TIP3    H270941   3.791   1.650   1.382  0.1530 -1.0749  0.2308
16484TIP3   OH270942   6.727   6.418   4.264 -0.1365  0.0556  0.8054
16484TIP3    H170943   6.690   6.467   4.191  2.4703  1.2294  0.2151
16484TIP3    H270944   6.654   6.404   4.323 -1.6719  1.5994 -0.6881
16485TIP3   OH270945   2.771   1.517  14.418  1.1288  0.0983 -0.2011
16485TIP3    H170946   2.689   1.468  14.427  0.6001  1.0194  0.1073
16485TIP3    H270947   2.839   1.451  14.417  0.2322 -0.8682 -2.8977
16486TIP3   OH270948   4.894   5.712   4.375 -0.3018 -0.5950 -0.6337
16486TIP3    H170949   4.836   5.671   4.438 -0.2484 -1.4874 -1.1630
16486TIP3    H270950   4.928   5.789   4.420 -0.6554 -0.9504  0.2414
16487TIP3   OH270951   4.947   6.018  16.977  0.0764  0.6087  0.4783
16487TIP3    H170952   4.940   6.112  16.961  2.0313  0.9674  1.5983
16487TIP3    H270953   4.987   6.010  17.063  0.2259 -1.2616  0.2750
16488TIP3   OH270954   2.510   6.468   5.567  0.1079 -0.1224  0.0172
16488TIP3    H170955   2.441   6.424   5.517  0.0170  1.3556 -1.1920
16488TIP3    H270956   2.590   6.422   5.544  0.0138  0.3296 -1.2198
16489TIP3   OH270957   1.162   1.318  13.843  0.0211  0.1753 -0.7871
16489TIP3    H170958   1.245   1.332  13.887  0.7636 -1.8103 -1.4661
16489TIP3    H270959   1.125   1.405  13.831  2.6359  1.2110 -1.6658
16490TIP3   OH270960   1.240   4.415  12.171  0.0990  0.7792  0.0859
16490TIP3    H170961   1.163   4.407  12.115  1.0457  0.2276 -1.1536
16490TIP3    H270962   1.208   4.459  12.249 -1.7217 -0.4769  0.0733
16491TIP3   OH270963   2.580   0.206  11.830  0.1856 -0.0024  0.2362
16491TIP3    H170964   2.591   0.112  11.841  1.1291 -0.0862 -1.2937
16491TIP3    H270965   2.498   0.216  11.782  0.4941 -0.0913 -0.3116
16492TIP3   OH270966   3.091   6.347  16.479  0.3011 -0.0940 -0.0508
16492TIP3    H170967   3.094   6.327  16.573 -2.2558  3.1323  0.8181
16492TIP3    H270968   3.176   6.386  16.461  0.3990  0.3538  1.2558
16493TIP3   OH270969   0.495   2.230  14.876 -0.1536 -0.0508 -0.3530
16493TIP3    H170970   0.434   2.185  14.818 -0.3425  2.3028 -2.0449
16493TIP3    H270971   0.439   2.274  14.940  0.0239 -2.0049  1.1958
16494TIP3   OH270972   6.000   5.834   2.164  0.2360 -0.9913 -0.2612
16494TIP3    H170973   5.922   5.802   2.119 -0.2387 -0.1414 -0.0573
16494TIP3    H270974   5.985   5.928   2.175  1.6926 -0.6537 -1.0307
16495TIP3   OH270975   5.675   6.135  10.098  0.0826 -0.4657 -0.3853
16495TIP3    H170976   5.705   6.224  10.117  1.7405 -0.7273 -1.6966
16495TIP3    H270977   5.592   6.147  10.051 -1.0417  0.3004  1.7099
16496TIP3   OH270978   0.254   5.408   1.607  0.1924  0.3694 -0.1266
16496TIP3    H170979   0.177   5.394   1.662  0.6121  0.3035  0.4504
16496TIP3    H270980   0.219   5.418   1.519 -0.5126  0.7513  0.1896
16497TIP3   OH270981   5.685   3.197   3.799  0.3403  0.1775  0.0985
16497TIP3    H170982   5.695   3.229   3.709 -0.1158 -1.1136 -0.4414
16497TIP3    H270983   5.762   3.142   3.814 -0.8189 -1.6748 -0.4558
16498TIP3   OH270984   3.796   1.507   4.107  0.3354 -0.5138  0.6874
16498TIP3    H170985   3.862   1.465   4.161  0.6877  0.1524  0.7771
16498TIP3    H270986   3.845   1.558   4.043 -0.0685 -1.6796 -0.5892
16499TIP3   OH270987   4.584   0.105  15.193 -0.0064 -0.3528  0.0901
16499TIP3    H170988   4.600   0.024  15.145  0.2415 -0.6613  0.6840
16499TIP3    H270989   4.666   0.154  15.184 -0.7265  0.5981 -1.7049
16500TIP3   OH270990   1.477   3.145   4.465  0.3452 -0.1505  0.1093
16500TIP3    H170991   1.554   3.088   4.462  2.6081  2.7897  0.0889
16500TIP3    H270992   1.469   3.169   4.558 -1.9990 -2.2052  0.5208
16501TIP3   OH270993   6.332   1.092   0.044  0.1876  0.2330  0.5323
16501TIP3    H170994   6.328   1.171  -0.010 -0.1698 -1.3981 -1.9463
16501TIP3    H270995   6.240   1.073   0.066  0.3110  0.7457  1.5166
16502TIP3   OH270996   2.460   1.309  12.685  0.4476  0.2113 -0.2752
16502TIP3    H170997   2.393   1.282  12.621  0.6180 -0.2485 -0.2646
16502TIP3    H270998   2.501   1.385  12.645 -0.8399  1.1822  0.2294
16503TIP3   OH270999   0.097   1.037  14.601  0.2448 -0.0491 -0.0146
16503TIP3    H171000   0.009   1.073  14.612 -0.1350 -1.1484  0.7420
16503TIP3    H271001   0.150   1.081  14.668 -0.2073 -0.8228  0.8754
16504TIP3   OH271002   0.143   0.554  16.418 -0.3054 -0.1783 -0.5291
16504TIP3    H171003   0.154   0.645  16.447  0.3286 -0.3551 -0.2091
16504TIP3    H271004   0.123   0.506  16.498 -0.3985 -0.3602 -0.6635
16505TIP3   OH271005   0.150   5.394  14.645 -0.2562 -0.4919 -0.6446
16505TIP3    H171006   0.222   5.372  14.704 -0.6381 -1.8551 -0.6479
16505TIP3    H271007   0.072   5.359  14.689 -0.7323 -0.2145 -1.2592
16506TIP3   OH271008   3.595   4.312   1.894 -0.2389  0.0092  0.1473
16506TIP3    H171009   3.560   4.308   1.805  1.6565  0.2195 -0.6298
16506TIP3    H271010   3.640   4.397   1.898 -0.0715 -0.1200  1.2066
16507TIP3   OH271011   0.372   3.777   5.649 -0.1777 -0.2151 -0.0281
16507TIP3    H171012   0.385   3.817   5.735  0.7765 -0.2570 -0.1461
16507TIP3    H271013   0.430   3.826   5.590 -1.0211 -0.0084 -0.7116
16508TIP3   OH271014   5.858   6.227   1.545  0.4151 -0.6102  0.1590
16508TIP3    H171015   5.819   6.246   1.460  1.0907 -2.3887 -0.5709
16508TIP3    H271016   5.951   6.215   1.527  0.6294 -0.6019  1.2081
16509TIP3   OH271017   2.797   4.719   1.512  0.2531 -0.2124 -0.0024
16509TIP3    H171018   2.713   4.723   1.466 -0.0846 -0.1598  0.6129
16509TIP3    H271019   2.863   4.714   1.442 -0.1374  1.6878 -0.5479
16510TIP3   OH271020   4.611   2.960  11.972  0.2296 -0.1572  0.6160
16510TIP3    H171021   4.666   2.916  12.036  1.1447  0.7297  0.4628
16510TIP3    H271022   4.669   3.025  11.932  0.1090 -1.6808 -2.1628
16511TIP3   OH271023   4.747   2.775   4.774  0.1327  0.6631  0.2568
16511TIP3    H171024   4.815   2.708   4.776 -1.1350 -0.6788 -0.8824
16511TIP3    H271025   4.795   2.857   4.782  2.0524 -0.1448 -2.2127
16512TIP3   OH271026   5.475   0.008   6.420 -0.2357 -0.5126 -0.1923
16512TIP3    H171027   5.506  -0.004   6.330 -2.3234  0.8052 -1.1296
16512TIP3    H271028   5.429  -0.073   6.441  0.1839 -0.7890 -0.3250
16513TIP3   OH271029   2.228   5.237   3.622  0.0033 -0.1947 -0.3549
16513TIP3    H171030   2.323   5.226   3.610 -0.2014 -1.6535 -0.8134
16513TIP3    H271031   2.192   5.150   3.604 -1.2471 -0.1342  1.7080
16514TIP3   OH271032   1.358   3.036   2.607  0.4499 -0.2633 -0.1078
16514TIP3    H171033   1.416   3.093   2.658  0.8635 -0.7457 -0.0320
16514TIP3    H271034   1.280   3.026   2.661  0.3499  0.2781 -0.1480
16515TIP3   OH271035   3.025   5.182   0.975 -0.3327 -0.2788  0.4571
16515TIP3    H171036   3.039   5.163   0.882 -0.9195  1.1916  0.0699
16515TIP3    H271037   3.035   5.276   0.983 -2.4477 -0.1088  1.5091
16516TIP3   OH271038   2.553   3.187   2.108  0.5542 -0.3701 -0.1223
16516TIP3    H171039   2.569   3.207   2.016 -1.7369 -2.2424 -0.9812
16516TIP3    H271040   2.478   3.241   2.132  2.2029  1.4133  1.1941
16517TIP3   OH271041   5.321   0.758   5.784 -0.1803  0.3010  0.6852
16517TIP3    H171042   5.256   0.692   5.759  1.2697  0.0805 -2.7885
16517TIP3    H271043   5.301   0.833   5.727  2.1291  0.4765  0.0521
16518TIP3   OH271044   1.991   0.792  12.299 -0.8278 -0.5475 -0.4849
16518TIP3    H171045   2.076   0.749  12.294 -0.1946  0.6540 -0.0415
16518TIP3    H271046   1.935   0.729  12.344 -0.3175 -1.5553 -1.2384
16519TIP3   OH271047   5.444   0.335   1.063 -0.2899  0.1124  0.3141
16519TIP3    H171048   5.409   0.424   1.055 -1.2603 -0.1707  1.2047
16519TIP3    H271049   5.525   0.346   1.113 -0.8238  0.4113  1.1226
16520TIP3   OH271050   0.787   5.961  14.625  0.0594  0.4292  0.3665
16520TIP3    H171051   0.825   6.042  14.590 -2.8456  1.7056  0.0275
16520TIP3    H271052   0.775   5.905  14.548  0.2037  0.4700  0.3135
16521TIP3   OH271053   5.201   4.666   1.108  0.4728 -0.0996 -0.8331
16521TIP3    H171054   5.241   4.641   1.191  0.8713  1.7252 -0.4602
16521TIP3    H271055   5.134   4.599   1.093 -1.1027  0.7422  2.0783
16522TIP3   OH271056   0.023   5.532   4.933 -0.0712 -0.9739  0.1130
16522TIP3    H171057  -0.049   5.556   4.875 -0.6690 -3.8020 -0.4241
16522TIP3    H271058   0.091   5.597   4.916 -0.5998 -1.1736 -3.0652
16523TIP3   OH271059   3.451   6.273  12.666 -1.0051 -0.2607 -0.2670
16523TIP3    H171060   3.413   6.290  12.752 -1.2200 -2.4632  0.1133
16523TIP3    H271061   3.454   6.177  12.660  0.5220 -0.1287 -2.0436
16524TIP3   OH271062   5.167   5.346   2.391  0.5249  0.7998  0.5960
16524TIP3    H171063   5.087   5.356   2.339  0.8489  0.5819  0.0459
16524TIP3    H271064   5.169   5.422   2.448 -0.8619  0.0450  1.6822
16525TIP3   OH271065   0.934   1.817  11.548  0.1772  0.2698  0.3179
16525TIP3    H171066   1.024   1.785  11.539  0.2087  0.1406  1.1003
16525TIP3    H271067   0.935   1.903  11.508  0.6066  0.1895  0.1576
16526TIP3   OH271068   3.813   1.071  11.763  0.2913  0.1710 -0.1966
16526TIP3    H171069   3.842   1.075  11.854  0.4578  0.0829 -0.2471
16526TIP3    H271070   3.860   1.142  11.719  1.3292 -0.7212 -0.5369
16527TIP3   OH271071   0.515   3.977   0.776 -0.7012  0.3540 -0.2776
16527TIP3    H171072   0.448   3.980   0.707 -0.5411 -1.9009 -0.5472
16527TIP3    H271073   0.585   4.034   0.743 -0.4098 -1.0878 -2.2296
16528TIP3   OH271074   2.767   2.684  11.447 -0.0269 -0.4525 -0.0093
16528TIP3    H171075   2.829   2.614  11.469  1.1937  1.1542  1.9057
16528TIP3    H271076   2.732   2.712  11.532  0.3992  2.0241 -0.6026
16529TIP3   OH271077   5.099   4.864  16.417  0.2351  0.2005  0.1465
16529TIP3    H171078   5.037   4.936  16.404  0.5507  0.3604 -0.4983
16529TIP3    H271079   5.064   4.815  16.492 -1.5203 -0.6098 -1.1730
16530TIP3   OH271080   0.326   2.128  14.699  0.0787 -0.2746 -0.6482
16530TIP3    H171081   0.243   2.081  14.693 -1.2538  1.9603 -0.2808
16530TIP3    H271082   0.363   2.124  14.611  0.7607 -3.2871 -0.2834
16531TIP3   OH271083   2.790   5.126   2.213 -0.2112 -0.7760 -0.1250
16531TIP3    H171084   2.812   5.214   2.245  3.0181 -1.4486 -0.2898
16531TIP3    H271085   2.695   5.128   2.200 -0.3840  2.2571  1.1307
16532TIP3   OH271086   2.769   6.135  13.748  0.0743  0.0709  0.6612
16532TIP3    H171087   2.682   6.143  13.708  1.5703  3.6793 -2.1587
16532TIP3    H271088   2.753   6.150  13.841 -2.1878  2.1301  0.0088
16533TIP3   OH271089   5.831   3.400   4.638  0.2690 -0.6696  0.3182
16533TIP3    H171090   5.869   3.488   4.641  2.1669 -1.5265  2.4839
16533TIP3    H271091   5.764   3.401   4.706 -2.0044  0.0624 -1.8438
16534TIP3   OH271092   0.701   6.644  15.398 -0.3924  0.7249 -1.0437
16534TIP3    H171093   0.709   6.608  15.486 -0.7460  1.3737 -0.7398
16534TIP3    H271094   0.718   6.570  15.340  0.8179  0.5180 -0.4298
16535TIP3   OH271095   3.708   2.513   6.207  0.0379  0.6837 -0.4539
16535TIP3    H171096   3.745   2.427   6.190 -0.4323  0.6560 -1.3911
16535TIP3    H271097   3.779   2.563   6.246  0.1179 -0.3251  0.7180
16536TIP3   OH271098   3.196   0.142  15.267  0.2049 -0.1778 -0.1845
16536TIP3    H171099   3.161   0.094  15.192  0.6219 -0.5150 -0.1592
16536TIP3    H271100   3.287   0.160  15.244 -0.1880  1.4015 -0.6042
16537TIP3   OH271101   3.902   0.144   6.474  0.0125  0.2312  0.4413
16537TIP3    H171102   3.950   0.086   6.415 -0.0464  0.9059 -0.2890
16537TIP3    H271103   3.810   0.121   6.463 -0.0508  0.8067 -0.2257
16538TIP3   OH271104   2.930   4.665  14.567 -0.1259 -0.3396 -0.9247
16538TIP3    H171105   2.916   4.585  14.617  0.6664  0.0535 -0.0639
16538TIP3    H271106   2.849   4.677  14.518 -1.7522  0.3946  1.8494
16539TIP3   OH271107   2.705   6.216   0.713 -0.4696  0.3431  0.0221
16539TIP3    H171108   2.765   6.263   0.655 -1.2947  1.3958  0.0025
16539TIP3    H271109   2.715   6.259   0.798 -1.2008  0.5509  0.0138
16540TIP3   OH271110   6.719   5.863   4.219  0.0883  0.2241 -0.5308
16540TIP3    H171111   6.764   5.845   4.301 -0.3679 -1.1451 -0.5673
16540TIP3    H271112   6.788   5.855   4.152 -0.2834 -2.6284 -0.6695
16541TIP3   OH271113   0.267   3.620   5.274 -0.4404  0.2414 -0.2086
16541TIP3    H171114   0.346   3.652   5.230  0.3295  0.0820  1.0295
16541TIP3    H271115   0.239   3.694   5.329  0.3064 -0.5659  1.2782
16542TIP3   OH271116   5.789   2.969  10.890 -0.1018 -0.6081  0.0292
16542TIP3    H171117   5.788   2.882  10.929  0.3212 -1.3644 -1.6157
16542TIP3    H271118   5.881   2.996  10.892 -0.0620 -0.6880 -0.4919
16543TIP3   OH271119   5.371   0.239   5.379 -0.0063 -0.0730  0.1262
16543TIP3    H171120   5.338   0.235   5.469 -0.1611  0.1921  0.0829
16543TIP3    H271121   5.441   0.304   5.383 -0.0868  0.0182  0.0306
16544TIP3   OH271122   4.312   3.483  11.067 -0.0177  0.5796 -0.4341
16544TIP3    H171123   4.329   3.551  11.133 -1.3655  1.4519 -0.9645
16544TIP3    H271124   4.364   3.409  11.096 -2.9263 -0.1386  3.4082
16545TIP3   OH271125   0.536   4.268   2.686 -0.4903  0.8422 -0.1098
16545TIP3    H171126   0.458   4.324   2.682 -1.1577 -0.1856 -2.2279
16545TIP3    H271127   0.525   4.217   2.766 -2.3973  0.2072 -0.7343
16546TIP3   OH271128   0.051   4.739  15.317  0.2392  0.0978  0.4570
16546TIP3    H171129   0.057   4.832  15.341  0.0996  0.0575  0.6547
16546TIP3    H271130  -0.033   4.711  15.354  0.4701 -0.2083  0.7446
16547TIP3   OH271131   6.279   5.931  12.507  0.3207  0.0501  0.0193
16547TIP3    H171132   6.332   5.851  12.503 -3.1966 -2.5249  1.7649
16547TIP3    H271133   6.250   5.946  12.417  0.4245 -1.0913 -0.2102
16548TIP3   OH271134   4.705   5.286   5.476  0.0428 -0.0165  0.9466
16548TIP3    H171135   4.646   5.312   5.405  0.8569 -1.0214 -0.1087
16548TIP3    H271136   4.703   5.361   5.536 -0.7023  0.8316 -0.0955
16549TIP3   OH271137   4.233   4.416   5.576 -0.0570  0.0721  0.0495
16549TIP3    H171138   4.165   4.353   5.601  0.2519 -0.0357  0.6260
16549TIP3    H271139   4.184   4.492   5.544 -0.4445 -0.1571  0.0938
16550TIP3   OH271140   3.951   4.412  12.131  0.5176 -0.2726 -0.9971
16550TIP3    H171141   3.869   4.394  12.177  1.4317  0.9942  1.2100
16550TIP3    H271142   3.994   4.327  12.125 -0.0190 -0.5986 -0.2871
16551TIP3   OH271143   4.027   5.469  15.183 -0.3668 -0.1176 -0.4738
16551TIP3    H171144   4.010   5.378  15.159  2.1009 -0.7465 -0.0170
16551TIP3    H271145   4.073   5.505  15.107 -0.3101  0.4143 -0.1860
16552TIP3   OH271146   4.693   1.674   0.986 -0.5851 -0.0608  0.6603
16552TIP3    H171147   4.657   1.734   0.921  1.9215  0.1621 -0.5545
16552TIP3    H271148   4.738   1.606   0.935  2.0801  0.5368  2.1262
16553TIP3   OH271149   5.777   6.193  16.996 -0.4117 -0.2457  0.1851
16553TIP3    H171150   5.697   6.223  16.954 -0.6932 -2.8249 -1.2267
16553TIP3    H271151   5.783   6.100  16.974  3.5594  0.1161 -0.7944
16554TIP3   OH271152   5.163   5.603   2.532  0.3398  0.2124 -0.5888
16554TIP3    H171153   5.180   5.682   2.480 -0.4959  0.1118 -1.0214
16554TIP3    H271154   5.101   5.630   2.599  0.9685  0.2005  0.0056
16555TIP3   OH271155   1.889   4.055   5.401  0.2895 -0.5282  0.0304
16555TIP3    H171156   1.963   4.018   5.354  0.4155 -1.1246  0.6878
16555TIP3    H271157   1.848   3.981   5.444  0.0257 -0.0321  0.6487
16556TIP3   OH271158   6.616   0.385   3.217  0.8228 -0.5288  0.1363
16556TIP3    H171159   6.652   0.300   3.190  1.2853 -0.4579  0.5124
16556TIP3    H271160   6.688   0.447   3.203  0.2643 -0.0837 -0.7767
16557TIP3   OH271161   2.319   5.203  13.430  0.6852 -0.3230 -0.4177
16557TIP3    H171162   2.354   5.281  13.473  0.6009 -1.0903  1.0587
16557TIP3    H271163   2.224   5.217  13.428  0.5714 -0.8585  0.8152
16558TIP3   OH271164   2.405   1.642  14.498  0.4461  0.6782  0.1942
16558TIP3    H171165   2.458   1.716  14.466  0.6016  0.2931 -0.4436
16558TIP3    H271166   2.422   1.572  14.435  1.5851 -0.4384  1.7054
16559TIP3   OH271167   2.372   4.081  14.116  0.3655  0.3156 -0.1609
16559TIP3    H171168   2.324   4.162  14.103  1.5829  0.9909 -0.6040
16559TIP3    H271169   2.417   4.066  14.032 -0.2872 -1.1158 -0.2724
16560TIP3   OH271170   1.947   2.732   5.597 -0.4906  0.2015  0.2987
16560TIP3    H171171   1.983   2.750   5.684  0.7164  0.6945 -0.2846
16560TIP3    H271172   1.971   2.641   5.580 -0.9778  0.0158  0.5974
16561TIP3   OH271173   6.195   3.268   0.106 -0.2736  0.5388 -0.3347
16561TIP3    H171174   6.271   3.310   0.064 -0.6433  0.8178 -0.7267
16561TIP3    H271175   6.132   3.339   0.117 -0.1708  0.4768  0.7280
16562TIP3   OH271176   0.336   6.597   3.170 -0.2925  0.1981 -0.3655
16562TIP3    H171177   0.252   6.560   3.145  0.1454 -0.4388 -0.9169
16562TIP3    H271178   0.339   6.589   3.265 -0.4216 -0.6971 -0.4376
16563TIP3   OH271179   3.551   0.559  14.069  0.1601  0.2294 -0.2141
16563TIP3    H171180   3.472   0.571  14.018  1.4716  3.1082 -1.6637
16563TIP3    H271181   3.536   0.607  14.150  0.4686  0.8768 -0.5402
16564TIP3   OH271182   4.544   6.460  14.972 -0.0264 -0.1605  0.0899
16564TIP3    H171183   4.623   6.411  14.952  0.6331  0.7893  0.3316
16564TIP3    H271184   4.575   6.544  15.006 -1.1317  0.6055 -0.7217
16565TIP3   OH271185   5.845   3.643   4.497  0.4969  0.2344 -0.1607
16565TIP3    H171186   5.759   3.649   4.456  0.1768 -2.2909  0.0121
16565TIP3    H271187   5.891   3.576   4.445  1.2859 -0.5561  1.5236
16566TIP3   OH271188   3.052   1.266  15.200 -0.9186 -0.3780  0.4892
16566TIP3    H171189   3.143   1.240  15.215 -1.0195 -0.8017  0.3681
16566TIP3    H271190   3.058   1.340  15.140 -0.3899  2.5818  4.0255
16567TIP3   OH271191   2.202   5.286  12.295  0.2087 -0.3547  0.0367
16567TIP3    H171192   2.250   5.205  12.309 -0.0308 -0.2914  1.2559
16567TIP3    H271193   2.267   5.346  12.258  0.9479 -0.4465  1.1458
16568TIP3   OH271194   0.560   3.880   6.093 -0.0863  0.8828  0.3153
16568TIP3    H171195   0.636   3.920   6.135  0.2411  1.1341 -0.5242
16568TIP3    H271196   0.519   3.951   6.044 -1.0028  0.8046  0.9459
16569TIP3   OH271197   5.637   4.104   1.880 -0.7290  0.1689  0.0961
16569TIP3    H171198   5.563   4.155   1.849 -0.3787  1.7866  1.8464
16569TIP3    H271199   5.693   4.167   1.924  1.8832 -0.9777 -1.5056
16570TIP3   OH271200   5.819   6.698   1.885  0.3325 -1.2888 -0.3681
16570TIP3    H171201   5.882   6.748   1.834 -1.6264  0.6999 -0.9349
16570TIP3    H271202   5.850   6.705   1.976 -0.3405  1.7914 -0.2977
16571TIP3   OH271203   6.429   6.605  13.835  0.4393  0.3007 -0.2621
16571TIP3    H171204   6.482   6.544  13.886  0.8114 -0.6984 -1.8408
16571TIP3    H271205   6.343   6.563  13.829  0.2717  0.6176 -0.1272
16572TIP3   OH271206   3.918   4.686  15.277  0.0956  0.0733 -0.1435
16572TIP3    H171207   3.964   4.646  15.351 -2.2758 -1.8392  0.3725
16572TIP3    H271208   3.842   4.729  15.317 -1.8694 -1.9999 -1.5368
16573TIP3   OH271209   6.283   6.472  14.576  0.3376 -0.0509 -0.3345
16573TIP3    H171210   6.298   6.556  14.534  0.1208  0.2533  0.1912
16573TIP3    H271211   6.189   6.470  14.594  0.0123 -1.1868 -2.0023
16574TIP3   OH271212   0.933   4.783   5.789 -0.5836 -0.2640 -0.6902
16574TIP3    H171213   0.916   4.762   5.881  1.6518 -1.9453 -0.6281
16574TIP3    H271214   0.962   4.874   5.791  0.8360 -0.7254  0.4529
16575TIP3   OH271215   1.272   3.456  17.048 -0.3291 -0.8824 -0.1397
16575TIP3    H171216   1.249   3.548  17.062  2.0590 -0.5336  1.8252
16575TIP3    H271217   1.231   3.410  17.121  1.4020 -0.8609  0.8694
16576TIP3   OH271218   2.120   1.550   3.610  0.2745 -0.3444  0.4511
16576TIP3    H171219   2.025   1.537   3.613  0.1063  0.9131  1.0281
16576TIP3    H271220   2.152   1.483   3.550 -1.1314 -0.0049 -0.6931
16577TIP3   OH271221   3.394   3.812   1.724 -0.8590  0.2385 -0.1408
16577TIP3    H171222   3.307   3.806   1.687 -1.0243  0.2532  0.2400
16577TIP3    H271223   3.435   3.887   1.681 -1.3103  0.7095  0.2453
16578TIP3   OH271224   1.578   1.670  15.803 -0.3243 -0.3858  0.3068
16578TIP3    H171225   1.500   1.719  15.828  0.4987  0.8926  0.4228
16578TIP3    H271226   1.549   1.614  15.731 -1.3507  0.0484  0.3718
16579TIP3   OH271227   4.030   5.798  16.811  0.0837  0.3126 -0.4232
16579TIP3    H171228   4.092   5.730  16.838  1.5756  2.0903  0.6914
16579TIP3    H271229   4.071   5.839  16.735 -1.0252 -0.3117 -1.3719
16580TIP3   OH271230   4.591   5.481   0.359 -0.2455  0.4100  0.5193
16580TIP3    H171231   4.573   5.438   0.442 -1.4719  0.0122  0.0619
16580TIP3    H271232   4.611   5.572   0.382 -0.2320  0.2108  1.2756
16581TIP3   OH271233   4.032   1.300   6.396  0.2903  0.3457 -0.4657
16581TIP3    H171234   4.013   1.374   6.339 -1.7026  0.7319  0.6173
16581TIP3    H271235   3.961   1.238   6.379  2.3507 -1.6537 -1.8961
16582TIP3   OH271236   1.795   2.026  13.203  0.1084 -0.3241  0.2928
16582TIP3    H171237   1.864   2.074  13.158 -2.1665  2.0362 -0.8000
16582TIP3    H271238   1.756   1.971  13.135 -1.3732  0.9895  0.0701
16583TIP3   OH271239   2.621   2.951   3.985  0.7901  0.1349  0.5170
16583TIP3    H171240   2.538   2.987   4.018 -0.2785 -0.9280 -0.9764
16583TIP3    H271241   2.682   2.963   4.058 -0.6480  0.9880  1.6244
16584TIP3   OH271242   3.155   1.576   2.646  0.0615  0.2768  0.0384
16584TIP3    H171243   3.129   1.667   2.630 -0.4744  0.2230  0.6122
16584TIP3    H271244   3.086   1.540   2.702  1.3655  0.1512  1.6114
16585TIP3   OH271245   6.241   2.457   0.346  0.4935  0.2294  0.1853
16585TIP3    H171246   6.298   2.532   0.359 -0.0798  0.9067 -1.1417
16585TIP3    H271247   6.202   2.470   0.260  1.0552 -2.0402 -0.4493
16586TIP3   OH271248   5.381   2.983  15.620  0.1079 -0.0738 -0.1229
16586TIP3    H171249   5.365   2.898  15.579  2.2715 -0.6602  0.1629
16586TIP3    H271250   5.317   2.987  15.692 -0.0130 -1.4701 -0.1336
16587TIP3   OH271251   1.450   1.890   2.182  0.0050 -0.6072  0.1758
16587TIP3    H171252   1.412   1.916   2.267 -2.0648 -2.4872 -0.1417
16587TIP3    H271253   1.541   1.867   2.203  0.2406  1.3390  1.4348
16588TIP3   OH271254   4.828   5.850   4.815 -0.0394  0.2684 -0.2084
16588TIP3    H171255   4.749   5.852   4.761 -2.5833 -0.4098  3.3004
16588TIP3    H271256   4.843   5.758   4.833  0.0247  0.5708  1.3077
16589TIP3   OH271257   1.917   2.407  13.211 -0.1395  0.6549 -0.2371
16589TIP3    H171258   1.891   2.363  13.130 -1.1953  0.1218  0.3869
16589TIP3    H271259   1.973   2.343  13.256 -1.4222  0.0551  0.5258
16590TIP3   OH271260   1.630   0.272  15.949  0.1517 -0.3252  0.4330
16590TIP3    H171261   1.558   0.320  15.909 -0.1080 -2.0226 -1.1516
16590TIP3    H271262   1.588   0.197  15.991  1.1167 -2.1069 -1.7203
16591TIP3   OH271263   2.760   4.577   0.018 -0.1108  0.1364  0.2308
16591TIP3    H171264   2.666   4.596   0.017  0.2559  2.0456 -0.1266
16591TIP3    H271265   2.800   4.649  -0.032  1.7519  0.5995  2.2809
16592TIP3   OH271266   2.194   4.796  15.436 -0.1126 -0.1985  0.1645
16592TIP3    H171267   2.115   4.813  15.487  0.4720  1.4145  0.5450
16592TIP3    H271268   2.245   4.736  15.490  1.1136  2.5410  2.0989
16593TIP3   OH271269   4.922   3.678   4.879  0.0409 -0.5236  0.5109
16593TIP3    H171270   4.859   3.675   4.951 -0.0216  0.5923  0.5112
16593TIP3    H271271   4.873   3.716   4.806  0.3889 -0.7158  0.1761
16594TIP3   OH271272   2.842   4.999  12.024  0.5762 -0.1051  0.2410
16594TIP3    H171273   2.935   4.998  12.047  0.9108  2.4376 -0.8361
16594TIP3    H271274   2.806   5.074  12.071 -0.8069 -0.6428  0.0780
16595TIP3   OH271275   2.432   6.470  15.622 -0.2714 -0.5300 -0.8594
16595TIP3    H171276   2.420   6.465  15.717 -1.4985 -3.0913 -1.1194
16595TIP3    H271277   2.524   6.447  15.609  1.0675  3.7417 -0.0797
16596TIP3   OH271278   4.812   5.090  15.366  0.8452 -0.4971 -0.4098
16596TIP3    H171279   4.718   5.076  15.381  1.2926 -3.7456 -0.3947
16596TIP3    H271280   4.818   5.118  15.274 -0.0184 -1.7210 -0.8464
16597TIP3   OH271281   0.990   4.921  14.100 -0.4179  0.4333  0.4899
16597TIP3    H171282   0.946   4.971  14.031  2.3606  0.0070 -1.6859
16597TIP3    H271283   1.075   4.963  14.110 -0.1753 -0.4813  2.5641
16598TIP3   OH271284   4.578   4.295  11.574  0.3423 -0.6106  0.1732
16598TIP3    H171285   4.508   4.235  11.599 -0.6020  1.3240  2.4444
16598TIP3    H271286   4.537   4.357  11.514  0.5252 -0.4781  0.1827
16599TIP3   OH271287   0.317   3.586  14.206  0.4290 -0.2921  0.2472
16599TIP3    H171288   0.347   3.645  14.138 -2.1119  0.7646  0.0054
16599TIP3    H271289   0.369   3.610  14.283  1.6324  0.1015 -0.6748
16600TIP3   OH271290   3.917   0.377   0.764  0.1697 -0.2325 -0.4662
16600TIP3    H171291   3.836   0.329   0.781 -0.5825  1.3398  0.5234
16600TIP3    H271292   3.902   0.419   0.679  0.1598 -0.3697 -0.5329
16601TIP3   OH271293   4.585   2.796  15.278  0.2645  0.5161  0.0660
16601TIP3    H171294   4.586   2.859  15.350 -0.7205 -0.1402  0.6649
16601TIP3    H271295   4.669   2.751  15.284  1.2394  2.2229 -0.7627
16602TIP3   OH271296   5.570   3.320   5.992 -0.0948  0.1519 -0.4491
16602TIP3    H171297   5.520   3.245   6.025  3.1870 -2.9390 -2.1552
16602TIP3    H271298   5.611   3.358   6.070 -1.5927  0.0631  0.3995
16603TIP3   OH271299   6.642   6.092   5.881 -0.2474  0.5162  0.1472
16603TIP3    H171300   6.572   6.149   5.914 -1.1398  0.2842 -1.3079
16603TIP3    H271301   6.629   6.089   5.786  1.5825  0.2436 -0.1223
16604TIP3   OH271302   1.301   4.213   3.526  0.3151 -0.4323  0.1730
16604TIP3    H171303   1.302   4.207   3.430  0.0518 -1.6115  0.2422
16604TIP3    H271304   1.241   4.285   3.544  1.4209  0.7162 -0.5797
16605TIP3   OH271305   0.990   2.246  11.672  0.0891 -0.3353  0.4444
16605TIP3    H171306   0.930   2.313  11.704 -1.5041 -0.1755 -2.6621
16605TIP3    H271307   1.073   2.292  11.659 -0.3453  0.4847  0.5289
16606TIP3   OH271308   1.804   6.560   3.006  0.1830  0.4894  0.0615
16606TIP3    H171309   1.877   6.621   2.992 -1.0071  2.2264  1.2079
16606TIP3    H271310   1.727   6.609   2.978 -0.7873 -0.5633  0.8752
16607TIP3   OH271311   1.306   3.165  14.218  0.3925 -0.1353 -0.2736
16607TIP3    H171312   1.250   3.243  14.225  0.0494 -0.4612  0.7161
16607TIP3    H271313   1.324   3.157  14.124  0.8679  1.4365 -0.3276
16608TIP3   OH271314   1.492   0.109  15.633  0.3168  0.2096  0.5511
16608TIP3    H171315   1.406   0.111  15.675  1.0996  1.4223  2.1374
16608TIP3    H271316   1.518   0.200  15.626  0.8248 -0.0560 -1.3540
16609TIP3   OH271317   1.985   4.461  13.942  0.9491  0.1615 -1.0887
16609TIP3    H171318   1.947   4.378  13.914  1.3118 -0.6530  0.8002
16609TIP3    H271319   2.064   4.470  13.889  0.8439 -0.6364 -1.3798
16610TIP3   OH271320   2.233   3.649   4.419  0.1030  0.0210 -0.2647
16610TIP3    H171321   2.174   3.685   4.485 -2.4785 -1.7944 -1.5526
16610TIP3    H271322   2.293   3.593   4.468  0.6675  1.6937  1.0134
16611TIP3   OH271323   0.932   1.065  11.989  0.1528  0.2856  0.2020
16611TIP3    H171324   0.880   0.985  11.991  0.1208  0.2732 -0.6741
16611TIP3    H271325   0.945   1.088  12.081  0.6751 -1.0620  0.4745
16612TIP3   OH271326   3.360   3.973  10.520  0.0562  0.3546 -0.3254
16612TIP3    H171327   3.417   4.050  10.515  0.1206  0.3100 -0.2745
16612TIP3    H271328   3.303   3.981  10.444 -2.0035  2.0775  1.3552
16613TIP3   OH271329   1.165   5.165  11.366 -0.8600 -0.0975 -0.1613
16613TIP3    H171330   1.115   5.105  11.422 -1.2892 -0.2784 -0.7350
16613TIP3    H271331   1.132   5.149  11.278  1.3362 -1.3451 -0.7885
16614TIP3   OH271332   5.848   4.828  11.947 -0.0993  0.1548  0.1361
16614TIP3    H171333   5.895   4.908  11.924  1.8582 -0.2764  2.4433
16614TIP3    H271334   5.916   4.770  11.982 -1.8569 -1.6671  0.5832
16615TIP3   OH271335   6.652   5.592   4.728 -0.4150  0.1026  0.4933
16615TIP3    H171336   6.665   5.686   4.745 -0.0972  0.0938  0.2852
16615TIP3    H271337   6.557   5.581   4.731 -0.4505  0.4192  0.5868
16616TIP3   OH271338   4.323   6.305   4.192 -0.3368 -0.4864  0.1928
16616TIP3    H171339   4.234   6.337   4.205 -0.3602 -0.1189 -0.8730
16616TIP3    H271340   4.353   6.282   4.280 -1.0627  0.4974  0.7069
16617TIP3   OH271341   0.119   2.693   5.382 -0.2473  0.1235 -0.8368
16617TIP3    H171342   0.103   2.780   5.418  0.6549 -0.0827  0.0820
16617TIP3    H271343   0.186   2.655   5.438 -0.3799 -1.0416 -1.4356
16618TIP3   OH271344   6.233   6.607  13.100 -0.5273  0.9415 -0.1461
16618TIP3    H171345   6.268   6.591  13.013 -2.4831  0.6655 -0.9003
16618TIP3    H271346   6.213   6.519  13.134  1.0615  0.9848  0.9500
16619TIP3   OH271347   3.388   5.509  16.051  0.0820 -0.2037 -0.0098
16619TIP3    H171348   3.442   5.431  16.060  1.4510  0.9694  2.3703
16619TIP3    H271349   3.298   5.478  16.063  0.6980 -1.2398  2.0230
16620TIP3   OH271350   1.534   3.593  13.535  0.3390  0.1079 -0.0969
16620TIP3    H171351   1.511   3.499  13.535 -1.8106  0.5890  0.8557
16620TIP3    H271352   1.512   3.622  13.623 -1.2741  2.0219 -1.1053
16621TIP3   OH271353   1.085   2.850  16.175 -0.6725  0.1809  0.2586
16621TIP3    H171354   1.161   2.880  16.224 -0.4928  0.7858 -0.3964
16621TIP3    H271355   1.048   2.929  16.136 -2.0984  0.0114  1.2109
16622TIP3   OH271356   5.521   6.330   1.029 -0.4936 -0.1864  0.0942
16622TIP3    H171357   5.526   6.420   0.997  1.0959 -0.0276  0.7477
16622TIP3    H271358   5.482   6.337   1.116  2.6508  0.2475  1.5228
16623TIP3   OH271359   3.457   5.573   0.812 -0.1962 -0.2812  0.0716
16623TIP3    H171360   3.407   5.647   0.777  0.8795  0.2207 -0.4275
16623TIP3    H271361   3.435   5.571   0.905  2.5751  2.9912  0.8799
16624TIP3   OH271362   0.660   0.391  12.575 -0.1591  0.0549  0.5596
16624TIP3    H171363   0.644   0.331  12.647  0.2410 -2.4784 -1.3817
16624TIP3    H271364   0.573   0.424  12.551 -0.7779 -2.0544 -0.2303
16625TIP3   OH271365   0.103   3.453   1.259  0.1715 -0.7146  0.0674
16625TIP3    H171366   0.122   3.361   1.238  2.1461 -0.1500 -0.7616
16625TIP3    H271367   0.036   3.478   1.195  0.3396 -1.3071 -0.3499
16626TIP3   OH271368   4.303   3.573   3.558 -0.1040  0.0396 -0.2471
16626TIP3    H171369   4.246   3.510   3.603 -0.7265 -0.5260 -1.8058
16626TIP3    H271370   4.354   3.521   3.497  0.1780  0.8983 -0.7575
16627TIP3   OH271371   2.481   3.348   5.145  0.2170 -0.5438  0.6123
16627TIP3    H171372   2.503   3.418   5.206  0.3571 -1.6351  1.8239
16627TIP3    H271373   2.399   3.312   5.178 -0.5425 -0.0781 -0.7665
16628TIP3   OH271374   6.565   1.520  14.073  0.3531 -0.9859  0.3768
16628TIP3    H171375   6.612   1.437  14.065 -0.4376 -1.3124 -1.2905
16628TIP3    H271376   6.474   1.499  14.049  0.0721  0.2857  0.2583
16629TIP3   OH271377   4.321   0.542  15.925  0.0368 -0.5033  0.1219
16629TIP3    H171378   4.346   0.602  15.855  0.3131 -0.2271  0.4530
16629TIP3    H271379   4.232   0.568  15.948  0.6309  0.6399  1.1578
16630TIP3   OH271380   2.678   3.516   3.180  0.6661  0.2044 -0.0997
16630TIP3    H171381   2.751   3.560   3.136  1.5320  0.1773  1.2887
16630TIP3    H271382   2.605   3.578   3.173  1.0388  0.5721 -0.7947
16631TIP3   OH271383   1.903   3.208  17.078  0.1754 -0.0411 -0.2909
16631TIP3    H171384   1.846   3.168  17.012 -1.3178  2.5969 -0.6837
16631TIP3    H271385   1.844   3.231  17.150  1.1285  0.6974  0.2682
16632TIP3   OH271386   3.488   0.399  12.496  0.6463 -0.3373 -0.1625
16632TIP3    H171387   3.520   0.474  12.547  1.6048 -0.3271 -0.7695
16632TIP3    H271388   3.528   0.323  12.538 -0.6798 -0.5610  0.7255
16633TIP3   OH271389   0.402   2.959   2.214 -0.9604  0.0807  0.1906
16633TIP3    H171390   0.407   3.044   2.257 -0.0460 -0.1995  0.6468
16633TIP3    H271391   0.481   2.913   2.242 -0.3476 -0.1071 -1.8142
16634TIP3   OH271392   6.514   3.932  14.799  0.0494  0.4596 -0.2294
16634TIP3    H171393   6.604   3.950  14.772 -0.8509 -0.1604 -3.9521
16634TIP3    H271394   6.519   3.847  14.842  1.5677  1.5069  1.7820
16635TIP3   OH271395   1.477   3.730  13.313  0.0674  0.1408  0.2116
16635TIP3    H171396   1.462   3.652  13.260 -1.9794 -0.0832  1.0743
16635TIP3    H271397   1.483   3.698  13.403 -1.2445  1.0038  0.6224
16636TIP3   OH271398   6.015   6.242  14.533 -0.6268  0.7576 -0.1307
16636TIP3    H171399   6.018   6.314  14.595 -0.8310 -0.3493  1.2016
16636TIP3    H271400   5.925   6.210  14.537 -0.0664 -0.7708  0.7115
16637TIP3   OH271401   6.545   1.901  13.778 -0.0569  0.7720  0.4239
16637TIP3    H171402   6.621   1.882  13.832 -1.3804 -0.1493  2.0179
16637TIP3    H271403   6.502   1.975  13.820 -0.5154  0.7316  0.0429
16638TIP3   OH271404   0.058   5.012   3.866 -0.8117 -0.7640 -0.3950
16638TIP3    H171405   0.012   5.089   3.898  2.7472  1.7256 -0.9735
16638TIP3    H271406   0.016   4.991   3.783 -0.8747  1.4843 -0.9520
16639TIP3   OH271407   4.496   0.628   2.341  0.0792  0.1149  0.6262
16639TIP3    H171408   4.424   0.624   2.404 -0.5750 -2.9895 -0.2417
16639TIP3    H271409   4.575   0.620   2.393 -0.3569  0.1451  1.2941
16640TIP3   OH271410   1.291   4.011  16.278  0.1159  0.4440 -0.5411
16640TIP3    H171411   1.203   3.987  16.251  0.3773 -0.7610 -0.3191
16640TIP3    H271412   1.278   4.077  16.347 -0.5686  2.2873 -2.3853
16641TIP3   OH271413   4.098   5.723   3.746  0.0495 -0.3322  0.4347
16641TIP3    H171414   4.096   5.697   3.838  1.6858 -0.5115  0.4465
16641TIP3    H271415   4.113   5.817   3.748  1.5875 -0.5641  0.3577
16642TIP3   OH271416   2.375   0.710   4.628 -0.0298  0.3016 -0.1396
16642TIP3    H171417   2.441   0.751   4.571 -1.8105  0.7153 -1.9750
16642TIP3    H271418   2.393   0.746   4.715  2.4020  0.1004 -0.5154
16643TIP3   OH271419   2.823   4.424   3.834 -0.4023  0.3840  0.2806
16643TIP3    H171420   2.773   4.466   3.764  2.3245 -0.2165 -2.0989
16643TIP3    H271421   2.895   4.485   3.852  0.2861 -0.5953  0.8864
16644TIP3   OH271422   2.538   5.994  12.642  0.1387 -0.8717 -0.1030
16644TIP3    H171423   2.452   6.020  12.676 -0.3795 -0.7755 -1.4380
16644TIP3    H271424   2.538   6.027  12.551  1.6625 -0.6951 -0.0430
16645TIP3   OH271425   5.015   6.627  12.398  0.1909  0.7628 -0.1453
16645TIP3    H171426   5.039   6.582  12.478 -0.5468 -1.2121 -1.0012
16645TIP3    H271427   4.927   6.661  12.415 -0.7187 -1.2323 -0.7248
16646TIP3   OH271428   4.907   1.190  10.764 -0.0368 -0.6882  0.1158
16646TIP3    H171429   4.942   1.251  10.698 -0.3557 -1.0109 -0.3594
16646TIP3    H271430   4.900   1.107  10.717 -0.0358 -0.9787  0.6337
16647TIP3   OH271431   4.505   4.358   2.306 -0.4325 -0.3372  0.0084
16647TIP3    H171432   4.433   4.316   2.353  0.3484 -3.7518 -1.7131
16647TIP3    H271433   4.482   4.348   2.213  1.7777 -0.6701 -0.5298
16648TIP3   OH271434   0.261   3.742   1.254 -0.5496  0.2598 -0.2972
16648TIP3    H171435   0.352   3.754   1.283 -0.5542  2.9423 -1.2056
16648TIP3    H271436   0.253   3.648   1.238  2.0914 -0.0109 -0.2948
16649TIP3   OH271437   1.401   0.954  11.830  0.9614 -0.2268  0.0358
16649TIP3    H171438   1.345   0.933  11.756  3.0836 -1.9846 -1.1364
16649TIP3    H271439   1.460   1.022  11.797 -0.5979  1.8255  1.3490
16650TIP3   OH271440   3.397   4.276   2.295  0.4620  0.2864 -0.0456
16650TIP3    H171441   3.358   4.243   2.215  2.7323 -2.3032 -0.1592
16650TIP3    H271442   3.409   4.370   2.279 -0.6659  0.1095 -2.0675
16651TIP3   OH271443   0.437   5.137   3.373 -0.3271  0.0683  0.1537
16651TIP3    H171444   0.451   5.221   3.329  1.2586 -0.7890 -1.0305
16651TIP3    H271445   0.518   5.121   3.421  0.0745 -1.5824 -1.0182
16652TIP3   OH271446   2.657   0.256  10.744 -0.5437 -0.3783 -0.3000
16652TIP3    H171447   2.593   0.255  10.673  0.1222 -1.9910 -0.8983
16652TIP3    H271448   2.685   0.348  10.750 -1.3886 -0.0428 -1.4062
16653TIP3   OH271449   1.076   0.477  10.640 -0.3586  0.2935 -0.0942
16653TIP3    H171450   1.033   0.392  10.650  1.2487 -0.3884  1.3039
16653TIP3    H271451   1.121   0.471  10.555 -1.8829  0.5016 -0.9231
16654TIP3   OH271452   0.874   3.454  12.591 -0.1841  0.2367 -0.2934
16654TIP3    H171453   0.822   3.444  12.671 -0.7241  2.2243 -0.3429
16654TIP3    H271454   0.834   3.394  12.528 -1.7196  0.8753  0.0372
16655TIP3   OH271455   5.415   1.909   4.318 -0.1582 -0.4179  0.0640
16655TIP3    H171456   5.446   1.840   4.377  1.4177 -0.7015 -1.0390
16655TIP3    H271457   5.461   1.891   4.236 -1.1280  0.8856 -0.7739
16656TIP3   OH271458   4.171   3.207  15.318  0.1552 -0.0880 -0.5603
16656TIP3    H171459   4.140   3.122  15.348  0.0914  0.7654  1.8592
16656TIP3    H271460   4.102   3.238  15.260 -1.0235 -0.5584  0.5725
16657TIP3   OH271461   5.958   4.121  15.166 -0.2259  0.6795  0.7277
16657TIP3    H171462   5.918   4.145  15.083  0.3032  1.2336  0.6313
16657TIP3    H271463   6.026   4.058  15.142  2.7052  3.8830  0.2515
16658TIP3   OH271464   4.315   5.371  15.998  0.0472  0.1922 -0.0722
16658TIP3    H171465   4.392   5.424  15.975 -2.1994  4.0726  0.8191
16658TIP3    H271466   4.241   5.420  15.963 -2.3438 -1.2154  2.7902
16659TIP3   OH271467   4.133   6.222  12.705 -0.4756  0.7882  0.3822
16659TIP3    H171468   4.055   6.274  12.683 -0.8190  1.0527  2.1431
16659TIP3    H271469   4.104   6.131  12.699  0.2737  0.7163 -3.2599
16660TIP3   OH271470   0.996   4.020   2.920 -0.4037 -0.9694  0.0592
16660TIP3    H171471   0.967   4.032   3.011 -1.0059  0.7201 -0.3355
16660TIP3    H271472   0.942   3.948   2.887 -0.4356 -1.3519  0.9343
16661TIP3   OH271473   5.886   1.972  14.087  0.6907  0.1358 -0.0038
16661TIP3    H171474   5.956   1.914  14.056 -0.8221 -0.8001 -1.7195
16661TIP3    H271475   5.831   1.987  14.010 -0.8760  1.0550  1.2673
16662TIP3   OH271476   0.950   1.218   3.760 -0.1423 -0.6901  0.5108
16662TIP3    H171477   0.919   1.261   3.839  0.1546  0.4718 -0.0007
16662TIP3    H271478   0.885   1.150   3.743 -0.4168 -0.6833  1.5282
16663TIP3   OH271479   5.807   4.481   5.794  0.8150 -0.4356  0.1823
16663TIP3    H171480   5.877   4.416   5.787  0.5334 -0.8025  0.7982
16663TIP3    H271481   5.771   4.469   5.882  0.2312  0.0121  0.0076
16664TIP3   OH271482   5.919   0.081  15.705  0.2579 -0.0725  0.0328
16664TIP3    H171483   5.969   0.008  15.743 -0.6437  0.0006  1.3751
16664TIP3    H271484   5.924   0.066  15.611  3.1647  0.1769  0.1107
16665TIP3   OH271485   5.458   5.620   3.525 -0.4757 -0.5113 -0.5100
16665TIP3    H171486   5.541   5.667   3.517  0.4063 -2.0745 -0.7082
16665TIP3    H271487   5.472   5.561   3.599 -1.8044  0.0002  0.1534
16666TIP3   OH271488   3.439   3.746   4.809 -0.7109 -0.5942 -0.0834
16666TIP3    H171489   3.462   3.713   4.723  0.1869  0.9916 -0.4771
16666TIP3    H271490   3.348   3.773   4.801 -0.9237 -1.3571 -0.2493
16667TIP3   OH271491   2.550   1.660  15.686 -0.2271  0.2103  0.5310
16667TIP3    H171492   2.589   1.639  15.601  0.4591  1.5404  0.5028
16667TIP3    H271493   2.584   1.593  15.746  0.9472  0.4922  0.1944
16668TIP3   OH271494   1.062   4.978  12.677  0.3653  0.2523  0.0690
16668TIP3    H171495   0.975   4.972  12.637 -0.7432  0.6455  2.3193
16668TIP3    H271496   1.065   5.066  12.714  1.1260 -0.2682  1.2798
16669TIP3   OH271497   3.724   2.961  15.122 -0.3247  0.4132  0.5704
16669TIP3    H171498   3.713   3.029  15.055  0.0749 -0.3520 -0.2744
16669TIP3    H271499   3.705   2.879  15.077  1.6025 -0.2733  0.9520
16670TIP3   OH271500   4.701   3.516   5.546  0.2445  0.4964 -0.1562
16670TIP3    H171501   4.715   3.441   5.604 -0.9692  0.6363  0.3419
16670TIP3    H271502   4.735   3.487   5.461 -0.4396 -0.7148 -0.0337
16671TIP3   OH271503   4.231   3.697   4.291  0.0127  0.1374  0.1275
16671TIP3    H171504   4.213   3.705   4.384  2.0653 -2.7767  0.8389
16671TIP3    H271505   4.322   3.725   4.282  0.1395 -0.5571 -0.8213
16672TIP3   OH271506   1.555   4.502  11.859  0.4127 -0.5745 -0.4528
16672TIP3    H171507   1.516   4.425  11.901 -0.3040 -0.2685 -0.5446
16672TIP3    H271508   1.588   4.470  11.776 -0.8230 -0.5707 -0.9512
16673TIP3   OH271509   6.200   5.469  16.776 -0.3292  0.0138  0.5700
16673TIP3    H171510   6.174   5.400  16.714 -0.3462  0.0308  0.5578
16673TIP3    H271511   6.293   5.481  16.760 -0.4815  0.5208  0.0485
16674TIP3   OH271512   2.988   4.378  16.238  0.3419  0.1351  0.3331
16674TIP3    H171513   2.938   4.381  16.319  1.5097  1.5877  1.0354
16674TIP3    H271514   3.014   4.286  16.228  0.9375  0.1043  2.0879
16675TIP3   OH271515   2.534   2.449   1.951 -0.1461 -0.2620  0.4273
16675TIP3    H171516   2.612   2.393   1.943  0.5464  1.0057 -2.1076
16675TIP3    H271517   2.544   2.490   2.037  1.3945 -0.9748  0.6227
16676TIP3   OH271518   4.110   6.519  16.525 -0.2191  0.0101 -0.2362
16676TIP3    H171519   4.201   6.496  16.507 -0.2146  0.3027 -0.5952
16676TIP3    H271520   4.116   6.600  16.575 -0.3033  0.4111 -0.8737
16677TIP3   OH271521   1.830   1.772   2.886 -0.1628 -0.2516  0.0239
16677TIP3    H171522   1.876   1.845   2.846  0.8117  0.6721  2.6952
16677TIP3    H271523   1.738   1.797   2.885 -0.1513 -0.2583 -1.6066
16678TIP3   OH271524   0.263   2.842   5.761  0.2520  0.3728  0.1758
16678TIP3    H171525   0.266   2.933   5.734 -1.7584  0.1088 -1.0710
16678TIP3    H271526   0.329   2.798   5.707 -0.8435  0.5931 -1.3878
16679TIP3   OH271527   4.116   1.951  16.169  0.8921 -0.6360 -0.7355
16679TIP3    H171528   4.113   1.855  16.179 -0.7830 -0.5873 -0.7071
16679TIP3    H271529   4.077   1.967  16.083 -1.2960  0.2024  0.3852
16680TIP3   OH271530   1.964   4.846  15.593 -0.1374 -0.1893 -0.2892
16680TIP3    H171531   1.914   4.784  15.539  1.3197 -2.0913  0.4827
16680TIP3    H271532   1.934   4.932  15.564 -2.6331 -1.2469 -1.0031
16681TIP3   OH271533   5.657   2.993  15.821 -0.1917 -0.2333 -0.2815
16681TIP3    H171534   5.708   2.922  15.780  1.0116  0.2387  0.3730
16681TIP3    H271535   5.640   3.054  15.749 -0.3382 -0.6690 -0.6272
16682TIP3   OH271536   4.950   0.474   5.015 -0.3542 -0.3638  0.5697
16682TIP3    H171537   4.878   0.500   5.074 -1.5469  0.3295 -1.1522
16682TIP3    H271538   4.942   0.379   5.009  0.0735 -0.4900  1.9037
16683TIP3   OH271539   5.187   0.726   1.426 -0.4766 -0.1403 -0.3549
16683TIP3    H171540   5.208   0.742   1.518 -0.4758 -0.7668 -0.2450
16683TIP3    H271541   5.256   0.771   1.377 -0.7403  0.5925 -0.0651
16684TIP3   OH271542   6.048   0.319   3.420  0.1900  0.2865  0.2722
16684TIP3    H171543   5.959   0.326   3.455 -0.6579 -0.1938 -1.7101
16684TIP3    H271544   6.105   0.337   3.495 -1.5313 -2.0101  2.2305
16685TIP3   OH271545   6.014   3.921  12.788 -0.0115 -0.7131  0.0573
16685TIP3    H171546   5.955   3.902  12.861 -0.3489 -0.3433 -0.1159
16685TIP3    H271547   6.059   3.838  12.771 -2.1161 -1.6273 -1.2804
16686TIP3   OH271548   0.654   4.414  12.074 -0.6497  0.3624  0.4643
16686TIP3    H171549   0.638   4.319  12.078 -0.9761  0.2867 -2.0405
16686TIP3    H271550   0.743   4.424  12.108  0.1324 -1.0846 -1.1060
16687TIP3   OH271551   5.288   0.081   2.538  0.5076  0.0598  0.0051
16687TIP3    H171552   5.307   0.174   2.534 -1.7065  0.5378  0.0912
16687TIP3    H271553   5.293   0.051   2.447  0.7285  0.3549 -0.0800
16688TIP3   OH271554   1.783   2.048   4.055  0.0961  0.1442  0.1567
16688TIP3    H171555   1.749   1.979   3.998 -1.2732  0.3106  0.7431
16688TIP3    H271556   1.766   2.129   4.007  1.9746  0.0589 -0.6630
16689TIP3   OH271557   5.990   3.990  14.200 -0.6992  0.0549 -0.1915
16689TIP3    H171558   6.010   3.907  14.158  0.8079  0.1876  0.2323
16689TIP3    H271559   5.932   3.967  14.273  0.1144 -0.6961  0.2293
16690TIP3   OH271560   1.052   4.272  12.408  0.0874  0.1960  0.2515
16690TIP3    H171561   1.104   4.351  12.424 -0.3153  0.7978 -1.2912
16690TIP3    H271562   1.011   4.252  12.492 -1.2072  2.6476  0.2324
16691TIP3   OH271563   2.970   4.185  15.339  0.4305 -0.2991 -0.3881
16691TIP3    H171564   3.046   4.209  15.391  0.3094  0.4174 -0.5407
16691TIP3    H271565   2.985   4.226  15.254  0.0220 -0.4123 -0.5173
16692TIP3   OH271566   2.293   4.912   6.212 -0.0667 -0.1241 -0.0051
16692TIP3    H171567   2.202   4.895   6.237 -0.2072  0.4361 -0.1275
16692TIP3    H271568   2.301   5.008   6.214  1.7637 -0.2701  4.4237
16693TIP3   OH271569   2.451   0.984   1.432 -0.4478 -0.3760  0.5614
16693TIP3    H171570   2.455   1.053   1.366 -1.3459  0.8567  1.7837
16693TIP3    H271571   2.391   0.919   1.394 -2.5280  1.2410  0.9570
16694TIP3   OH271572   2.871   1.202   1.122 -0.4716 -0.0342 -0.3913
16694TIP3    H171573   2.921   1.218   1.202 -1.8585  0.3696  0.4111
16694TIP3    H271574   2.869   1.286   1.077  0.6761 -0.3625 -1.0835
16695TIP3   OH271575   4.178   2.234  16.098 -0.0501 -0.2292 -0.8501
16695TIP3    H171576   4.144   2.145  16.102  1.9574 -1.0023 -0.8056
16695TIP3    H271577   4.142   2.271  16.017 -0.5449 -1.2003 -1.0731
16696TIP3   OH271578   3.557   3.640  14.440 -0.2618 -0.3173 -0.2343
16696TIP3    H171579   3.624   3.588  14.483 -0.8783 -0.5479  0.4734
16696TIP3    H271580   3.575   3.730  14.467 -0.2490 -0.3831 -0.0205
16697TIP3   OH271581   4.410   5.337  12.527 -0.0745 -0.3624 -0.0342
16697TIP3    H171582   4.369   5.334  12.613  0.1749  1.0911  0.1448
16697TIP3    H271583   4.372   5.414  12.485  1.2908  0.0968 -0.4568
16698TIP3   OH271584   3.296   0.914   1.801  0.3079 -0.3079 -0.4699
16698TIP3    H171585   3.380   0.948   1.771  1.4842 -0.7637  2.1496
16698TIP3    H271586   3.241   0.991   1.811  1.7662  0.4992  1.8008
16699TIP3   OH271587   3.084   4.240   1.032 -0.6207  0.3229 -0.3474
16699TIP3    H171588   3.146   4.211   0.965  0.4345 -0.6677  1.0235
16699TIP3    H271589   3.050   4.160   1.071  0.1708  0.8540  1.5317
16700TIP3   OH271590   2.825   1.242   1.770 -0.0409  0.1529  0.0901
16700TIP3    H171591   2.850   1.285   1.852  0.7783  0.2706 -0.2207
16700TIP3    H271592   2.861   1.298   1.701  2.3458 -1.8085 -0.3117
16701TIP3   OH271593   3.506   1.635   3.260  0.1160 -0.0078  0.0110
16701TIP3    H171594   3.451   1.581   3.203 -1.6654  0.9945  0.7183
16701TIP3    H271595   3.515   1.583   3.340 -0.3734  0.1166  0.1469
16702TIP3   OH271596   1.830   1.709   1.631 -0.2594 -0.1607  0.0580
16702TIP3    H171597   1.796   1.746   1.712 -0.2696  1.4073 -0.6415
16702TIP3    H271598   1.926   1.714   1.641 -0.2625  0.3830 -0.1822
16703TIP3   OH271599   5.623   3.472  16.325  0.0907 -0.3037  0.0907
16703TIP3    H171600   5.642   3.459  16.418  0.0514  0.0473  0.1518
16703TIP3    H271601   5.617   3.567  16.316  0.1308 -0.3374 -0.2768
16704TIP3   OH271602   0.184   2.016  16.456  0.3681  0.0661 -0.0046
16704TIP3    H171603   0.146   2.012  16.543 -1.6140 -0.1301 -0.8597
16704TIP3    H271604   0.249   2.086  16.461  0.2067  0.1112  1.5955
16705TIP3   OH271605   2.946   5.670  12.037 -0.3314  0.4265 -0.5915
16705TIP3    H171606   2.896   5.751  12.021  0.1261  1.1371  1.4415
16705TIP3    H271607   2.909   5.635  12.118  2.1535  0.7378  0.7125
16706TIP3   OH271608   4.252   3.904   3.148 -0.6354 -0.0372  0.0773
16706TIP3    H171609   4.159   3.886   3.137 -0.5183 -0.3115 -0.4769
16706TIP3    H271610   4.266   3.986   3.100 -0.3472 -0.6374 -0.8496
16707TIP3   OH271611   4.667   3.498  13.278 -0.1280  0.8696  0.0617
16707TIP3    H171612   4.640   3.590  13.278 -0.7984  0.7115  2.8180
16707TIP3    H271613   4.600   3.453  13.227 -0.0507  1.8129 -0.9053
16708TIP3   OH271614   4.627   1.312  13.436 -0.4042  0.2499 -0.2625
16708TIP3    H171615   4.636   1.243  13.370  0.3155  1.4052 -1.4038
16708TIP3    H271616   4.533   1.327  13.443 -0.5372 -0.5395 -0.3268
16709TIP3   OH271617   0.922   4.472   6.668 -0.0700  0.2614 -0.0264
16709TIP3    H171618   0.882   4.505   6.748 -0.5981  0.4362 -0.3647
16709TIP3    H271619   1.015   4.495   6.677 -0.4947  2.1995 -0.4423
16710TIP3   OH271620   4.098   6.388   5.901 -0.0405 -0.3288 -0.4307
16710TIP3    H171621   4.158   6.423   5.967 -2.0545 -0.6655  1.6374
16710TIP3    H271622   4.095   6.455   5.833  0.1241  1.1983  1.0309
16711TIP3   OH271623   3.319   2.383  13.055 -0.3205  0.2950  0.4804
16711TIP3    H171624   3.330   2.478  13.054  0.1710  0.2510 -1.2729
16711TIP3    H271625   3.406   2.349  13.076 -0.2599  0.2156  0.1024
16712TIP3   OH271626   1.394   2.236  11.231 -0.2192 -0.0311 -0.1133
16712TIP3    H171627   1.411   2.156  11.280  0.7678  0.4761  0.3868
16712TIP3    H271628   1.447   2.228  11.152  0.1649  0.2803  0.1086
16713TIP3   OH271629   3.825   5.071   1.716  0.3760  0.2707 -0.5813
16713TIP3    H171630   3.730   5.065   1.725  0.3310  0.6628 -0.8070
16713TIP3    H271631   3.842   5.163   1.694  0.7072 -0.0693 -1.8017
16714TIP3   OH271632   4.963   5.059   1.815 -0.2799 -0.2831  0.6161
16714TIP3    H171633   4.930   5.009   1.740 -0.4436 -1.9865  1.7912
16714TIP3    H271634   4.890   5.117   1.838 -0.5764 -0.4262  0.0525
16715TIP3   OH271635   1.445   1.825   3.676 -0.0071 -0.5649  0.4818
16715TIP3    H171636   1.534   1.803   3.705 -0.3202 -1.4700  0.7664
16715TIP3    H271637   1.445   1.808   3.582  0.3584  0.2474  0.3233
16716TIP3   OH271638   3.753   0.018  10.756  0.4352  0.1959 -0.0932
16716TIP3    H171639   3.779   0.022  10.664  0.3581 -1.1266 -0.1802
16716TIP3    H271640   3.763   0.108  10.788  0.9889  0.5497 -1.2438
16717TIP3   OH271641   5.242   0.890  16.199  0.0070  0.0570  0.6038
16717TIP3    H171642   5.264   0.797  16.193 -0.7001 -0.1638  1.3647
16717TIP3    H271643   5.146   0.892  16.197  0.0388  0.8602 -0.6211
16718TIP3   OH271644   4.077   0.125   1.959 -0.7531 -0.2053 -0.1923
16718TIP3    H171645   4.145   0.165   1.904 -0.1997 -1.4668 -0.4563
16718TIP3    H271646   4.073   0.179   2.037  1.1400 -0.5886  0.1829
16719TIP3   OH271647   1.084   5.697  13.379  0.1709 -0.3989 -0.4787
16719TIP3    H171648   1.001   5.649  13.391  0.8645 -1.5345 -0.1016
16719TIP3    H271649   1.116   5.668  13.293  0.7318 -0.8401 -0.1272
16720TIP3   OH271650   6.644   4.909  11.861  0.1297 -0.5329 -0.5209
16720TIP3    H171651   6.723   4.902  11.808  0.6910  1.0293  0.0572
16720TIP3    H271652   6.582   4.850  11.820  1.5205 -1.5926 -1.1386
16721TIP3   OH271653   5.490   2.156   6.058  0.4180  0.1299 -0.3772
16721TIP3    H171654   5.428   2.122   6.123 -0.5420  2.4855 -0.0230
16721TIP3    H271655   5.576   2.140   6.096 -0.0984  0.3156  0.8714
16722TIP3   OH271656   2.626   0.112   2.346 -0.6342 -0.3299  0.0849
16722TIP3    H171657   2.613   0.019   2.362  0.7288 -0.2851  1.4458
16722TIP3    H271658   2.636   0.118   2.251 -2.3431 -1.3556 -0.1877
16723TIP3   OH271659   5.363   6.809  11.440 -0.5525  0.2861 -0.0515
16723TIP3    H171660   5.429   6.842  11.378 -2.3552  1.4268 -1.4107
16723TIP3    H271661   5.391   6.843  11.525  1.8712 -1.1688 -0.2107
16724TIP3   OH271662   6.029   3.646  15.629 -0.2765 -0.0759 -0.9827
16724TIP3    H171663   6.024   3.721  15.569  0.8581  1.1233  0.3630
16724TIP3    H271664   5.978   3.673  15.706 -1.0086 -1.2510 -1.0448
16725TIP3   OH271665   4.932   3.625  12.693  0.2421 -0.0448 -0.4206
16725TIP3    H171666   4.903   3.543  12.653  0.7352 -0.0819 -0.7106
16725TIP3    H271667   5.019   3.605  12.729 -0.3463 -0.1044  0.9880
16726TIP3   OH271668   6.615   5.311   4.788  0.2330 -0.1106  0.0683
16726TIP3    H171669   6.630   5.395   4.745 -0.6752  0.9615  1.7992
16726TIP3    H271670   6.680   5.307   4.858  0.1971 -0.8039  0.0663
16727TIP3   OH271671   3.738   3.021   3.035  0.0132  0.1493  0.5414
16727TIP3    H171672   3.674   3.062   3.094 -0.0074  3.4989 -1.6986
16727TIP3    H271673   3.823   3.041   3.074 -0.0313  1.8063 -0.1703
16728TIP3   OH271674   0.072   3.012   2.272  0.1450  0.1539  0.0551
16728TIP3    H171675   0.115   2.929   2.255  1.5840  0.2274  3.0270
16728TIP3    H271676   0.137   3.078   2.246  0.4962  0.2952  1.2675
16729TIP3   OH271677   2.701   6.713   4.236  0.1919  0.5184 -0.7421
16729TIP3    H171678   2.651   6.632   4.241 -2.5177  2.1092 -0.8252
16729TIP3    H271679   2.700   6.746   4.326  2.0253  0.0536 -0.5386
16730TIP3   OH271680   5.933   3.088  16.963  0.5257 -0.1353  0.1564
16730TIP3    H171681   5.919   2.998  16.993  1.6704 -0.3871 -0.0445
16730TIP3    H271682   5.932   3.140  17.043  0.3783 -0.3977  0.3261
16731TIP3   OH271683   4.725   0.806   1.736 -0.3946  0.1426  0.4399
16731TIP3    H171684   4.720   0.873   1.667  0.1314  0.2368  0.4883
16731TIP3    H271685   4.685   0.729   1.696  4.3407 -1.3397 -1.8644
16732TIP3   OH271686   5.300   1.862   0.745 -0.4352  0.0539  0.2745
16732TIP3    H171687   5.307   1.810   0.825 -0.7108  0.3326  0.4803
16732TIP3    H271688   5.205   1.871   0.731 -0.3867  0.1736  0.0269
16733TIP3   OH271689   0.850   3.354   5.979 -0.1732  0.1422  0.4755
16733TIP3    H171690   0.895   3.286   6.029 -0.1589  1.0354  1.7247
16733TIP3    H271691   0.798   3.401   6.045 -1.1766  0.5255 -0.5769
16734TIP3   OH271692   2.683   1.234  16.542 -0.1813 -0.7951  0.2592
16734TIP3    H171693   2.709   1.187  16.621  0.1486  0.1844  0.7459
16734TIP3    H271694   2.621   1.300  16.573  1.8336  1.2173  0.0798
16735TIP3   OH271695   5.252   2.615   5.792 -0.6257 -0.2412 -0.3712
16735TIP3    H171696   5.221   2.590   5.705 -2.0453  1.4024 -0.3439
16735TIP3    H271697   5.327   2.673   5.775 -2.1817  1.7554 -0.5526
16736TIP3   OH271698   0.597   6.584  13.872  0.4094  0.7059  0.2439
16736TIP3    H171699   0.502   6.584  13.865  0.4475  1.1096 -0.3091
16736TIP3    H271700   0.627   6.602  13.783  1.0448 -2.2168 -0.2018
16737TIP3   OH271701   6.662   6.105  12.494  0.2364  0.1909  0.2219
16737TIP3    H171702   6.592   6.116  12.430  0.3387  2.2445  0.4295
16737TIP3    H271703   6.678   6.011  12.497 -2.4103 -0.2798  0.0735
16738TIP3   OH271704   4.658   3.940  14.407 -0.0810 -0.1748  0.0223
16738TIP3    H171705   4.568   3.955  14.435 -0.8490 -1.6270 -1.5590
16738TIP3    H271706   4.688   3.868  14.463  0.2604  0.6024  0.8515
16739TIP3   OH271707   2.226   6.535   6.414 -0.3802 -0.3051 -0.1773
16739TIP3    H171708   2.169   6.583   6.474 -1.7802 -0.9269 -0.9811
16739TIP3    H271709   2.193   6.445   6.417  1.6141 -1.0432  0.5866
16740TIP3   OH271710   5.677   0.806   3.456  0.4632 -0.1154  0.1640
16740TIP3    H171711   5.590   0.770   3.444  0.8233 -1.4059  1.3190
16740TIP3    H271712   5.665   0.881   3.514  0.0074  0.3128 -0.4748
16741TIP3   OH271713   4.183   0.601   1.228 -0.1444  0.2943 -0.1126
16741TIP3    H171714   4.132   0.673   1.266  1.0872  1.5845 -0.8569
16741TIP3    H271715   4.117   0.537   1.201 -1.3397  1.6724 -0.5498
16742TIP3   OH271716   4.745   0.963  11.295  0.2827  0.0380  0.0007
16742TIP3    H171717   4.662   0.943  11.253  0.3861 -1.4833  0.4957
16742TIP3    H271718   4.721   1.002  11.379  0.0300 -2.2153  1.0098
16743TIP3   OH271719   1.182   6.307  13.393  0.2717  0.0271  0.5060
16743TIP3    H171720   1.125   6.319  13.469  1.1120 -0.2268  1.1819
16743TIP3    H271721   1.259   6.362  13.412  0.2249  0.4148 -0.4269
16744TIP3   OH271722   1.391   2.818  14.798  0.7713  0.4892 -0.1092
16744TIP3    H171723   1.447   2.786  14.727  0.7039 -0.6946  0.3438
16744TIP3    H271724   1.312   2.849  14.754  0.7141 -0.2705 -0.5571
16745TIP3   OH271725   2.892   4.087   1.159  0.0470  0.2232 -0.5209
16745TIP3    H171726   2.801   4.097   1.188  0.2915  1.0859 -0.0464
16745TIP3    H271727   2.910   3.994   1.170 -1.1122 -0.1402 -1.5964
16746TIP3   OH271728   0.493   5.361   3.218  0.0902  0.1147  0.0476
16746TIP3    H171729   0.430   5.340   3.148  1.1587 -1.5925 -0.4246
16746TIP3    H271730   0.567   5.399   3.172  0.3504 -0.0140  0.3596
16747TIP3   OH271731   6.514   5.792   4.031 -0.4880  0.0564  0.3375
16747TIP3    H171732   6.571   5.810   4.106 -0.9934 -1.2731  1.0663
16747TIP3    H271733   6.561   5.827   3.956  0.0122  1.4634  1.2725
16748TIP3   OH271734   3.871   0.406  11.266 -0.1348  0.2028 -0.0432
16748TIP3    H171735   3.798   0.373  11.213 -1.4826 -0.6627  2.2656
16748TIP3    H271736   3.839   0.487  11.304  0.4322  0.2942  0.2466
16749TIP3   OH271737   6.243   6.399   3.856 -0.7724 -0.3832  0.1649
16749TIP3    H171738   6.300   6.348   3.914 -0.6335 -0.6103 -0.1697
16749TIP3    H271739   6.155   6.387   3.891 -0.6623 -0.3370  0.4626
16750TIP3   OH271740   1.814   6.771  16.537 -0.6399  0.0027 -0.0606
16750TIP3    H171741   1.906   6.794  16.549  0.1653 -1.9732 -2.0241
16750TIP3    H271742   1.795   6.795  16.446 -1.0750 -2.6769 -0.7181
16751TIP3   OH271743   0.841   6.403  12.679  0.2565 -0.2420  0.0086
16751TIP3    H171744   0.929   6.367  12.695 -0.1731 -1.6293 -0.6795
16751TIP3    H271745   0.794   6.388  12.762  1.0033  1.5748  0.7872
16752TIP3   OH271746   0.519   3.330   0.255 -0.2117  0.6996  0.7259
16752TIP3    H171747   0.613   3.308   0.260  0.0606  1.3825 -1.1686
16752TIP3    H271748   0.483   3.266   0.193 -0.9074  0.7940  1.0259
16753TIP3   OH271749   5.485   6.375   4.798 -0.3425 -0.4032 -0.8437
16753TIP3    H171750   5.549   6.304   4.799  1.2456  0.9928 -1.7321
16753TIP3    H271751   5.468   6.392   4.891  1.8010  0.2873 -0.5411
16754TIP3   OH271752   3.736   4.285  15.764 -0.0057  0.0586 -0.5303
16754TIP3    H171753   3.659   4.230  15.756  2.3197 -3.6646  1.3124
16754TIP3    H271754   3.740   4.308  15.856  0.1533  1.6964 -0.9331
16755TIP3   OH271755   1.063   4.324   3.831 -0.1871 -0.1353 -0.4772
16755TIP3    H171756   1.011   4.379   3.890  0.7844  0.3807 -0.0964
16755TIP3    H271757   1.144   4.309   3.878 -1.0267 -3.2073  0.1195
16756TIP3   OH271758   2.238   3.503   2.563 -0.0110  0.7886  0.8325
16756TIP3    H171759   2.247   3.467   2.651  1.0576  0.8578  0.7516
16756TIP3    H271760   2.206   3.592   2.576  0.2291  0.8267  1.1496
16757TIP3   OH271761   1.580   5.641   1.505 -0.2093  0.2129  0.1331
16757TIP3    H171762   1.669   5.651   1.473 -0.2965 -1.5325 -0.6984
16757TIP3    H271763   1.526   5.686   1.441 -0.0410  0.1570 -0.0459
16758TIP3   OH271764   3.951   5.816  15.433  0.4083  0.4680  0.0179
16758TIP3    H171765   4.006   5.747  15.471 -1.1895 -0.8864 -0.0613
16758TIP3    H271766   3.882   5.768  15.387  0.4695  2.1167 -1.8441
16759TIP3   OH271767   6.756   2.148   2.345  0.1324  0.2732  0.0630
16759TIP3    H171768   6.795   2.061   2.351  1.7932  1.0248  0.2730
16759TIP3    H271769   6.764   2.171   2.252 -1.3550 -0.2602 -0.2133
16760TIP3   OH271770   4.782   0.674   2.983  0.6705  0.0175 -0.3024
16760TIP3    H171771   4.803   0.707   2.896  0.6576  1.7795  0.3349
16760TIP3    H271772   4.866   0.667   3.027  0.7040 -1.1534 -0.5455
16761TIP3   OH271773   5.749   3.723  15.580 -0.3691  0.4719 -0.1915
16761TIP3    H171774   5.665   3.738  15.537 -0.5761 -1.3209 -0.4585
16761TIP3    H271775   5.813   3.770  15.527 -1.1920  1.8795  0.0320
16762TIP3   OH271776   1.863   3.488   3.744  0.6013  0.2843 -0.1262
16762TIP3    H171777   1.848   3.575   3.781 -0.0431  0.2524 -0.2985
16762TIP3    H271778   1.865   3.503   3.649  0.8945  0.1686 -0.1382
16763TIP3   OH271779   0.140   2.017   5.610 -0.0543  0.0492  0.2264
16763TIP3    H171780   0.226   1.985   5.581 -0.4489 -1.2077  0.4139
16763TIP3    H271781   0.078   1.975   5.551 -0.7161 -0.9144  1.5764
16764TIP3   OH271782   1.637   2.731   4.860  0.7161 -0.3161  0.4969
16764TIP3    H171783   1.686   2.676   4.798 -0.3614 -0.4343 -0.2517
16764TIP3    H271784   1.548   2.697   4.857  0.0960  1.3055  0.2359
16765TIP3   OH271785   1.248   2.557   6.169  0.7637 -0.5329  0.0459
16765TIP3    H171786   1.278   2.592   6.253  2.1694  0.2884 -0.7792
16765TIP3    H271787   1.274   2.622   6.105  1.5972 -2.1389 -1.2902
16766TIP3   OH271788   5.107   0.045  10.930  0.4367  0.6726 -0.5941
16766TIP3    H171789   5.169   0.093  10.986 -0.4677  1.2860 -0.1045
16766TIP3    H271790   5.097   0.101  10.853 -1.5193  1.8863  0.4912
16767TIP3   OH271791   1.705   0.449   5.751  0.3094 -0.0412  0.0092
16767TIP3    H171792   1.612   0.469   5.763  0.0377 -1.8408  1.0500
16767TIP3    H271793   1.744   0.462   5.837  0.6673 -1.1694  0.0189
16768TIP3   OH271794   6.328   0.881   4.131 -0.1234  0.3926 -0.0712
16768TIP3    H171795   6.311   0.805   4.076 -0.7948 -0.9018  1.8380
16768TIP3    H271796   6.257   0.942   4.111 -0.4012 -0.0916 -0.5637
16769TIP3   OH271797   0.685   2.767   5.039  0.4187 -0.3116 -0.3679
16769TIP3    H171798   0.610   2.711   5.017  0.9073 -1.8031  1.7018
16769TIP3    H271799   0.751   2.745   4.974  0.0451 -0.9725 -0.5309
16770TIP3   OH271800   0.328   6.163  16.659  0.0355 -0.3784  0.2622
16770TIP3    H171801   0.317   6.153  16.754  1.9445 -0.7613  0.4549
16770TIP3    H271802   0.264   6.102  16.621 -0.3819 -0.5970  1.2964
16771TIP3   OH271803   4.996   0.555  16.549 -0.3583  0.0521  0.2515
16771TIP3    H171804   4.949   0.548  16.466  1.0138 -0.6422 -0.4791
16771TIP3    H271805   5.064   0.621  16.532 -0.3927  0.2825  0.9825
16772TIP3   OH271806   6.087   3.053   0.512 -0.1869  0.1254  0.2073
16772TIP3    H171807   6.057   2.983   0.569  0.0167  1.9524  2.6583
16772TIP3    H271808   6.155   3.098   0.563  1.3784  0.6677 -2.2418
16773TIP3   OH271809   1.582   3.580   0.760  0.0676 -0.1399 -0.5986
16773TIP3    H171810   1.506   3.525   0.779  0.0337  0.7006  1.9334
16773TIP3    H271811   1.639   3.524   0.707 -0.4367 -2.2962  1.0407
16774TIP3   OH271812   0.696   2.614   1.453  0.1072  0.2296 -0.3933
16774TIP3    H171813   0.785   2.640   1.426  0.5361  0.6302  1.3470
16774TIP3    H271814   0.681   2.663   1.534 -1.0761 -1.0793  0.1826
16775TIP3   OH271815   3.335   6.555   6.026 -0.6728  0.4355 -0.3645
16775TIP3    H171816   3.404   6.620   6.041 -1.4370  0.8662  1.4189
16775TIP3    H271817   3.338   6.499   6.104 -1.5095 -0.3042 -0.8645
16776TIP3   OH271818   4.572   4.469  10.542  0.2465  0.4153 -0.0893
16776TIP3    H171819   4.597   4.559  10.520  0.1392  0.1708 -1.2604
16776TIP3    H271820   4.493   4.479  10.596  1.4551  1.0889  1.5768
16777TIP3   OH271821   1.874   5.482  14.566  0.1448 -0.5808 -0.3226
16777TIP3    H171822   1.831   5.398  14.551  2.0768 -1.1954 -2.6791
16777TIP3    H271823   1.915   5.504  14.482  1.1565  1.8674  0.7486
16778TIP3   OH271824   2.078   0.551   5.865 -0.1293 -0.1494 -0.3904
16778TIP3    H171825   2.138   0.489   5.824  1.0316  0.7921 -0.1330
16778TIP3    H271826   2.088   0.631   5.815 -1.6721 -0.1744 -0.7591
16779TIP3   OH271827   1.007   1.382   1.367  0.3333  0.3741  0.9300
16779TIP3    H171828   0.960   1.399   1.285  0.6547 -0.4601  0.5679
16779TIP3    H271829   0.940   1.392   1.435  0.0944  1.2070  0.5809
16780TIP3   OH271830   1.711   5.353   1.300  0.2845 -0.0844 -0.2409
16780TIP3    H171831   1.704   5.264   1.267 -1.6740 -1.0575  2.6596
16780TIP3    H271832   1.635   5.398   1.264  1.6757  0.7047 -2.3333
16781TIP3   OH271833   3.550   5.289   5.185 -0.7704 -0.4699  0.1221
16781TIP3    H171834   3.504   5.240   5.118 -2.8435  0.6897  0.6672
16781TIP3    H271835   3.568   5.375   5.146 -0.0320 -0.5373  0.2928
16782TIP3   OH271836   1.491   0.193   2.160 -0.0493 -0.4540  0.4484
16782TIP3    H171837   1.563   0.250   2.132 -0.8866  0.9330  1.0426
16782TIP3    H271838   1.422   0.254   2.185 -1.5014 -1.7764 -0.2957
16783TIP3   OH271839   6.350   2.944   3.303  0.0650  0.5417 -0.0104
16783TIP3    H171840   6.282   2.879   3.322  2.4928 -1.5040  2.0655
16783TIP3    H271841   6.388   2.915   3.220  1.0515 -0.6742  0.8420
16784TIP3   OH271842   4.403   3.246  17.273 -0.1275  0.3379  0.1919
16784TIP3    H171843   4.400   3.325  17.328  0.1162  0.2971  0.2610
16784TIP3    H271844   4.316   3.208  17.281 -0.2438  0.5966  0.1637
16785TIP3   OH271845   2.927   0.389   3.384 -0.1994 -0.2436  0.6416
16785TIP3    H171846   2.995   0.420   3.324 -2.3419  0.0872 -1.6632
16785TIP3    H271847   2.907   0.465   3.438 -1.2927  0.7279 -1.0983
16786TIP3   OH271848   6.462   0.684   1.728 -0.4929 -0.1468 -0.0766
16786TIP3    H171849   6.554   0.699   1.705 -0.3954  1.4676  1.2875
16786TIP3    H271850   6.464   0.608   1.787 -0.0733 -0.3091 -0.2949
16787TIP3   OH271851   6.226   1.862  11.803  0.2074 -0.3786  0.4910
16787TIP3    H171852   6.303   1.874  11.858  0.2504  4.0523 -0.3564
16787TIP3    H271853   6.171   1.937  11.822 -0.1879  0.8623 -4.7557
16788TIP3   OH271854   1.521   5.322  11.356 -0.2202 -0.0374 -0.1870
16788TIP3    H171855   1.474   5.241  11.375 -0.2385  0.4406  1.9623
16788TIP3    H271856   1.612   5.296  11.344 -0.4000 -0.5056 -0.5069
16789TIP3   OH271857   4.378   6.491  11.593  0.5900 -0.4275  0.3936
16789TIP3    H171858   4.424   6.521  11.515  1.9390 -2.7296  0.2422
16789TIP3    H271859   4.285   6.490  11.569  0.9594 -0.6614 -1.0186
16790TIP3   OH271860   1.567   5.465  11.935  0.4149 -0.2577 -0.2777
16790TIP3    H171861   1.589   5.433  11.847  0.1660 -1.7498  0.1817
16790TIP3    H271862   1.487   5.516  11.922  0.1385 -0.8280 -0.8662
16791TIP3   OH271863   5.368   4.202  12.831  0.6922  0.1077  0.2178
16791TIP3    H171864   5.275   4.212  12.809  1.3085  2.2058 -1.7042
16791TIP3    H271865   5.381   4.261  12.905 -0.0137 -2.0621  2.0940
16792TIP3   OH271866   5.848   0.978  15.327 -0.1666  0.0821  0.4583
16792TIP3    H171867   5.822   1.035  15.255  0.5550  1.1532  1.0234
16792TIP3    H271868   5.834   0.889  15.294  0.8915  0.5391 -1.2826
16793TIP3   OH271869   4.674   2.070   2.085  0.8833 -0.8260  0.0874
16793TIP3    H171870   4.756   2.048   2.040  1.1539 -2.2956  1.2728
16793TIP3    H271871   4.611   2.008   2.049  0.3543  0.0406 -0.5225
16794TIP3   OH271872   1.943   3.350   4.508 -0.2079  0.3164  0.7910
16794TIP3    H171873   1.938   3.305   4.424  2.0640 -1.5404  1.6052
16794TIP3    H271874   2.037   3.359   4.526 -0.6404 -0.0157  3.4673
16795TIP3   OH271875   3.601   6.476   3.294 -0.5541 -0.5358 -0.2636
16795TIP3    H171876   3.678   6.429   3.262 -2.0725 -2.9287 -0.5015
16795TIP3    H271877   3.578   6.432   3.376 -1.6829  0.1690 -0.1894
16796TIP3   OH271878   1.917   4.407  12.175 -0.4302  0.1591 -0.2077
16796TIP3    H171879   1.932   4.482  12.233 -1.4878 -0.4070  0.8261
16796TIP3    H271880   1.925   4.443  12.087  3.1395  0.6538  0.2448
16797TIP3   OH271881   1.107   2.047  12.090  0.1815  0.2760 -0.0381
16797TIP3    H171882   1.179   2.109  12.099  1.6891 -1.8546  3.7700
16797TIP3    H271883   1.091   2.041  11.996  2.2251  3.8455 -0.6700
16798TIP3   OH271884   3.246   3.218  16.078 -0.3114  0.5120  0.1057
16798TIP3    H171885   3.162   3.174  16.095 -1.0719  1.0241 -2.1544
16798TIP3    H271886   3.269   3.258  16.162 -2.5069  0.6523  0.6765
16799TIP3   OH271887   2.128   2.734  12.752  0.3124 -0.4070 -0.0782
16799TIP3    H171888   2.050   2.766  12.707  0.5809 -2.2277 -1.8825
16799TIP3    H271889   2.192   2.721  12.683  1.8839  0.0337  1.2667
16800TIP3   OH271890   6.547   3.685   4.888 -0.6610 -0.2704  0.1428
16800TIP3    H171891   6.577   3.594   4.880  1.6691  0.5431 -0.7836
16800TIP3    H271892   6.601   3.733   4.826 -0.2043  2.1444  2.3250
16801TIP3   OH271893   0.721   1.097   4.089 -0.1176  0.6867 -0.7237
16801TIP3    H171894   0.678   1.161   4.145 -0.6870  0.9886 -1.5043
16801TIP3    H271895   0.708   1.129   4.000  0.7744  0.2050 -1.0369
16802TIP3   OH271896   3.163   1.245  14.515 -0.0291 -0.4595 -0.4437
16802TIP3    H171897   3.112   1.241  14.596  0.4204 -0.8236 -0.1775
16802TIP3    H271898   3.207   1.330  14.519  1.2452 -1.1468  0.4568
16803TIP3   OH271899   2.450   4.024  13.861 -0.1824 -0.2098 -0.5656
16803TIP3    H171900   2.459   3.929  13.847 -0.5235 -0.5012  1.0590
16803TIP3    H271901   2.389   4.052  13.793 -2.4234 -1.6984  0.7542
16804TIP3   OH271902   1.451   0.994  15.178  0.4955 -0.8176  0.4006
16804TIP3    H171903   1.473   1.054  15.250 -0.2222  1.2900 -1.1001
16804TIP3    H271904   1.373   0.949  15.208 -0.4129  0.8048  0.5374
16805TIP3   OH271905   4.078   1.158  12.960  0.5500 -0.5631 -0.1973
16805TIP3    H171906   4.157   1.150  13.012  1.2589 -0.4661 -1.2315
16805TIP3    H271907   4.072   1.251  12.938  0.0672 -0.5437  0.0080
16806TIP3   OH271908   0.063   1.888   5.193  0.1092 -0.1086 -0.5929
16806TIP3    H171909   0.026   1.865   5.279 -1.4192 -2.4012 -1.8172
16806TIP3    H271910   0.014   1.964   5.165 -0.0801  0.0374  0.1220
16807TIP3   OH271911   3.366   2.711  15.098 -0.4922 -0.2563 -0.0618
16807TIP3    H171912   3.291   2.687  15.153 -0.5797  0.4702  0.1360
16807TIP3    H271913   3.344   2.797  15.064  0.1646 -0.1299 -0.1701
16808TIP3   OH271914   0.995   5.738  16.301 -0.2904  0.0254  0.0181
16808TIP3    H171915   1.058   5.807  16.279  0.0501 -0.5524 -0.8406
16808TIP3    H271916   1.018   5.712  16.390  1.8454 -1.4127 -0.9135
16809TIP3   OH271917   3.451   3.489   1.682  0.2869  0.1279  0.2933
16809TIP3    H171918   3.405   3.527   1.607 -1.5033  1.7052  2.1075
16809TIP3    H271919   3.380   3.456   1.738  1.5300 -0.0093  1.8068
16810TIP3   OH271920   0.897   4.008  14.756 -0.6682  0.2979  1.1718
16810TIP3    H171921   0.936   3.977  14.674  0.1833  2.6715  0.6373
16810TIP3    H271922   0.929   3.947  14.822  1.4895  0.3872  0.2472
16811TIP3   OH271923   2.839   2.118   1.181 -0.2220  0.4531 -0.0049
16811TIP3    H171924   2.895   2.070   1.242 -0.0337 -0.4142 -0.8470
16811TIP3    H271925   2.821   2.201   1.225 -0.1542 -0.1930  1.2570
16812TIP3   OH271926   5.245   4.825   1.794  0.2277 -0.1161 -0.1912
16812TIP3    H171927   5.192   4.887   1.744  1.3628  0.7584 -0.3400
16812TIP3    H271928   5.227   4.846   1.885 -1.7142 -1.5996 -0.1950
16813TIP3   OH271929   6.268   6.496  15.569 -0.4102  0.3064  0.7363
16813TIP3    H171930   6.266   6.573  15.626 -1.0127  0.1172  0.9829
16813TIP3    H271931   6.188   6.448  15.593  1.7179 -2.2131  3.0899
16814TIP3   OH271932   6.201   4.632   3.186  0.1566 -0.0803  0.4304
16814TIP3    H171933   6.233   4.719   3.211 -2.1554  0.3019  2.2018
16814TIP3    H271934   6.201   4.583   3.268  3.7661 -2.5798 -0.9489
16815TIP3   OH271935   5.884   5.829  14.685  0.5274 -0.1762 -0.9506
16815TIP3    H171936   5.955   5.877  14.728  0.4181  1.3221 -2.3861
16815TIP3    H271937   5.924   5.790  14.607 -0.2232  0.7956 -1.8477
16816TIP3   OH271938   2.087   3.205  11.519  0.1704  0.1540  0.0826
16816TIP3    H171939   2.058   3.295  11.512 -0.8769 -0.2735 -1.1744
16816TIP3    H271940   2.128   3.200  11.605  0.5043  1.8946  0.0447
16817TIP3   OH271941   5.102   5.593   5.080  0.0801  0.3248 -0.0175
16817TIP3    H171942   5.097   5.617   4.988 -1.1015  0.9232  0.1995
16817TIP3    H271943   5.139   5.670   5.124 -0.7298  0.5809  0.2176
16818TIP3   OH271944   5.642   6.086   3.045 -0.3908 -0.1845  0.0607
16818TIP3    H171945   5.587   6.008   3.036 -0.8672  0.2409 -0.7897
16818TIP3    H271946   5.664   6.089   3.138 -0.2525 -1.4079  0.0828
16819TIP3   OH271947   0.147   3.552   6.010 -0.6416  0.6368 -0.3891
16819TIP3    H171948   0.242   3.545   6.006 -0.6757  0.6888 -1.2309
16819TIP3    H271949   0.129   3.572   6.102  0.0953 -0.3324 -0.0247
16820TIP3   OH271950   0.769   2.772  15.068  0.1799 -0.1239 -0.0554
16820TIP3    H171951   0.749   2.683  15.040 -2.5879  1.2369 -2.7053
16820TIP3    H271952   0.708   2.789  15.141  0.0692 -0.0777 -0.1595
16821TIP3   OH271953   1.646   5.870  15.362  0.0080  0.6386 -0.7089
16821TIP3    H171954   1.705   5.889  15.290  2.1262  3.5370  1.6375
16821TIP3    H271955   1.691   5.803  15.414 -0.3735  0.3188 -0.7881
16822TIP3   OH271956   6.646   1.763   1.799 -0.3805  0.3568 -0.1794
16822TIP3    H171957   6.693   1.763   1.715  0.1076  0.5133  0.0945
16822TIP3    H271958   6.577   1.698   1.787 -0.1992  0.2419 -0.6398
16823TIP3   OH271959   3.553   6.522  14.782 -0.1918  0.1462 -0.1608
16823TIP3    H171960   3.642   6.508  14.748 -0.3262 -0.9500 -0.0910
16823TIP3    H271961   3.552   6.474  14.865 -0.5820  0.8722  0.2513
16824TIP3   OH271962   2.472   4.350  12.560  0.8971 -0.0444 -0.1063
16824TIP3    H171963   2.513   4.343  12.646  3.3993 -0.4727 -1.2671
16824TIP3    H271964   2.379   4.334  12.576  1.2796  0.0622  2.5176
16825TIP3   OH271965   5.888   3.440   3.750 -0.4276  0.3560 -0.2173
16825TIP3    H171966   5.815   3.437   3.812 -1.8352  1.5003 -1.7697
16825TIP3    H271967   5.848   3.422   3.665  1.2598  0.1032 -0.9800
16826TIP3   OH271968   4.814   2.914  15.680  0.4871  0.2194  0.2251
16826TIP3    H171969   4.757   2.912  15.758  0.4241  0.7216  0.1992
16826TIP3    H271970   4.765   2.967  15.617 -0.4878 -2.0657 -0.9902
16827TIP3   OH271971   3.503   2.066  12.846  0.5504 -0.4117  0.0402
16827TIP3    H171972   3.489   2.153  12.807 -0.4528 -0.9994 -0.9271
16827TIP3    H271973   3.568   2.025  12.789  1.7112  0.0112  1.0124
16828TIP3   OH271974   0.348   4.697   4.890  0.2974  0.0172  0.3552
16828TIP3    H171975   0.252   4.691   4.887  0.3168  0.4572 -2.4798
16828TIP3    H271976   0.366   4.790   4.906  0.2333  0.3428 -1.3606
16829TIP3   OH271977   2.774   3.195   2.273 -0.6863 -0.5269  0.0413
16829TIP3    H171978   2.715   3.180   2.199 -0.8505  0.5161 -0.0491
16829TIP3    H271979   2.852   3.144   2.251 -0.7792 -0.3208 -0.8096
16830TIP3   OH271980   1.114   0.097   0.035  0.0965  0.5028  0.0585
16830TIP3    H171981   1.128   0.023  -0.024  0.5649  0.6914 -0.0619
16830TIP3    H271982   1.087   0.169  -0.022  0.9769  0.8073  0.0273
16831TIP3   OH271983   4.569   0.838   4.014  0.2671 -0.0022  0.2450
16831TIP3    H171984   4.621   0.915   4.035  1.8763 -0.9598 -0.1554
16831TIP3    H271985   4.583   0.824   3.920  1.1164 -1.5965  0.5858
16832TIP3   OH271986   5.183   4.741  14.760  0.0549 -0.0931  1.0117
16832TIP3    H171987   5.266   4.696  14.777 -1.3549 -2.4117  1.9286
16832TIP3    H271988   5.134   4.733  14.841 -2.4747 -1.8613 -0.6129
16833TIP3   OH271989   0.412   0.408  14.143  0.3743  0.4525 -0.0588
16833TIP3    H171990   0.335   0.396  14.086 -0.6190 -1.4250  1.6038
16833TIP3    H271991   0.392   0.486  14.193  0.0861  0.6546 -0.4836
16834TIP3   OH271992   2.161   2.654   3.444  0.5660 -0.9340 -0.6157
16834TIP3    H171993   2.099   2.581   3.439  0.4823 -0.7676 -2.0648
16834TIP3    H271994   2.129   2.717   3.380  0.6943  0.3514  0.5646
16835TIP3   OH271995   5.808   4.858  17.010 -0.0227  0.0723  0.3850
16835TIP3    H171996   5.809   4.898  17.097 -1.5701 -0.0705  0.4771
16835TIP3    H271997   5.836   4.928  16.952 -2.0317  1.1301  0.6310
16836TIP3   OH271998   1.588   1.684  12.459 -0.2621 -0.0665 -0.1340
16836TIP3    H171999   1.527   1.742  12.504  1.7439  1.8584  0.1872
16836TIP3    H272000   1.588   1.715  12.368  1.4338  1.0359  0.2099
16837TIP3   OH272001   2.321   2.792  13.894 -0.0027  0.8045 -0.0381
16837TIP3    H172002   2.284   2.767  13.809  0.8384  0.9163 -0.4545
16837TIP3    H272003   2.400   2.738  13.902 -0.8455 -0.2476  1.3427
16838TIP3   OH272004   2.255   5.624   6.170  0.7065  0.7151 -0.4520
16838TIP3    H172005   2.281   5.555   6.231  3.6205  2.0413 -0.1293
16838TIP3    H272006   2.265   5.583   6.084 -1.1239 -0.3878 -0.1843
16839TIP3   OH272007   0.064   0.164  13.841 -0.6632 -0.3463 -0.0101
16839TIP3    H172008   0.103   0.222  13.776 -0.3649 -1.6442 -1.0186
16839TIP3    H272009  -0.030   0.167  13.822 -0.5695 -0.7919 -0.5861
16840TIP3   OH272010   4.320   1.858   4.846  0.4904 -0.0575  0.1061
16840TIP3    H172011   4.230   1.832   4.867  0.4171 -0.7221 -1.0093
16840TIP3    H272012   4.375   1.802   4.901  0.2451 -0.0519  0.3598
16841TIP3   OH272013   5.626   0.349   1.805 -0.6724  0.6167  0.3064
16841TIP3    H172014   5.668   0.432   1.780  0.2145  0.5411  1.4730
16841TIP3    H272015   5.699   0.290   1.822 -1.3164 -0.7207 -1.5084
16842TIP3   OH272016   4.305   3.055   2.561  0.3962  0.0789 -0.7334
16842TIP3    H172017   4.341   3.018   2.641  0.0091 -0.4047 -0.7798
16842TIP3    H272018   4.381   3.091   2.514  1.1235 -2.7443 -1.7965
16843TIP3   OH272019   5.356   4.814  16.344 -0.1357  0.1439 -1.0070
16843TIP3    H172020   5.264   4.834  16.356 -0.0342 -0.0225  0.0722
16843TIP3    H272021   5.357   4.724  16.312 -0.3401  0.1572 -1.0521
16844TIP3   OH272022   3.014   3.941  13.790  0.3233  0.0909 -0.5232
16844TIP3    H172023   3.101   3.913  13.817  0.4325  1.8280  1.0420
16844TIP3    H272024   3.027   4.026  13.750 -0.5178 -0.1786 -1.4048
16845TIP3   OH272025   5.002   5.035  14.836  0.4035  0.8359  0.0836
16845TIP3    H172026   5.056   5.007  14.909 -1.0498 -0.6539  0.6192
16845TIP3    H272027   4.980   4.954  14.790 -1.1553  1.4254 -0.2491
16846TIP3   OH272028   2.341   0.414   4.133 -0.1771  0.2093  0.1365
16846TIP3    H172029   2.372   0.500   4.163 -2.0444  0.4441  1.4569
16846TIP3    H272030   2.307   0.371   4.211 -0.9674 -0.9948 -0.8435
16847TIP3   OH272031   2.029   6.730  16.212 -0.6176 -0.1125  0.6657
16847TIP3    H172032   1.934   6.742  16.213 -0.6145  0.1724 -0.6905
16847TIP3    H272033   2.055   6.753  16.122  0.6677 -0.6685  0.8821
16848TIP3   OH272034   2.296   1.386  14.164 -0.3540 -0.5296  0.4402
16848TIP3    H172035   2.232   1.315  14.170 -0.0322 -0.8918 -0.4016
16848TIP3    H272036   2.245   1.465  14.179 -1.1339 -0.7629 -0.9054
16849TIP3   OH272037   4.466   5.941   3.098 -0.1252 -0.7801 -0.2727
16849TIP3    H172038   4.499   5.870   3.154  0.7360  0.1672  0.4399
16849TIP3    H272039   4.376   5.917   3.079 -1.1689 -0.0375  3.3398
16850TIP3   OH272040   4.642   4.154   3.412 -0.3688 -0.1029  0.4647
16850TIP3    H172041   4.727   4.139   3.371  0.3116 -2.6221  2.6034
16850TIP3    H272042   4.580   4.108   3.356 -0.1377  0.6242 -0.3912
16851TIP3   OH272043   3.321   2.982   3.761 -0.0187  0.3458 -0.0168
16851TIP3    H172044   3.299   3.036   3.837 -1.7509 -1.1489  0.5842
16851TIP3    H272045   3.281   2.897   3.780  1.4004 -0.7122 -1.6116
16852TIP3   OH272046   0.951   2.137  16.450 -0.0924 -0.3256 -0.6951
16852TIP3    H172047   0.951   2.216  16.504 -0.2962 -0.0654 -1.0748
16852TIP3    H272048   0.974   2.168  16.363  0.0531 -0.7216 -0.7947
16853TIP3   OH272049   0.327   6.475  16.708 -0.2436 -0.3491  1.0280
16853TIP3    H172050   0.290   6.388  16.696 -1.5827  0.3397 -0.0093
16853TIP3    H272051   0.254   6.535  16.692  0.4060  0.9418  2.8001
16854TIP3   OH272052   4.252   3.564   2.736  0.4866 -0.1001  0.2213
16854TIP3    H172053   4.173   3.544   2.686  1.3661 -0.3787 -1.0707
16854TIP3    H272054   4.306   3.485   2.727  0.9880  0.1557  0.9492
16855TIP3   OH272055   5.383   6.362   4.455  0.7625 -0.4683 -0.5258
16855TIP3    H172056   5.476   6.358   4.476  0.4118 -0.4739  1.1178
16855TIP3    H272057   5.380   6.390   4.364  2.3574  0.6590 -0.2590
16856TIP3   OH272058   4.345   3.535  14.105 -0.3336  0.3461 -0.0160
16856TIP3    H172059   4.319   3.618  14.146 -1.6009 -0.4957  0.8796
16856TIP3    H272060   4.406   3.562  14.035 -1.8940  2.1493 -0.7182
16857TIP3   OH272061   1.626   2.911  12.792 -0.2180 -0.3291 -0.5791
16857TIP3    H172062   1.699   2.869  12.838 -0.1937  0.2292 -0.1005
16857TIP3    H272063   1.556   2.913  12.856 -0.6808 -0.9267 -1.0614
16858TIP3   OH272064   0.518   3.175   3.214 -0.0511  0.2506  0.1251
16858TIP3    H172065   0.559   3.244   3.265 -0.1593  0.6006 -0.2648
16858TIP3    H272066   0.570   3.097   3.233 -0.6651  0.1591  1.5333
16859TIP3   OH272067   3.358   3.549   0.899  0.3181  0.4352  0.2617
16859TIP3    H172068   3.304   3.627   0.908 -0.9479 -0.2847 -0.8639
16859TIP3    H272069   3.448   3.581   0.905 -0.1750  2.0513 -0.7212
16860TIP3   OH272070   5.525   6.480  12.391 -0.3257 -0.0271 -0.6749
16860TIP3    H172071   5.471   6.552  12.426  0.7297  0.9064 -0.9654
16860TIP3    H272072   5.565   6.515  12.312  0.1371 -0.9666 -0.8691
16861TIP3   OH272073   0.992   3.785   4.668 -0.1379 -0.2327 -0.2676
16861TIP3    H172074   0.901   3.811   4.652  0.2977  1.9489  0.5849
16861TIP3    H272075   0.995   3.763   4.761  0.5931  1.5921  0.1757
16862TIP3   OH272076   2.229   1.915   2.747 -0.5833  0.1456 -0.7378
16862TIP3    H172077   2.237   1.855   2.672  0.4587 -0.0588 -0.4687
16862TIP3    H272078   2.304   1.974   2.738  0.2107 -0.6115  0.7899
16863TIP3   OH272079   4.187   2.278   3.229 -0.5039  0.0969 -0.1107
16863TIP3    H172080   4.160   2.370   3.237 -1.5880  0.1222 -3.3567
16863TIP3    H272081   4.116   2.228   3.269  0.1298  0.6641  1.7457
16864TIP3   OH272082   0.844   1.701   4.223 -0.3488  0.4125  0.1048
16864TIP3    H172083   0.805   1.752   4.294 -0.3210 -0.8399  1.0443
16864TIP3    H272084   0.887   1.766   4.167 -1.3323  1.5203  0.6218
16865TIP3   OH272085   1.173   5.296  13.782 -0.3746  0.0342  0.2415
16865TIP3    H172086   1.163   5.335  13.695 -1.0683 -0.3277  0.1595
16865TIP3    H272087   1.095   5.323  13.830 -0.6732 -0.9214  0.3058
16866TIP3   OH272088   0.375   5.997   0.671  0.3839  0.2762  0.2780
16866TIP3    H172089   0.282   5.993   0.694  0.3902  1.1620  0.4807
16866TIP3    H272090   0.381   5.955   0.585 -0.2856  0.6759  0.0326
16867TIP3   OH272091   1.027   4.890   2.955 -0.2444  0.1131 -0.0505
16867TIP3    H172092   1.032   4.813   3.013  0.1142  1.3288  1.5723
16867TIP3    H272093   1.062   4.859   2.872 -3.0574 -2.3635 -0.3798
16868TIP3   OH272094   2.543   2.470  14.553  0.2658 -0.2315 -0.1115
16868TIP3    H172095   2.468   2.529  14.561 -0.2485 -1.0336  1.2321
16868TIP3    H272096   2.510   2.396  14.501 -0.2837 -1.2021  1.5830
16869TIP3   OH272097   1.824   4.692  11.487 -0.7394  0.0368  0.5790
16869TIP3    H172098   1.848   4.640  11.409  0.9521  0.0618  1.0491
16869TIP3    H272099   1.896   4.755  11.495 -0.7543 -0.1598  2.3238
16870TIP3   OH272100   5.652   2.741   4.778  0.0063 -0.0584 -0.0286
16870TIP3    H172101   5.642   2.825   4.821 -1.5338 -0.0807 -0.2979
16870TIP3    H272102   5.578   2.737   4.716  1.7079 -0.3597 -2.0951
16871TIP3   OH272103   1.418   6.712  13.558 -0.7968  0.1227 -0.0565
16871TIP3    H172104   1.369   6.641  13.599  0.8755 -0.6852  0.5733
16871TIP3    H272105   1.509   6.697  13.584 -0.1970  1.5678 -1.2480
16872TIP3   OH272106   0.319   1.206  16.846  0.1841 -0.3044  0.3846
16872TIP3    H172107   0.323   1.301  16.835 -2.4981 -0.1611  0.4241
16872TIP3    H272108   0.359   1.190  16.932 -0.0648  0.8552  0.7199
16873TIP3   OH272109   1.801   5.368   5.519 -0.6047 -0.1622  0.2770
16873TIP3    H172110   1.733   5.301   5.533  0.7963 -1.7954 -0.5661
16873TIP3    H272111   1.767   5.421   5.447 -2.3493  0.9056  1.8334
16874TIP3   OH272112   4.506   4.463   6.221  0.5682  0.2751 -0.4845
16874TIP3    H172113   4.562   4.514   6.280  0.4854 -1.1770  0.8833
16874TIP3    H272114   4.562   4.391   6.192  0.2701  0.3896 -1.3515
16875TIP3   OH272115   1.772   3.450  15.587  0.4449 -0.1319  0.1370
16875TIP3    H172116   1.818   3.530  15.612  0.8494 -0.1122 -0.6655
16875TIP3    H272117   1.838   3.381  15.593  0.5424 -0.1311 -0.8493
16876TIP3   OH272118   2.342   5.827   3.692  0.1423 -0.2499  0.6052
16876TIP3    H172119   2.418   5.771   3.679 -1.8461 -2.4568 -2.0407
16876TIP3    H272120   2.280   5.773   3.740 -1.5408 -0.1369 -1.3716
16877TIP3   OH272121   3.978   0.705   3.561  0.2511 -0.1830  0.0630
16877TIP3    H172122   4.045   0.643   3.589 -1.0046 -1.7257 -0.3062
16877TIP3    H272123   3.921   0.714   3.637  1.0715  1.4508  0.5212
16878TIP3   OH272124   2.753   2.913   0.458 -0.1549 -0.4378  0.6680
16878TIP3    H172125   2.827   2.853   0.468  0.8323  0.7928  0.7170
16878TIP3    H272126   2.767   2.955   0.373  0.0565  0.9472  1.3758
16879TIP3   OH272127   5.858   5.194   2.680  0.4499 -0.0519  0.5119
16879TIP3    H172128   5.795   5.204   2.751  0.0608 -0.6264  0.2498
16879TIP3    H272129   5.876   5.100   2.676  0.3433 -0.0417 -0.2624
16880TIP3   OH272130   1.477   5.840  17.008  0.2978  0.1726  0.4195
16880TIP3    H172131   1.557   5.787  17.005  0.3316  0.1795  0.9945
16880TIP3    H272132   1.406   5.777  16.994  0.4098  0.1849 -0.2022
16881TIP3   OH272133   1.499   4.849   1.972 -0.0300 -0.5669  0.0478
16881TIP3    H172134   1.476   4.768   1.926 -0.6344 -0.7813  0.7146
16881TIP3    H272135   1.419   4.901   1.970  0.8025  0.6888 -1.7472
16882TIP3   OH272136   3.527   3.998   2.652  0.3178  0.2266 -0.5009
16882TIP3    H172137   3.556   4.015   2.563 -2.1033  2.2340 -0.9716
16882TIP3    H272138   3.516   4.085   2.691  1.2675 -0.6174  1.7413
16883TIP3   OH272139   5.275   6.786  14.032  0.0763  0.1835  0.4482
16883TIP3    H172140   5.184   6.771  14.060 -0.0583 -0.6749 -0.4212
16883TIP3    H272141   5.328   6.749  14.102 -0.2587 -0.9859  0.1017
16884TIP3   OH272142   6.349   6.722  14.489 -0.4481 -0.4137 -0.3640
16884TIP3    H172143   6.430   6.704  14.537 -1.3108  1.0900  1.6864
16884TIP3    H272144   6.377   6.782  14.419 -0.2457  2.5262  2.1396
16885TIP3   OH272145   3.634   5.634  16.203 -0.0865 -0.0642 -0.0800
16885TIP3    H172146   3.570   5.625  16.133 -0.3244  0.0378  0.1233
16885TIP3    H272147   3.584   5.621  16.283  0.1966 -0.2488  0.0703
16886TIP3   OH272148   3.884   4.036   2.404 -0.4460  0.4571  0.3893
16886TIP3    H172149   3.798   4.080   2.399 -1.0801 -0.9611 -3.0195
16886TIP3    H272150   3.864   3.947   2.432 -0.2303 -0.1148 -1.2043
16887TIP3   OH272151   6.308   3.020   4.953  0.2984  0.0479 -0.1488
16887TIP3    H172152   6.385   2.976   4.916  0.5865 -1.3673  2.0451
16887TIP3    H272153   6.338   3.110   4.968  1.2989 -0.2914 -0.0249
16888TIP3   OH272154   1.229   6.520  11.924 -0.4121 -0.0699 -0.1244
16888TIP3    H172155   1.325   6.520  11.928 -0.4324  2.0634  1.0442
16888TIP3    H272156   1.209   6.546  11.834  0.0883 -1.2917 -0.6056
16889TIP3   OH272157   2.217   0.045  11.392 -0.0200  0.3205  0.2492
16889TIP3    H172158   2.290   0.004  11.438 -0.6003 -2.9738 -1.5735
16889TIP3    H272159   2.258   0.108  11.333  1.2240 -0.3563  0.3718
16890TIP3   OH272160   5.594   1.019   4.534  0.3017  0.1822  0.4665
16890TIP3    H172161   5.677   1.062   4.514  1.7916 -1.6168  2.5723
16890TIP3    H272162   5.539   1.088   4.571  1.8227  0.8217  1.6018
16891TIP3   OH272163   0.771   3.462   2.971  0.5066 -0.0337  0.7162
16891TIP3    H172164   0.792   3.370   2.957 -0.3371  0.0503 -1.3126
16891TIP3    H272165   0.792   3.478   3.063  0.7740 -2.2088  1.0575
16892TIP3   OH272166   3.031   6.228   1.009 -0.4498  0.1047  0.0043
16892TIP3    H172167   3.056   6.246   0.919  1.2629 -0.7866  0.2679
16892TIP3    H272168   3.052   6.135   1.021 -0.7610  0.1941  1.2770
16893TIP3   OH272169   0.235   0.848  12.524 -0.4146  0.1108  0.0709
16893TIP3    H172170   0.207   0.780  12.585 -0.1181 -0.2598 -0.2079
16893TIP3    H272171   0.320   0.877  12.559 -2.0344  2.6676  2.0981
16894TIP3   OH272172   1.307   4.068   4.422  0.0784  1.0004 -0.0712
16894TIP3    H172173   1.242   4.006   4.455  0.1650 -1.1529 -3.6879
16894TIP3    H272174   1.391   4.036   4.458  0.1607 -1.2362 -2.1120
16895TIP3   OH272175   6.674   1.965  17.201  0.2028 -0.5350 -0.4356
16895TIP3    H172176   6.634   1.937  17.119 -1.2746 -0.0134  0.0777
16895TIP3    H272177   6.734   1.894  17.225 -1.3423 -1.9206 -0.6079
16896TIP3   OH272178   1.181   4.993  13.372  0.0377  0.6813 -0.2759
16896TIP3    H172179   1.139   4.919  13.327 -1.7437  1.9464 -0.7799
16896TIP3    H272180   1.167   4.975  13.465 -1.2414  0.8287 -0.4227
16897TIP3   OH272181   3.450   1.683  11.820 -0.3749  0.1784 -0.6724
16897TIP3    H172182   3.456   1.587  11.826 -0.9690  0.2038  0.4872
16897TIP3    H272183   3.435   1.711  11.910 -0.5788  1.3424 -1.0707
16898TIP3   OH272184   2.663   5.845   3.908  0.5442 -0.8019  0.3135
16898TIP3    H172185   2.610   5.851   3.988 -1.1006 -2.7887 -0.5848
16898TIP3    H272186   2.627   5.770   3.861  0.1411  1.5526 -3.2890
16899TIP3   OH272187   2.520   0.060  15.815  0.2652  0.4973 -0.0277
16899TIP3    H172188   2.588   0.115  15.855  0.6868 -1.6871  2.3521
16899TIP3    H272189   2.564   0.014  15.744  1.1516 -0.4214  1.0995
16900TIP3   OH272190   3.982   2.076  15.957 -0.0514  0.3577 -0.4112
16900TIP3    H172191   3.898   2.091  16.001  1.2042  2.3012  1.4003
16900TIP3    H272192   3.959   2.066  15.864 -2.1070  2.5491 -0.1806
16901TIP3   OH272193   2.508   2.781   0.418 -0.1935 -0.1406 -0.1896
16901TIP3    H172194   2.493   2.704   0.473  0.0190 -0.6462 -0.8304
16901TIP3    H272195   2.598   2.807   0.437 -0.9705  1.2827  1.6651
16902TIP3   OH272196   4.206   2.608   1.957  0.1930  0.4022 -0.3732
16902TIP3    H172197   4.247   2.678   1.907 -0.3844  1.5308  0.7207
16902TIP3    H272198   4.263   2.595   2.032  0.5951 -0.7051 -0.8487
16903TIP3   OH272199   2.316   2.598   2.218 -0.6943  0.2151 -0.1482
16903TIP3    H172200   2.405   2.618   2.190 -0.8615  0.2027 -0.6844
16903TIP3    H272201   2.292   2.673   2.274 -0.8673  0.9232 -1.1555
16904TIP3   OH272202   5.251   1.474  15.525 -0.1047  0.0127  0.7421
16904TIP3    H172203   5.234   1.544  15.463  0.8728 -1.4200 -1.2046
16904TIP3    H272204   5.331   1.501  15.570  1.0768 -0.5176 -1.0163
16905TIP3   OH272205   4.402   2.194   3.060 -0.4935  0.5987  0.1506
16905TIP3    H172206   4.329   2.252   3.081 -0.5058  0.9855 -0.9270
16905TIP3    H272207   4.462   2.203   3.134 -0.6227  1.7918  0.1244
16906TIP3   OH272208   6.736   6.578  11.606  0.1111 -0.2198  0.1828
16906TIP3    H172209   6.792   6.519  11.657  2.4216  0.0640 -1.9330
16906TIP3    H272210   6.674   6.521  11.563 -0.9744 -0.5916  2.1843
16907TIP3   OH272211   3.817   3.047  12.456 -0.6879 -0.4421  0.4106
16907TIP3    H172212   3.735   2.999  12.469 -0.8504 -0.1149  0.6047
16907TIP3    H272213   3.797   3.111  12.388 -0.8728  0.2948  1.1495
16908TIP3   OH272214   0.185   6.030   6.435 -0.2729  0.5894  0.5182
16908TIP3    H172215   0.206   5.993   6.521  1.5452  2.3268  0.8697
16908TIP3    H272216   0.255   5.999   6.377 -1.2066 -0.1583 -0.2139
16909TIP3   OH272217   4.769   1.621   3.755  0.7554  0.0876  0.3671
16909TIP3    H172218   4.795   1.536   3.718 -1.4515 -0.1206 -0.7741
16909TIP3    H272219   4.702   1.654   3.695 -0.2612  1.4590  2.2185
16910TIP3   OH272220   5.107   0.608  14.356 -0.0256  0.0607 -0.4443
16910TIP3    H172221   5.138   0.608  14.446  0.5811  1.3033 -0.6436
16910TIP3    H272222   5.131   0.694  14.322 -1.2970  0.0435 -1.4296
16911TIP3   OH272223   3.665   3.717   0.276  0.3254 -0.1769  0.5636
16911TIP3    H172224   3.745   3.708   0.225  1.6324  3.4199  1.8252
16911TIP3    H272225   3.680   3.664   0.354 -0.2612 -2.8142 -1.0265
16912TIP3   OH272226   3.529   0.184  16.486 -0.2564  0.3900  0.0249
16912TIP3    H172227   3.508   0.270  16.522 -1.8041  0.6202 -1.3665
16912TIP3    H272228   3.576   0.204  16.405  0.6688 -0.0956  0.4380
16913TIP3   OH272229   5.839   4.248  12.020  0.6473 -0.5743 -0.0486
16913TIP3    H172230   5.910   4.233  12.082  0.7173  0.7809  0.2025
16913TIP3    H272231   5.879   4.301  11.950 -0.2370  0.5920  0.3327
16914TIP3   OH272232   1.536   1.470   5.673  0.1530 -0.3271  0.6273
16914TIP3    H172233   1.580   1.451   5.590  0.3557 -2.0334  1.1173
16914TIP3    H272234   1.453   1.511   5.647 -0.4081 -2.1045 -0.4823
16915TIP3   OH272235   1.033   2.062  12.375  0.1282 -0.3305  0.4896
16915TIP3    H172236   1.121   2.092  12.396  0.1189  0.8075 -1.1109
16915TIP3    H272237   1.039   2.027  12.286 -1.3155  0.9789 -0.1508
16916TIP3   OH272238   3.806   6.668   2.137  0.3038 -0.1895  0.7973
16916TIP3    H172239   3.899   6.662   2.116  0.3115  0.5301  0.6342
16916TIP3    H272240   3.761   6.639   2.058  0.3826 -0.3411  0.8075
16917TIP3   OH272241   2.821   0.783   0.394 -0.4291 -0.1286 -0.2513
16917TIP3    H172242   2.787   0.705   0.349 -1.4691  0.6354 -0.8134
16917TIP3    H272243   2.862   0.835   0.325 -0.1152  0.0264  0.0498
16918TIP3   OH272244   0.753   1.368   4.400 -0.0374  0.1416 -0.0801
16918TIP3    H172245   0.672   1.364   4.350 -0.7401  0.9576  0.9633
16918TIP3    H272246   0.727   1.400   4.486  1.2814 -0.3577  0.5260
16919TIP3   OH272247   3.266   3.592  16.795  0.2629  0.5853  0.3358
16919TIP3    H172248   3.247   3.647  16.719  0.0795  1.1226  0.7660
16919TIP3    H272249   3.216   3.512  16.779  0.0794  0.7702 -0.0284
16920TIP3   OH272250   3.935   1.888   3.570  0.8479  0.1648  0.2473
16920TIP3    H172251   3.977   1.803   3.561 -1.5697 -1.2532  1.5998
16920TIP3    H272252   3.879   1.895   3.493  0.9963  0.4678  0.1707
16921TIP3   OH272253   5.922   1.823  15.294 -0.2471 -0.4614  0.4441
16921TIP3    H172254   5.919   1.852  15.203  0.1504  0.0106  0.5791
16921TIP3    H272255   5.867   1.745  15.296 -0.2200 -0.5013 -0.2126
16922TIP3   OH272256   0.233   2.319   6.309 -0.2968 -0.6506  0.1265
16922TIP3    H172257   0.259   2.321   6.401  0.5479 -2.6201 -0.0322
16922TIP3    H272258   0.160   2.380   6.303  1.4755  1.6619  1.5038
16923TIP3   OH272259   3.460   4.554  15.379  0.2953 -0.2035 -0.0469
16923TIP3    H172260   3.365   4.549  15.375  0.2508  0.4412  0.1577
16923TIP3    H272261   3.485   4.609  15.305  0.2675  2.2248  1.6611
16924TIP3   OH272262   4.960   2.003   0.213  0.1536 -0.6388  0.2711
16924TIP3    H172263   4.902   2.049   0.275 -0.6409 -0.1821 -0.7870
16924TIP3    H272264   4.973   2.066   0.142 -2.4762 -2.6563 -2.1191
16925TIP3   OH272265   4.720   3.696  10.883  0.2552  0.5315 -0.7658
16925TIP3    H172266   4.645   3.756  10.884 -0.6844 -0.6249 -1.3225
16925TIP3    H272267   4.761   3.712  10.798 -0.1487  0.2000 -1.0251
16926TIP3   OH272268   2.798   3.812   2.879 -0.1689  0.8897 -0.7227
16926TIP3    H172269   2.884   3.853   2.878  0.8876 -1.2397 -0.9449
16926TIP3    H272270   2.764   3.824   2.790  1.2308 -0.8702 -1.5404
16927TIP3   OH272271   2.038   1.218   2.011 -0.2180  0.3256  0.0967
16927TIP3    H172272   2.100   1.212   2.083 -0.1317 -0.5308 -0.0464
16927TIP3    H272273   1.955   1.189   2.049  0.0073 -0.9647 -0.3612
16928TIP3   OH272274   5.913   6.303  12.059  0.2581 -0.1940 -0.4390
16928TIP3    H172275   5.818   6.315  12.051  0.2256  0.1052  0.3542
16928TIP3    H272276   5.947   6.327  11.973 -0.5081 -1.7293 -1.1896
16929TIP3   OH272277   1.260   3.008  17.145  0.0700 -0.4709  0.3950
16929TIP3    H172278   1.215   2.924  17.153 -0.3712 -0.1435  1.3610
16929TIP3    H272279   1.250   3.032  17.053 -4.0397  0.8591  1.1079
16930TIP3   OH272280   1.591   1.359   3.512  0.5937 -0.2031  0.0467
16930TIP3    H172281   1.551   1.311   3.585 -0.7871  0.8623  0.0029
16930TIP3    H272282   1.616   1.290   3.450 -2.2442 -0.8775 -0.4507
16931TIP3   OH272283   5.595   1.887   5.592 -0.3016  0.3851  0.6396
16931TIP3    H172284   5.662   1.954   5.577  0.2363 -0.4063 -0.5739
16931TIP3    H272285   5.517   1.922   5.549 -0.2090  0.5366  0.5924
16932TIP3   OH272286   1.746   0.698   2.483  0.7671  0.5033 -0.2479
16932TIP3    H172287   1.753   0.680   2.389  1.9916  0.0772 -0.0818
16932TIP3    H272288   1.653   0.718   2.497  0.3416 -0.6734 -1.3252
16933TIP3   OH272289   2.727   5.531   3.829 -0.2889 -0.3238 -0.7461
16933TIP3    H172290   2.817   5.544   3.801 -0.1892  0.3915 -0.1295
16933TIP3    H272291   2.714   5.437   3.828  0.6165 -0.4569 -0.3771
16934TIP3   OH272292   2.935   0.324  14.868 -0.1532  0.2258  0.0609
16934TIP3    H172293   2.844   0.354  14.861 -1.0990 -2.3213  0.8887
16934TIP3    H272294   2.951   0.279  14.785 -0.3037 -0.9348  0.6397
16935TIP3   OH272295   3.709   0.965   1.190  0.3269 -0.2070 -0.0892
16935TIP3    H172296   3.665   1.008   1.264  0.7362 -1.3591  0.8480
16935TIP3    H272297   3.638   0.923   1.141  0.1187 -0.0107  0.0455
16936TIP3   OH272298   0.139   1.903  15.837 -0.2455  0.1575  0.3357
16936TIP3    H172299   0.122   1.996  15.855  3.4750  1.3163 -1.6678
16936TIP3    H272300   0.182   1.871  15.916 -0.1882  0.5283  0.4551
16937TIP3   OH272301   3.717   1.534   4.942 -0.2533 -0.0949 -0.9260
16937TIP3    H172302   3.746   1.442   4.938  0.2931  0.0127  0.1514
16937TIP3    H272303   3.696   1.548   5.035  0.0061  0.9609 -1.0187
16938TIP3   OH272304   5.371   1.504   5.094  0.4849 -0.0867  1.0242
16938TIP3    H172305   5.317   1.430   5.123 -0.4568  0.3067  0.3057
16938TIP3    H272306   5.310   1.578   5.091  0.8609  0.1736 -0.6288
16939TIP3   OH272307   2.210   3.807   7.045  0.1172 -0.1373 -0.1957
16939TIP3    H172308   2.288   3.859   7.065  0.3324 -0.2313 -0.7825
16939TIP3    H272309   2.137   3.858   7.082  0.2562  0.9034 -1.3078
16940TIP3   OH272310   5.873   2.461  13.224  0.3892  0.3070  0.0123
16940TIP3    H172311   5.786   2.421  13.232  0.9273 -0.8947 -0.1013
16940TIP3    H272312   5.876   2.493  13.134 -0.3710  1.4001  0.3598
16941TIP3   OH272313   6.468   0.322  12.609  0.3854 -0.7069 -0.1818
16941TIP3    H172314   6.472   0.335  12.704  2.3240 -1.7850 -0.0883
16941TIP3    H272315   6.502   0.403  12.572 -1.0555  0.0055 -0.0049
16942TIP3   OH272316   4.862   2.709  15.481  0.0423  0.3396  0.3936
16942TIP3    H172317   4.829   2.745  15.563  0.1152 -1.3785  1.1795
16942TIP3    H272318   4.897   2.786  15.434 -0.9596  1.4842  1.4797
16943TIP3   OH272319   5.122   6.222   5.362  0.0234 -0.1370  0.3042
16943TIP3    H172320   5.203   6.227   5.413  0.3733 -0.7458 -0.1905
16943TIP3    H272321   5.120   6.133   5.328 -0.9415 -0.1777  0.4493
16944TIP3   OH272322   5.718   4.232   2.264  0.0848 -0.1352 -0.2254
16944TIP3    H172323   5.624   4.223   2.283  0.0882 -0.5969 -0.4040
16944TIP3    H272324   5.729   4.323   2.238 -0.9448 -0.9205 -3.6130
16945TIP3   OH272325   5.484   3.363   1.064  0.2163 -0.1098  0.7859
16945TIP3    H172326   5.464   3.417   0.987  3.0962  0.0948  0.1330
16945TIP3    H272327   5.470   3.273   1.035 -1.5246  0.1036  0.9224
16946TIP3   OH272328   1.457   6.086  16.838  0.0400 -1.2139 -0.1418
16946TIP3    H172329   1.451   5.999  16.877  0.1234 -0.6266  1.2360
16946TIP3    H272330   1.432   6.145  16.909  1.6635 -0.0121 -0.5296
16947TIP3   OH272331   5.315   0.265  13.971  0.2452 -0.7155 -0.5039
16947TIP3    H172332   5.278   0.196  14.027 -0.5235 -0.5816 -0.8356
16947TIP3    H272333   5.400   0.285  14.011 -0.2910 -0.6231  0.6138
16948TIP3   OH272334   1.230   4.254  14.789  0.1485 -0.1758  0.0719
16948TIP3    H172335   1.164   4.271  14.722 -0.3910 -0.5841  0.4936
16948TIP3    H272336   1.260   4.165  14.770 -0.2282 -0.4070  0.5600
16949TIP3   OH272337   4.046   0.155  10.820 -0.0969  0.5531  0.8215
16949TIP3    H172338   3.958   0.181  10.791 -0.4803 -0.8070  0.7204
16949TIP3    H272339   4.072   0.223  10.882 -1.3657  0.7812  1.1137
16950TIP3   OH272340   6.174   6.737   1.229  0.3247  0.5393 -0.4776
16950TIP3    H172341   6.188   6.831   1.246  1.4581  0.0990  1.1560
16950TIP3    H272342   6.155   6.700   1.315 -1.4178 -0.5322 -1.3204
16951TIP3   OH272343   6.331   4.581   2.352  0.3676 -0.4189 -0.2624
16951TIP3    H172344   6.245   4.587   2.310 -0.3061 -0.2759  1.0904
16951TIP3    H272345   6.371   4.502   2.316 -0.9949 -1.3716  0.2887
16952TIP3   OH272346   2.527   2.998   1.557  0.0620  0.1146 -0.1627
16952TIP3    H172347   2.590   2.926   1.550 -0.2444  0.0029 -2.0325
16952TIP3    H272348   2.579   3.077   1.544 -0.2179  0.0081 -1.9589
16953TIP3   OH272349   4.995   1.363   2.929  0.2770  0.0547 -0.3224
16953TIP3    H172350   4.916   1.328   2.971  1.0371 -0.9171  0.3083
16953TIP3    H272351   4.976   1.358   2.835 -0.3790 -0.2548 -0.1794
16954TIP3   OH272352   3.119   2.006   0.637 -0.7167 -0.6323  0.3030
16954TIP3    H172353   3.059   2.057   0.691 -0.1161  0.7044 -0.2569
16954TIP3    H272354   3.111   2.046   0.550 -0.6202 -1.8410 -0.2676
16955TIP3   OH272355   1.166   5.072  16.240  0.3199 -0.0854 -0.3233
16955TIP3    H172356   1.214   5.104  16.164 -1.1990 -1.0029 -1.6997
16955TIP3    H272357   1.107   5.143  16.264  2.0475  0.8867  1.1202
16956TIP3   OH272358   3.235   2.778  11.292  0.8387 -0.8731  0.0522
16956TIP3    H172359   3.274   2.744  11.212 -0.4171 -1.7960 -0.1853
16956TIP3    H272360   3.257   2.714  11.359  1.7634 -0.1749  0.4298
16957TIP3   OH272361   3.437   5.242  12.562  0.0091  0.5843 -0.4424
16957TIP3    H172362   3.478   5.160  12.590  0.5982  1.0772  0.1721
16957TIP3    H272363   3.423   5.291  12.644  2.0507  2.1829 -0.9966
16958TIP3   OH272364   3.321   2.330   0.642 -0.0767  0.7389 -0.0143
16958TIP3    H172365   3.331   2.235   0.637 -1.6358  0.6235 -1.3925
16958TIP3    H272366   3.380   2.364   0.576 -0.0902  0.6949 -0.0491
16959TIP3   OH272367   0.688   1.502  12.838  0.1156  0.7088 -0.1331
16959TIP3    H172368   0.727   1.481  12.923  0.8209  0.0821 -0.6031
16959TIP3    H272369   0.658   1.593  12.847  1.7629  1.2317  0.2056
16960TIP3   OH272370   2.800   1.363   2.555 -0.0195  0.1651  0.5094
16960TIP3    H172371   2.833   1.338   2.641 -0.0643 -0.8307  0.2391
16960TIP3    H272372   2.706   1.370   2.566 -0.2322 -1.8821  0.0710
16961TIP3   OH272373   0.736   1.865   3.887 -0.2565  0.0565  0.7471
16961TIP3    H172374   0.650   1.824   3.889 -1.0206  1.6470  0.9517
16961TIP3    H272375   0.796   1.792   3.869 -1.4863 -1.2850  1.9064
16962TIP3   OH272376   2.565   0.718   1.117  0.4487  0.4761 -0.2670
16962TIP3    H172377   2.603   0.675   1.041  0.8974 -0.1279  0.2883
16962TIP3    H272378   2.512   0.789   1.081  1.1980  0.6218 -1.1124
16963TIP3   OH272379   2.673   4.279   6.405  0.2671  0.1581  0.2075
16963TIP3    H172380   2.594   4.234   6.434  0.9812 -1.7722 -0.7845
16963TIP3    H272381   2.642   4.362   6.368 -1.4622 -1.3031 -1.6889
16964TIP3   OH272382   2.737   2.869  14.293  0.4325  0.4141 -0.5507
16964TIP3    H172383   2.818   2.852  14.244  1.8413 -1.6257  2.3417
16964TIP3    H272384   2.741   2.963  14.312  2.5572  0.2184  0.1988
16965TIP3   OH272385   5.107   2.463  13.946  0.6219  0.5433 -0.3657
16965TIP3    H172386   5.184   2.460  13.889  0.2859 -0.0027 -0.8006
16965TIP3    H272387   5.033   2.471  13.886  0.2912  0.3015  0.0070
16966TIP3   OH272388   1.321   6.084   1.714  0.4596  0.1901 -0.2867
16966TIP3    H172389   1.343   6.141   1.640  1.3879  0.3558  0.1157
16966TIP3    H272390   1.376   6.115   1.785 -0.5754  0.1514  0.5381
16967TIP3   OH272391   2.756   3.276   6.622  0.4593 -1.0201  0.3664
16967TIP3    H172392   2.817   3.278   6.548  0.5984  0.4265  0.4998
16967TIP3    H272393   2.782   3.350   6.677 -1.4294 -0.3311  0.3979
16968TIP3   OH272394   4.476   3.396  11.746  0.1510  0.2668 -0.1776
16968TIP3    H172395   4.481   3.441  11.662  0.8771  0.8653  0.1766
16968TIP3    H272396   4.480   3.303  11.723 -4.5376  0.1931 -1.1431
16969TIP3   OH272397   1.840   5.406   4.650 -0.2429 -0.3991 -0.1136
16969TIP3    H172398   1.934   5.420   4.663 -0.3860 -0.1647  0.7343
16969TIP3    H272399   1.832   5.368   4.563  0.6706 -0.7524 -0.0432
16970TIP3   OH272400   0.082   5.987   0.152  0.3847 -0.3488 -0.0025
16970TIP3    H172401   0.082   5.972   0.246  0.8906  1.2728  0.2689
16970TIP3    H272402   0.001   5.945   0.121 -0.6100  0.5053  1.3837
16971TIP3   OH272403   2.218   1.275   1.061  0.7875  0.7035 -0.0290
16971TIP3    H172404   2.191   1.200   1.007  0.1398  1.7861 -1.2300
16971TIP3    H272405   2.274   1.327   1.003 -0.3140  2.1359  0.1880
16972TIP3   OH272406   0.209   6.410  13.486 -0.4192  0.0869  0.4139
16972TIP3    H172407   0.244   6.483  13.536  0.7619 -0.8028  0.8902
16972TIP3    H272408   0.202   6.443  13.396 -0.2730  0.9023  0.6998
16973TIP3   OH272409   1.492   4.701  11.096 -0.1050 -0.2615  0.3085
16973TIP3    H172410   1.502   4.747  11.179  1.5128 -0.1887  0.0950
16973TIP3    H272411   1.504   4.609  11.118  0.6194 -0.2146  0.1081
16974TIP3   OH272412   0.820   6.178   0.799  0.4885  0.5807  0.4219
16974TIP3    H172413   0.825   6.246   0.732 -0.1020 -0.7207 -0.9497
16974TIP3    H272414   0.822   6.227   0.882  1.0229  2.2051 -0.5186
16975TIP3   OH272415   5.511   4.612   4.443 -0.0294 -0.2666 -0.0895
16975TIP3    H172416   5.592   4.626   4.393  0.0646 -0.9252 -0.1283
16975TIP3    H272417   5.540   4.584   4.530 -0.1934  1.0624  0.3942
16976TIP3   OH272418   1.761   5.613  11.195  0.4890 -0.6565 -0.2450
16976TIP3    H172419   1.728   5.627  11.106  2.1487  0.0527 -0.7637
16976TIP3    H272420   1.782   5.700  11.228  0.6934 -0.9874  0.5217
16977TIP3   OH272421   0.891   6.540   5.507  0.1236 -0.1781  0.5085
16977TIP3    H172422   0.886   6.629   5.541 -0.2057 -0.2027  0.5258
16977TIP3    H272423   0.862   6.547   5.416  1.1412 -0.0886  0.1822
16978TIP3   OH272424   3.844   5.537  10.604  0.1001 -1.0373 -0.6674
16978TIP3    H172425   3.828   5.629  10.587 -1.0554 -0.7646  1.7950
16978TIP3    H272426   3.937   5.533  10.626 -0.0992 -0.2929  0.3278
16979TIP3   OH272427   5.794   5.788  17.081 -0.2034 -0.1179 -0.0242
16979TIP3    H172428   5.772   5.738  17.003 -0.6920 -1.6954  1.0973
16979TIP3    H272429   5.881   5.756  17.107 -0.5760 -0.4964  0.7783
16980TIP3   OH272430   0.407   3.701  14.449 -0.1943 -0.6356  0.2770
16980TIP3    H172431   0.492   3.710  14.491 -1.2514 -1.5452  2.7030
16980TIP3    H272432   0.364   3.785  14.462 -0.0868 -0.5407  0.0169
16981TIP3   OH272433   0.009   3.074   5.078  0.2789 -0.4927  0.0107
16981TIP3    H172434  -0.042   3.148   5.111  0.6850  0.2320 -0.9738
16981TIP3    H272435  -0.053   3.002   5.075 -0.2978 -0.0133  0.2859
16982TIP3   OH272436   2.829   1.308   2.829  0.0259 -0.5227  0.9040
16982TIP3    H172437   2.813   1.385   2.884 -0.7201  0.6539 -0.8964
16982TIP3    H272438   2.752   1.253   2.843  0.3728 -0.7702  1.8953
16983TIP3   OH272439   3.487   4.055   3.909  0.0701 -0.1118  0.6961
16983TIP3    H172440   3.398   4.075   3.879  0.2570 -0.1484  0.1115
16983TIP3    H272441   3.509   3.973   3.865  1.6822  1.6363 -1.8794
16984TIP3   OH272442   5.776   2.517   1.893 -0.4542  0.4016 -0.1868
16984TIP3    H172443   5.852   2.568   1.921 -0.4613  0.4226 -0.2045
16984TIP3    H272444   5.721   2.580   1.846  0.8726 -0.2445 -2.6735
16985TIP3   OH272445   0.278   4.373   6.522  0.1242  0.2630  0.3736
16985TIP3    H172446   0.205   4.318   6.550 -0.0468 -0.1053 -0.7943
16985TIP3    H272447   0.317   4.404   6.604 -0.3213 -0.8780  1.0324
16986TIP3   OH272448   5.514   3.717  15.212 -0.4718  0.3958  0.4185
16986TIP3    H172449   5.431   3.730  15.167 -0.2594  2.1344  0.5058
16986TIP3    H272450   5.545   3.805  15.232  2.3128 -0.1708 -1.2364
16987TIP3   OH272451   5.729   5.961  16.861  0.3695 -0.3279 -0.5373
16987TIP3    H172452   5.689   5.910  16.931  1.2922 -0.6685 -0.2523
16987TIP3    H272453   5.695   5.923  16.780  1.1490 -1.4782 -0.3280
16988TIP3   OH272454   2.984   2.609  15.526 -0.1838 -0.0744  0.0106
16988TIP3    H172455   3.030   2.544  15.473 -0.6424  1.1832 -1.9858
16988TIP3    H272456   3.041   2.624  15.601  2.2156  0.7303 -1.9148
16989TIP3   OH272457   6.443   2.308   4.419  0.1255 -0.0780  0.5454
16989TIP3    H172458   6.365   2.282   4.371 -0.3361  0.1819  1.1496
16989TIP3    H272459   6.435   2.403   4.430  1.1968  0.1597 -0.5724
16990TIP3   OH272460   2.180   1.021   0.932  0.6289 -0.3835 -0.1042
16990TIP3    H172461   2.154   0.934   0.962 -0.3053 -0.0787 -0.0222
16990TIP3    H272462   2.224   1.005   0.848 -1.3977 -0.7524 -1.1265
16991TIP3   OH272463   0.883   5.149  17.195  0.0651  0.3221 -0.7521
16991TIP3    H172464   0.960   5.138  17.139  0.1274  1.5926 -0.9238
16991TIP3    H272465   0.903   5.225  17.250 -1.1302  0.7500 -0.8968
16992TIP3   OH272466   5.554   1.980  16.402 -0.1967  0.3450  0.3249
16992TIP3    H172467   5.498   1.926  16.345  0.9756  1.7098 -2.2193
16992TIP3    H272468   5.635   1.931  16.411 -0.1641  0.3949  0.3084
16993TIP3   OH272469   6.442   1.188  11.783  0.0743  0.8456 -0.3783
16993TIP3    H172470   6.479   1.101  11.792 -0.9598  0.2307 -1.8243
16993TIP3    H272471   6.515   1.242  11.754  0.3670  0.0993 -1.0580
16994TIP3   OH272472   4.080   2.042  12.317 -0.3180  0.1848 -0.1229
16994TIP3    H172473   4.128   2.113  12.359  1.0612  0.9120 -2.8155
16994TIP3    H272474   4.140   1.968  12.319 -0.2110  0.2427 -0.8027
16995TIP3   OH272475   1.127   2.614   4.601  0.4238 -0.5025 -0.4581
16995TIP3    H172476   1.050   2.670   4.589 -0.0237 -0.9370  0.3502
16995TIP3    H272477   1.198   2.661   4.557 -0.0136  0.5550 -0.0457
16996TIP3   OH272478   0.986   1.570  13.786 -0.2847 -0.0895 -0.3168
16996TIP3    H172479   0.942   1.646  13.749 -0.4717  0.2188  0.5212
16996TIP3    H272480   1.076   1.600  13.804  0.3876 -0.8149 -2.3374
16997TIP3   OH272481   0.742   1.121  12.948 -0.2855 -0.5028  0.0027
16997TIP3    H172482   0.731   1.040  12.898 -0.2560 -0.6295  0.2055
16997TIP3    H272483   0.798   1.176  12.893 -2.0402  0.2119 -1.1425
16998TIP3   OH272484   6.799   2.728   5.724  0.5564  0.2513 -0.1037
16998TIP3    H172485   6.818   2.817   5.693  2.3552  0.0314  0.2848
16998TIP3    H272486   6.751   2.741   5.805  0.3573  0.8634 -0.3108
16999TIP3   OH272487   2.187   2.547   0.869 -0.1222 -0.1959  0.4646
16999TIP3    H172488   2.117   2.611   0.865 -0.5054 -0.6812 -0.8843
16999TIP3    H272489   2.230   2.563   0.953 -1.1502  0.8259  0.8027
17000TIP3   OH272490   1.025   0.784  14.179  0.0359 -0.3770  0.3046
17000TIP3    H172491   0.935   0.775  14.147  1.1495 -2.8448 -2.3913
17000TIP3    H272492   1.074   0.821  14.106  1.6039 -1.0262  0.9886
17001TIP3   OH272493   1.271   2.707   2.920  0.7775 -0.8480 -0.4387
17001TIP3    H172494   1.234   2.694   2.833 -0.2843  1.0933 -0.2968
17001TIP3    H272495   1.196   2.704   2.980  1.1417  0.5289  0.1122
17002TIP3   OH272496   4.778   3.108   5.337 -0.1441 -0.1357 -0.2332
17002TIP3    H172497   4.727   3.033   5.367  1.1976 -1.2853 -0.7940
17002TIP3    H272498   4.821   3.141   5.416  1.0884 -1.3790 -0.3797
17003TIP3   OH272499   3.493   2.701  12.219 -0.5894 -0.7550  0.4617
17003TIP3    H172500   3.580   2.670  12.246 -0.5122 -0.5055  0.5028
17003TIP3    H272501   3.457   2.630  12.168 -0.7185 -1.2197  1.1893
17004TIP3   OH272502   0.000   3.014   3.732 -0.3157  0.0927  0.4361
17004TIP3    H172503   0.069   3.001   3.798  0.7648 -0.6265 -0.8142
17004TIP3    H272504   0.025   2.957   3.660 -1.7972  0.4552 -0.3738
17005TIP3   OH272505   6.472   3.021  12.501  0.3546 -0.1437  0.1239
17005TIP3    H172506   6.496   3.092  12.441 -3.0876  1.4913  0.5285
17005TIP3    H272507   6.497   2.941  12.455 -0.7003  1.1522 -2.8332
17006TIP3   OH272508   4.625   0.629  13.655  0.6315 -0.5649  0.6829
17006TIP3    H172509   4.591   0.716  13.638 -0.6353 -0.8995  1.3828
17006TIP3    H272510   4.575   0.598  13.731 -0.4631 -2.7284 -0.8477
17007TIP3   OH272511   3.295   4.693  11.625 -0.3913 -0.1083  0.0355
17007TIP3    H172512   3.345   4.635  11.568  1.5970  0.9963  0.6123
17007TIP3    H272513   3.301   4.779  11.583 -0.8361  0.2637  0.7240
17008TIP3   OH272514   0.962   6.351   4.621  0.5814  0.1098  0.1289
17008TIP3    H172515   1.012   6.332   4.542  1.5937  2.6223  0.1007
17008TIP3    H272516   0.988   6.283   4.683  2.0591 -0.1457 -0.7457
17009TIP3   OH272517   3.863   3.279   4.625 -0.1723  0.5066 -0.3648
17009TIP3    H172518   3.832   3.307   4.539 -1.4790  1.9642  0.5555
17009TIP3    H272519   3.903   3.193   4.609 -1.4752  0.2064 -2.2085
17010TIP3   OH272520   5.650   1.966  14.339  0.0412  0.2985 -0.1066
17010TIP3    H172521   5.655   1.871  14.327 -0.6333  0.1753  0.5959
17010TIP3    H272522   5.640   1.978  14.433  0.9061  1.1007 -0.1146
17011TIP3   OH272523   3.884   6.016  11.991  0.3842 -0.1071  0.0562
17011TIP3    H172524   3.893   5.972  11.907  3.1619  0.2543  0.1166
17011TIP3    H272525   3.860   6.106  11.969 -1.6852 -0.7038 -0.2088
17012TIP3   OH272526   5.289   4.538   2.788 -0.5269 -0.2650 -0.5905
17012TIP3    H172527   5.259   4.497   2.707  0.2847 -0.8345 -0.6061
17012TIP3    H272528   5.364   4.485   2.815  0.9964  1.6712 -0.9973
17013TIP3   OH272529   4.029   5.229  11.734  0.3904 -0.6397 -0.0700
17013TIP3    H172530   4.015   5.262  11.645  2.8835 -1.1585 -0.7007
17013TIP3    H272531   4.020   5.307  11.789  0.3492 -0.0199 -0.9347
17014TIP3   OH272532   6.228   3.816  14.084  0.1597  0.2551 -0.1923
17014TIP3    H172533   6.223   3.807  14.179  1.3536 -0.6078 -0.1920
17014TIP3    H272534   6.183   3.738  14.051  1.8497 -0.7089 -0.2925
17015TIP3   OH272535   2.542   1.817   1.793  0.0546 -0.7615  0.0843
17015TIP3    H172536   2.480   1.763   1.843 -0.9528 -1.3237 -1.7426
17015TIP3    H272537   2.490   1.853   1.721  1.5256 -0.0748 -0.6489
17016TIP3   OH272538   6.657   0.790  14.957  0.5640 -0.0998  0.6828
17016TIP3    H172539   6.697   0.758  14.876 -1.3111  0.8362 -0.6475
17016TIP3    H272540   6.682   0.882  14.962 -0.7261  0.2921  0.2416
17017TIP3   OH272541   2.777   2.086   4.970  0.5895  0.5106 -0.6922
17017TIP3    H172542   2.807   2.063   5.057 -0.4627  2.7822  0.3155
17017TIP3    H272543   2.682   2.074   4.973  0.6328 -0.2645 -1.8208
17018TIP3   OH272544   5.824   4.206   5.272 -0.4034 -0.1017 -0.1867
17018TIP3    H172545   5.858   4.122   5.302  2.1456  0.7060 -0.7438
17018TIP3    H272546   5.897   4.267   5.280 -1.6968  1.6838 -1.4391
17019TIP3   OH272547   4.755   6.784  15.670 -0.1963  0.0947 -0.7478
17019TIP3    H172548   4.666   6.812  15.649 -0.5016  0.2824  0.7875
17019TIP3    H272549   4.762   6.794  15.764  0.9734 -1.3268 -0.6662
17020TIP3   OH272550   5.859   2.456   3.569  0.0830 -0.1290 -0.9101
17020TIP3    H172551   5.863   2.384   3.506 -0.0606 -0.8677 -0.0954
17020TIP3    H272552   5.929   2.515   3.543  0.0746 -0.4667 -1.7146
17021TIP3   OH272553   2.409   5.095   5.123 -0.3743  0.4657  0.5116
17021TIP3    H172554   2.325   5.052   5.137  0.4561 -0.6491  2.2114
17021TIP3    H272555   2.391   5.163   5.058 -2.4093 -0.2747  0.2789
17022TIP3   OH272556   5.191   1.349  10.982 -0.2167 -0.1279 -0.3077
17022TIP3    H172557   5.154   1.264  10.959  1.3907 -0.7078 -0.8162
17022TIP3    H272558   5.170   1.405  10.907 -1.1817 -0.0907 -0.0175
17023TIP3   OH272559   5.447   5.538  16.049 -0.0916  0.5813 -0.5306
17023TIP3    H172560   5.401   5.532  15.965  1.7345  1.5196 -1.6584
17023TIP3    H272561   5.432   5.454  16.091 -0.2824 -0.2635 -2.2317
17024TIP3   OH272562   4.638   4.466   3.055  0.2619 -0.2185 -0.7372
17024TIP3    H172563   4.703   4.493   2.990  0.3450 -0.2597 -0.6704
17024TIP3    H272564   4.662   4.376   3.077  1.0068  0.2231  0.2963
17025TIP3   OH272565   1.885   1.226  11.759 -0.5036 -0.6243 -0.2773
17025TIP3    H172566   1.965   1.279  11.756 -0.5157 -0.6676 -1.7445
17025TIP3    H272567   1.912   1.143  11.796  0.2069 -0.7487 -1.0574
17026TIP3   OH272568   1.939   2.666  15.676  0.4751  0.5076  0.1040
17026TIP3    H172569   2.014   2.607  15.676  0.4985  0.5337 -0.9298
17026TIP3    H272570   1.946   2.712  15.760  1.7176  0.6286 -0.0446
17027TIP3   OH272571   5.638   6.283   0.005 -0.2148  0.1478  0.3592
17027TIP3    H172572   5.603   6.325  -0.073  0.3850  1.2500  0.6785
17027TIP3    H272573   5.719   6.241  -0.024 -0.9370 -1.0365 -0.0142
17028TIP3   OH272574   2.026   3.317   1.540 -0.3123 -0.0294  0.3933
17028TIP3    H172575   2.111   3.358   1.559 -0.0419 -1.3019  2.1177
17028TIP3    H272576   2.041   3.266   1.460 -0.2285  1.9484 -0.8761
17029TIP3   OH272577   4.870   4.436  16.366  0.3535 -0.1410  0.4214
17029TIP3    H172578   4.840   4.400  16.449 -0.3625 -1.9004 -0.5861
17029TIP3    H272579   4.872   4.531  16.380 -1.6987 -0.2798  1.8066
17030TIP3   OH272580   5.080   3.689  15.834  0.2885 -0.3209  0.4566
17030TIP3    H172581   5.156   3.642  15.801  1.0184  0.6855  0.6920
17030TIP3    H272582   5.068   3.657  15.924  0.7420 -0.1044  0.5930
17031TIP3   OH272583   3.426   1.395  11.776 -0.2873  0.3497 -0.2801
17031TIP3    H172584   3.475   1.313  11.783 -0.5065  0.1750 -0.7498
17031TIP3    H272585   3.336   1.371  11.801 -0.3125  0.4912 -0.2330
17032TIP3   OH272586   3.070   3.560   5.679 -0.1012 -0.1395 -0.1550
17032TIP3    H172587   3.028   3.523   5.601 -1.6167  1.6201 -0.1830
17032TIP3    H272588   3.104   3.483   5.725 -3.5201 -1.6735 -0.0180
17033TIP3   OH272589   1.651   4.856  16.968  0.5320 -0.2606  0.4631
17033TIP3    H172590   1.558   4.876  16.962  0.3344 -1.1089  0.5775
17033TIP3    H272591   1.672   4.814  16.884  1.3367  1.9527 -0.4910
17034TIP3   OH272592   3.282   1.152  15.273 -0.6414 -0.1052  0.4210
17034TIP3    H172593   3.348   1.118  15.333  0.1997 -0.2936 -0.5931
17034TIP3    H272594   3.296   1.104  15.192 -0.2312  1.7957 -0.6598
17035TIP3   OH272595   5.937   3.494   4.286 -0.3389  0.7556  0.4288
17035TIP3    H172596   6.030   3.480   4.302 -0.6644  0.5028  2.2394
17035TIP3    H272597   5.913   3.430   4.220  0.7019  0.5989  0.2020
17036TIP3   OH272598   6.388   0.263  16.910  0.3179  0.1674  0.4387
17036TIP3    H172599   6.383   0.329  16.979 -0.8266 -1.5703  2.0735
17036TIP3    H272600   6.477   0.229  16.916  0.1021 -0.2457  1.3116
17037TIP3   OH272601   6.655   1.349   3.193  0.1782  0.4447  0.3486
17037TIP3    H172602   6.698   1.282   3.140  0.6074  0.7954  0.2499
17037TIP3    H272603   6.564   1.321   3.198  0.2887  0.0229  0.0420
17038TIP3   OH272604   3.602   2.615   3.549  0.6131  0.2017 -0.1150
17038TIP3    H172605   3.509   2.631   3.566  0.1590 -0.5310 -1.8759
17038TIP3    H272606   3.616   2.647   3.460  1.7911 -0.7612 -0.2757
17039TIP3   OH272607   5.817   2.532  15.538  0.4932 -0.3111  0.5289
17039TIP3    H172608   5.738   2.547  15.486  1.7021  0.5833 -1.0542
17039TIP3    H272609   5.824   2.437  15.545 -0.6937 -0.3989  0.6636
17040TIP3   OH272610   4.312   6.789  16.064 -0.5831 -0.5416  0.2494
17040TIP3    H172611   4.253   6.747  16.127 -1.1285  1.6981  1.2768
17040TIP3    H272612   4.388   6.815  16.116 -1.3721  2.0208  0.1913
17041TIP3   OH272613   5.268   4.817   3.928  0.1578  0.4511  0.4554
17041TIP3    H172614   5.360   4.808   3.951  0.9025  2.8282 -1.3946
17041TIP3    H272615   5.244   4.905   3.959 -1.3377  0.0417  0.4765
17042TIP3   OH272616   0.600   2.534  16.118  0.1515 -0.5520 -0.1324
17042TIP3    H172617   0.551   2.466  16.165 -0.0313 -0.8745 -0.7771
17042TIP3    H272618   0.565   2.531  16.029  0.2584  0.2765 -0.2112
17043TIP3   OH272619   3.982   3.747  11.257  0.1754 -0.0594  0.0541
17043TIP3    H172620   3.914   3.714  11.316 -0.4958  4.2674  1.8418
17043TIP3    H272621   4.055   3.768  11.314  1.8456 -1.5008 -1.4749
17044TIP3   OH272622   5.603   0.290   4.935  0.3519 -0.3793  0.6038
17044TIP3    H172623   5.559   0.218   4.890  0.2939 -1.0050  1.6408
17044TIP3    H272624   5.539   0.361   4.934  0.5936 -0.1660 -0.8642
17045TIP3   OH272625   3.468   5.896   4.948 -0.8517 -0.7736  0.0732
17045TIP3    H172626   3.387   5.877   4.900 -0.9541 -2.2483  0.8098
17045TIP3    H272627   3.496   5.812   4.983  1.6878 -0.5203 -1.2066
17046TIP3   OH272628   1.815   2.246   1.616  1.0438 -0.6815  0.1053
17046TIP3    H172629   1.768   2.272   1.536 -0.4718  1.2217  1.5634
17046TIP3    H272630   1.772   2.165   1.643  0.0072 -0.0925  0.2451
17047TIP3   OH272631   0.698   2.960  15.589 -0.1301  0.1194 -0.7856
17047TIP3    H172632   0.715   3.054  15.597 -1.5292  0.2234  1.5014
17047TIP3    H272633   0.777   2.918  15.623 -0.2135  0.4850 -0.1407
17048TIP3   OH272634   6.683   3.093  16.517 -0.1867 -0.2750 -0.1077
17048TIP3    H172635   6.701   3.185  16.502 -0.1441 -0.2271  0.2203
17048TIP3    H272636   6.769   3.054  16.536  0.1853 -0.9286 -2.9829
17049TIP3   OH272637   3.600   5.471   2.352  0.1532 -0.5006  0.1869
17049TIP3    H172638   3.513   5.436   2.335  1.1112 -3.2984  0.8405
17049TIP3    H272639   3.630   5.504   2.267 -0.7077 -1.4379 -0.4807
17050TIP3   OH272640   1.056   2.944  12.611 -0.5509  0.4235 -0.1509
17050TIP3    H172641   1.081   2.987  12.529  0.9315 -1.9165 -0.9856
17050TIP3    H272642   1.136   2.945  12.663 -1.1166  0.6748  0.7122
17051TIP3   OH272643   6.245   6.375   5.387 -0.4586 -0.5259 -0.0233
17051TIP3    H172644   6.242   6.329   5.472  0.8269  0.0033  0.3221
17051TIP3    H272645   6.178   6.442   5.394  1.2403  1.0635  1.5101
17052TIP3   OH272646   5.636   1.442  15.469  0.0461  0.1808 -0.8509
17052TIP3    H172647   5.568   1.445  15.537 -1.6744  0.9143 -2.5524
17052TIP3    H272648   5.688   1.365  15.491 -0.6274  0.2724  1.1605
17053TIP3   OH272649   4.333   3.467  15.029 -0.1598  0.5009  0.4914
17053TIP3    H172650   4.336   3.550  14.981  1.1310  0.3701  0.3260
17053TIP3    H272651   4.251   3.427  15.001  0.7064  0.2874 -1.8777
17054TIP3   OH272652   4.602   6.116  15.359 -0.5061 -0.3836 -0.1605
17054TIP3    H172653   4.678   6.169  15.381 -0.1205 -1.0341  0.0917
17054TIP3    H272654   4.627   6.070  15.279 -1.3033  0.7508 -1.0711
17055TIP3   OH272655   3.518   0.987  14.596  0.1280  0.2278  0.5608
17055TIP3    H172656   3.577   0.974  14.522  0.6763  1.8026  0.7012
17055TIP3    H272657   3.574   0.980  14.673 -0.4084 -1.2226  0.8420
17056TIP3   OH272658   1.215   4.519   0.313  0.0046  0.7515 -0.3620
17056TIP3    H172659   1.126   4.521   0.278 -0.5023  1.6413  0.9402
17056TIP3    H272660   1.260   4.590   0.266  1.2691 -2.3654 -4.1180
17057TIP3   OH272661   5.930   1.046   4.707 -0.8237  0.3345  0.3732
17057TIP3    H172662   5.993   1.119   4.709 -1.8813  1.2426  1.8302
17057TIP3    H272663   5.897   1.045   4.617  0.7541  0.2998 -0.2164
17058TIP3   OH272664   4.896   4.897   5.502  0.0587 -0.3483 -0.1820
17058TIP3    H172665   4.829   4.897   5.433 -0.2240 -0.8789  0.0811
17058TIP3    H272666   4.947   4.818   5.486  1.9571  1.1603 -1.6333
17059TIP3   OH272667   4.139   5.687   1.604 -0.6642 -0.0567  0.0388
17059TIP3    H172668   4.171   5.614   1.657  1.1496 -0.9050 -2.1556
17059TIP3    H272669   4.052   5.660   1.576 -1.5132  0.2561  2.2374
17060TIP3   OH272670   0.379   4.885  14.265 -0.9657 -0.1313  0.0478
17060TIP3    H172671   0.448   4.946  14.240 -0.8579 -0.7765 -1.2544
17060TIP3    H272672   0.298   4.934  14.252 -0.8250  0.1086  0.0729
17061TIP3   OH272673   3.035   5.202   5.585  0.3292  0.2172 -0.0225
17061TIP3    H172674   3.064   5.209   5.494  0.7404 -0.6689  0.0434
17061TIP3    H272675   2.970   5.132   5.584  0.1358  0.3914  0.3233
17062TIP3   OH272676   3.867   3.374   4.889  0.7773 -0.0543  0.4811
17062TIP3    H172677   3.847   3.332   4.805  1.1142  0.4795  0.1333
17062TIP3    H272678   3.784   3.414   4.916  1.0371  1.0296 -0.3176
17063TIP3   OH272679   2.121   5.601   4.097  0.0578  0.3638 -0.2352
17063TIP3    H172680   2.061   5.594   4.171 -1.1637  0.5489 -1.1885
17063TIP3    H272681   2.148   5.511   4.080 -1.7245 -0.0089 -1.2128
17064TIP3   OH272682   1.458   3.635   1.428 -0.5670 -0.1953  0.4098
17064TIP3    H172683   1.448   3.565   1.493  0.9517  0.1737  1.0790
17064TIP3    H272684   1.542   3.616   1.386  0.4300  1.8115  1.3884
17065TIP3   OH272685   6.658   3.062  12.890 -0.4770 -0.5086 -0.3033
17065TIP3    H172686   6.706   3.014  12.822  1.1297  0.5944  0.0220
17065TIP3    H272687   6.719   3.131  12.918 -1.4185 -0.4720  1.7116
17066TIP3   OH272688   5.574   2.986  14.679  0.1486 -0.4403 -0.5526
17066TIP3    H172689   5.532   2.906  14.709  0.3795 -0.4894 -0.3649
17066TIP3    H272690   5.566   3.046  14.753  0.1066 -0.3384 -0.6392
17067TIP3   OH272691   2.271   5.869  12.296 -0.0966  0.1178 -0.0337
17067TIP3    H172692   2.215   5.920  12.356  0.9990  0.9095  0.3274
17067TIP3    H272693   2.215   5.853  12.220 -0.2697  2.4345 -0.4388
17068TIP3   OH272694   2.027   1.521   4.856 -0.0745  0.3746  0.2511
17068TIP3    H172695   2.101   1.500   4.913  0.2485  0.9139  0.0335
17068TIP3    H272696   2.032   1.616   4.845  0.2615  0.1933 -1.2130
17069TIP3   OH272697   4.837   6.722  14.286  0.2093  0.4162  1.0268
17069TIP3    H172698   4.818   6.630  14.271 -0.8173  0.9178 -0.9178
17069TIP3    H272699   4.871   6.725  14.376 -1.5691 -1.5936  1.8171
17070TIP3   OH272700   6.022   1.277  13.972 -0.1901 -0.0862 -0.3366
17070TIP3    H172701   5.943   1.280  13.918 -0.7273 -1.0023  0.3872
17070TIP3    H272702   6.092   1.253  13.911 -1.0620 -2.7512 -0.3681
17071TIP3   OH272703   3.927   4.486  10.354 -0.1862  0.1305 -0.2247
17071TIP3    H172704   3.984   4.490  10.277  0.3206 -1.6109  0.0265
17071TIP3    H272705   3.869   4.561  10.345  0.9458  0.8869 -1.4499
17072TIP3   OH272706   1.236   0.929   0.115  0.9286  0.0074 -0.0081
17072TIP3    H172707   1.178   0.952   0.042  0.8987  1.0359  0.3385
17072TIP3    H272708   1.317   0.900   0.073  0.7384  0.1275 -0.4633
17073TIP3   OH272709   3.898   3.356   1.905  0.5816  0.2825 -0.5068
17073TIP3    H172710   3.937   3.417   1.843  2.0311  1.3609  1.4307
17073TIP3    H272711   3.811   3.391   1.922 -0.1117 -0.4125 -2.4318
17074TIP3   OH272712   3.697   5.482   1.751  0.0646  0.3562 -0.5345
17074TIP3    H172713   3.766   5.418   1.733 -0.9655 -1.1758  0.8581
17074TIP3    H272714   3.745   5.563   1.773  1.3798 -0.2001 -1.2966
17075TIP3   OH272715   1.793   1.136   0.370  0.0998 -0.1462  0.3951
17075TIP3    H172716   1.792   1.098   0.458 -1.1317 -0.2232  0.3514
17075TIP3    H272717   1.742   1.216   0.377 -1.0302 -0.7776 -0.5276
17076TIP3   OH272718   4.429   3.477   1.826  0.0374 -0.0145 -0.5265
17076TIP3    H172719   4.522   3.483   1.848 -0.3250  3.2359  0.3500
17076TIP3    H272720   4.384   3.470   1.910 -0.5744 -0.4897 -0.8855
17077TIP3   OH272721   2.704   4.606   1.001 -0.3937  0.0788 -0.1040
17077TIP3    H172722   2.675   4.638   0.916 -1.2319 -0.8173 -0.1574
17077TIP3    H272723   2.773   4.543   0.981 -1.3843 -1.0035 -0.1956
17078TIP3   OH272724   4.239   6.489   3.783 -0.3192 -0.1588  0.2819
17078TIP3    H172725   4.217   6.528   3.699 -0.7879  1.6773  1.2497
17078TIP3    H272726   4.330   6.461   3.774 -0.6991 -0.9744 -1.1844
17079TIP3   OH272727   4.763   6.255  11.938  0.3379 -0.0794  0.8048
17079TIP3    H172728   4.831   6.322  11.949  0.7719 -0.0971 -1.4749
17079TIP3    H272729   4.686   6.304  11.909  0.4238 -0.4512 -0.0804
17080TIP3   OH272730   4.306   4.319   3.296  0.2738  0.2491  0.3044
17080TIP3    H172731   4.264   4.240   3.332 -0.0811  0.5279  0.4992
17080TIP3    H272732   4.260   4.335   3.214  2.1723 -1.3487 -1.1355
17081TIP3   OH272733   0.732   2.680   3.324 -0.8060 -0.4198  0.1266
17081TIP3    H172734   0.710   2.724   3.407 -2.4155 -0.6549 -0.1627
17081TIP3    H272735   0.798   2.615   3.349 -1.2623 -0.4801  1.2412
17082TIP3   OH272736   2.104   4.655  14.279  0.0064  0.2472 -0.2361
17082TIP3    H172737   2.154   4.728  14.315 -0.9895  0.2986  1.0475
17082TIP3    H272738   2.019   4.693  14.255 -1.2761 -0.8875  2.3460
17083TIP3   OH272739   6.530   6.118   4.843 -0.2614 -0.1762  0.0251
17083TIP3    H172740   6.514   6.056   4.915 -1.7988  0.3735  0.1808
17083TIP3    H272741   6.540   6.203   4.886  2.1470 -0.3494 -0.1655
17084TIP3   OH272742   1.817   1.759   3.275  0.3372  0.0264  0.1957
17084TIP3    H172743   1.859   1.703   3.210  0.5649 -0.3396  0.6574
17084TIP3    H272744   1.729   1.774   3.240  0.0102 -1.2502  0.4276
17085TIP3   OH272745   1.540   2.561  12.924 -0.7299  0.1217 -0.2175
17085TIP3    H172746   1.502   2.500  12.861  0.2091 -2.1650  1.3939
17085TIP3    H272747   1.470   2.578  12.986 -1.0178  0.7674 -0.7141
17086TIP3   OH272748   0.037   3.479  15.923 -0.7798  0.1512 -0.2337
17086TIP3    H172749   0.120   3.520  15.946 -1.6967  1.7066  0.4138
17086TIP3    H272750  -0.022   3.502  15.995 -1.5613 -1.6121 -0.2843
17087TIP3   OH272751   4.883   0.618  13.852 -0.1815  0.3519  0.4745
17087TIP3    H172752   4.921   0.623  13.939 -2.2877  0.8742  1.4000
17087TIP3    H272753   4.903   0.702  13.811  0.5012  0.2389  0.5750
17088TIP3   OH272754   0.207   0.516   0.059 -0.2615  0.2864 -0.0343
17088TIP3    H172755   0.301   0.507   0.079 -0.3019  1.0938  0.5150
17088TIP3    H272756   0.163   0.496   0.142 -0.6270 -1.0188 -0.5214
17089TIP3   OH272757   4.645   5.257  14.889  0.5452  0.1011  0.9751
17089TIP3    H172758   4.671   5.322  14.953 -0.1835  0.9780  0.3911
17089TIP3    H272759   4.698   5.276  14.812  0.3555 -0.0143  0.8143
17090TIP3   OH272760   4.601   6.232   0.685 -0.0506 -0.6195  0.4988
17090TIP3    H172761   4.666   6.202   0.621 -0.6039 -0.8062  0.0173
17090TIP3    H272762   4.602   6.165   0.753  0.1083 -0.7358  0.3830
17091TIP3   OH272763   3.436   6.339   1.513  0.1058 -0.5392 -0.2817
17091TIP3    H172764   3.507   6.377   1.565 -0.4280  2.3064 -1.5284
17091TIP3    H272765   3.358   6.350   1.567  0.1866 -1.2732 -0.0105
17092TIP3   OH272766   2.846   6.781   3.580  0.3613 -0.5343 -0.4341
17092TIP3    H172767   2.917   6.789   3.644 -0.7028 -0.0452  0.7120
17092TIP3    H272768   2.770   6.755   3.632 -0.0878 -1.9701 -1.7783
17093TIP3   OH272769   0.482   5.603   6.260  0.6740  0.5128 -0.1290
17093TIP3    H172770   0.540   5.657   6.314 -0.7230  0.7632  1.1388
17093TIP3    H272771   0.405   5.588   6.314  1.1097 -2.9612 -0.3747
17094TIP3   OH272772   1.038   0.984  12.613  0.4392  0.1331 -0.2787
17094TIP3    H172773   1.051   0.919  12.545  0.9180 -1.6026  1.4095
17094TIP3    H272774   0.950   1.018  12.597  1.0488  0.6753 -2.5008
17095TIP3   OH272775   0.811   4.293   5.584 -0.1514  0.0849 -0.0760
17095TIP3    H172776   0.871   4.348   5.635 -3.3999  1.1740  2.6987
17095TIP3    H272777   0.812   4.208   5.628  1.5543 -0.8647 -1.8265
17096TIP3   OH272778   4.496   5.936   3.428 -0.1551  0.0035 -0.0250
17096TIP3    H172779   4.563   5.869   3.413 -0.6373 -0.4978  0.0434
17096TIP3    H272780   4.417   5.900   3.387 -0.7525 -0.0717  1.1776
17097TIP3   OH272781   1.839   1.161  17.178 -0.1834 -0.5361 -0.3245
17097TIP3    H172782   1.922   1.113  17.183 -0.4296 -0.9504 -0.1968
17097TIP3    H272783   1.865   1.253  17.178  0.3405 -0.6779 -1.7139
17098TIP3   OH272784   3.571   0.177   2.006 -0.5498  0.0670  0.5619
17098TIP3    H172785   3.651   0.151   1.961 -1.4904 -1.6188 -0.1981
17098TIP3    H272786   3.567   0.272   1.995  0.3620 -0.0599 -1.0543
17099TIP3   OH272787   3.379   1.089   3.261 -0.5478  0.4745 -0.4304
17099TIP3    H172788   3.455   1.145   3.252 -0.2457  0.2433  0.6042
17099TIP3    H272789   3.414   1.006   3.295 -1.5013  1.1012  2.2448
17100TIP3   OH272790   0.041   3.689  12.139  0.1892  0.5373  0.1143
17100TIP3    H172791  -0.014   3.753  12.095  2.1017  1.7303 -0.6020
17100TIP3    H272792   0.103   3.741  12.191  0.3474 -0.7760  1.2902
17101TIP3   OH272793   1.056   5.966   1.137  0.1387  0.1262 -0.3438
17101TIP3    H172794   1.142   5.993   1.106  0.3298  0.9510  0.8521
17101TIP3    H272795   1.045   5.877   1.104  1.3567  0.0954 -0.6891
17102TIP3   OH272796   4.348   3.647   3.215 -0.0194 -0.4569  0.3730
17102TIP3    H172797   4.287   3.643   3.288  0.5966  0.5709  0.9568
17102TIP3    H272798   4.328   3.730   3.171  1.2637  0.1263  0.8564
17103TIP3   OH272799   4.615   1.996  16.642  0.1193  0.2763  0.0201
17103TIP3    H172800   4.542   2.006  16.703  0.3747  0.1210  0.3529
17103TIP3    H272801   4.607   2.071  16.583  1.2477  1.7454  1.6848
17104TIP3   OH272802   4.504   6.402  12.076  0.1208 -0.4632 -0.3555
17104TIP3    H172803   4.434   6.349  12.114  0.7423  0.1661  1.7211
17104TIP3    H272804   4.466   6.440  11.997 -1.5699 -0.8717  0.2538
17105TIP3   OH272805   2.740   4.970   2.858 -0.3409  0.3217 -0.4379
17105TIP3    H172806   2.785   5.052   2.879  2.2725 -0.5616 -2.1829
17105TIP3    H272807   2.795   4.930   2.790 -1.4208 -2.9763  0.5300
17106TIP3   OH272808   6.211   0.164   2.768  0.3809  0.2660  0.2541
17106TIP3    H172809   6.252   0.083   2.739  1.4225  1.0581 -0.5034
17106TIP3    H272810   6.253   0.184   2.851  0.7607  0.4975  0.0080
17107TIP3   OH272811   5.928   6.725   4.854  0.7560 -0.4730  0.2539
17107TIP3    H172812   6.022   6.711   4.844  1.0013 -0.3460  2.1352
17107TIP3    H272813   5.921   6.790   4.925 -0.7758 -1.5961  1.1596
17108TIP3   OH272814   2.740   0.153   0.188  0.0934 -0.1682 -0.4170
17108TIP3    H172815   2.775   0.234   0.150 -0.0875  0.1471  0.0772
17108TIP3    H272816   2.753   0.087   0.120  0.0998  0.3115 -0.8870
17109TIP3   OH272817   2.380   2.448  17.090  0.0040 -0.4610  0.2756
17109TIP3    H172818   2.419   2.502  17.158 -1.8424 -1.2397  2.0450
17109TIP3    H272819   2.287   2.445  17.113 -0.5577 -1.2125 -1.9747
17110TIP3   OH272820   3.654   3.753  16.290  0.3737  0.4911  0.6237
17110TIP3    H172821   3.705   3.761  16.209  0.6935  0.0225  0.7742
17110TIP3    H272822   3.623   3.662  16.289  0.7896  0.3418  1.2694
17111TIP3   OH272823   1.479   5.077  13.165 -0.1569 -0.2022 -0.2457
17111TIP3    H172824   1.432   5.115  13.091 -0.0813  0.7827  0.2087
17111TIP3    H272825   1.459   4.983  13.160 -1.0446  0.0159 -0.8630
17112TIP3   OH272826   4.393   2.513  13.060 -0.2487  0.0207  0.0855
17112TIP3    H172827   4.467   2.458  13.087 -0.3920  0.2161  0.8918
17112TIP3    H272828   4.320   2.481  13.111 -0.3936  0.7919  0.3616
17113TIP3   OH272829   5.358   2.942   3.180  0.1415  0.1793 -0.0334
17113TIP3    H172830   5.447   2.957   3.213 -0.3190 -0.1803  1.3991
17113TIP3    H272831   5.370   2.928   3.086  1.3524  2.4499 -0.2597
17114TIP3   OH272832   2.698   6.758  15.670  0.5154  0.0103 -0.1853
17114TIP3    H172833   2.662   6.687  15.618  0.9550  1.6234 -2.7534
17114TIP3    H272834   2.779   6.721  15.707 -0.0827 -1.3181 -0.1756
17115TIP3   OH272835   5.753   4.249  13.885 -0.4630  0.2297  0.2803
17115TIP3    H172836   5.744   4.344  13.884 -0.3503  0.2645  1.3597
17115TIP3    H272837   5.845   4.234  13.906 -0.9025 -0.1086  2.0451
17116TIP3   OH272838   1.764   0.985   2.527 -0.2917 -0.4355 -0.1760
17116TIP3    H172839   1.795   0.897   2.506 -0.2649 -0.0610 -1.7449
17116TIP3    H272840   1.823   1.044   2.479  0.1405  0.4750  1.4314
17117TIP3   OH272841   2.394   4.723  11.728 -0.3734 -1.0764  0.3731
17117TIP3    H172842   2.463   4.669  11.766 -2.4206 -2.3592  2.4130
17117TIP3    H272843   2.360   4.671  11.655  1.2100 -0.1523 -1.0563
17118TIP3   OH272844   4.829   3.555  12.997  0.2008  0.0311 -0.0840
17118TIP3    H172845   4.814   3.461  12.991  1.5806 -0.1593 -0.7974
17118TIP3    H272846   4.870   3.578  12.914  1.0785  1.0254  0.6108
17119TIP3   OH272847   0.940   4.306  16.588  0.2144 -0.3541  0.9136
17119TIP3    H172848   0.973   4.365  16.521  0.5016 -0.7766  0.6775
17119TIP3    H272849   0.881   4.246  16.541  1.3219 -1.3848  0.8244
17120TIP3   OH272850   4.949   2.633  15.921 -0.2959  0.3829  0.4191
17120TIP3    H172851   5.002   2.555  15.936 -0.2505  0.6356  1.5998
17120TIP3    H272852   5.006   2.690  15.869 -0.7491 -0.8159 -1.4470
17121TIP3   OH272853   2.098   2.100  12.189 -0.0547 -0.2005 -0.1497
17121TIP3    H172854   2.164   2.080  12.122  0.1083  0.1372 -0.0911
17121TIP3    H272855   2.015   2.103  12.141  0.1268  0.5515 -0.4232
17122TIP3   OH272856   2.648   5.069  17.061 -0.1787  0.1189  0.2462
17122TIP3    H172857   2.591   5.126  17.010 -0.7097 -0.9440 -0.3617
17122TIP3    H272858   2.716   5.128  17.095 -0.7912  1.1316 -0.2532
17123TIP3   OH272859   1.229   4.128  15.676 -0.1774  0.1795 -0.0561
17123TIP3    H172860   1.217   4.114  15.582  0.2675  1.7810 -0.3740
17123TIP3    H272861   1.280   4.209  15.681 -0.2316  0.1220  1.5706
17124TIP3   OH272862   4.808   1.828   4.243 -0.3520  0.6379  0.4992
17124TIP3    H172863   4.748   1.753   4.246 -1.9130  1.8846  3.1044
17124TIP3    H272864   4.798   1.869   4.329  0.3932  3.8733 -0.8880
17125TIP3   OH272865   2.382   5.805  17.218 -0.2285 -0.2483  0.3528
17125TIP3    H172866   2.416   5.854  17.294 -1.1854  0.8324  0.0996
17125TIP3    H272867   2.406   5.714  17.236  0.0525  0.0702  1.6844
17126TIP3   OH272868   3.120   2.997   0.960 -0.3387 -0.0396 -0.1296
17126TIP3    H172869   3.145   3.019   1.050 -1.0354 -0.6686  0.2142
17126TIP3    H272870   3.150   3.072   0.908 -1.8974  1.3491  0.9241
17127TIP3   OH272871   6.138   5.967  15.800 -0.0519  0.3119 -0.2165
17127TIP3    H172872   6.065   5.969  15.863 -0.5416  1.3868 -0.7911
17127TIP3    H272873   6.109   6.025  15.730  0.7608 -0.3946 -1.1395
17128TIP3   OH272874   5.201   3.511   2.752 -0.4411 -0.0589 -0.4106
17128TIP3    H172875   5.146   3.461   2.692 -0.6760 -0.0834 -0.1763
17128TIP3    H272876   5.195   3.464   2.835 -3.1306  2.0092  0.6552
17129TIP3   OH272877   6.801   1.203  11.050 -0.4794 -0.3413 -0.4906
17129TIP3    H172878   6.709   1.221  11.031 -0.9099 -0.4535  1.3684
17129TIP3    H272879   6.799   1.120  11.097  0.4659  0.1205  0.3864
17130TIP3   OH272880   4.429   2.023   5.297 -0.4140 -0.8821 -0.6135
17130TIP3    H172881   4.443   1.934   5.328 -0.5732 -0.6831  0.0311
17130TIP3    H272882   4.512   2.068   5.315 -0.4389 -0.8170 -0.6585
17131TIP3   OH272883   3.899   2.000   1.072  0.1813 -0.6378  0.0926
17131TIP3    H172884   3.893   2.035   0.983 -1.9950 -1.2492 -0.0345
17131TIP3    H272885   3.809   1.999   1.103  1.0077  0.3110  2.6224
17132TIP3   OH272886   4.214   2.680   2.280  0.5644 -0.8676 -0.4870
17132TIP3    H172887   4.156   2.737   2.229  0.9718 -0.9269 -1.0132
17132TIP3    H272888   4.212   2.717   2.368  1.2801  0.3068 -0.9606
17133TIP3   OH272889   4.816   1.528  11.143  0.0100 -0.0469  0.3458
17133TIP3    H172890   4.828   1.596  11.209 -0.7664 -1.0149  1.4892
17133TIP3    H272891   4.735   1.553  11.098  0.6457  0.7233 -0.4028
17134TIP3   OH272892   3.122   4.478  11.208 -0.1968 -0.5449 -0.1804
17134TIP3    H172893   3.158   4.559  11.244  0.1230 -0.7168 -0.1063
17134TIP3    H272894   3.196   4.437  11.163 -0.7988  0.1112 -1.8244
17135TIP3   OH272895   6.013   4.528  16.721 -0.0028 -0.0286 -0.2317
17135TIP3    H172896   6.097   4.558  16.753  0.7974  0.5818 -2.7874
17135TIP3    H272897   5.956   4.605  16.726 -0.4197 -0.4347  1.4732
17136TIP3   OH272898   2.977   1.325   3.194 -0.0256 -0.4719  0.6432
17136TIP3    H172899   3.058   1.365   3.163 -1.6148  1.9274 -0.5705
17136TIP3    H272900   2.944   1.386   3.260 -2.3590  0.1931 -1.0565
17137TIP3   OH272901   3.552   4.972   1.523 -0.0940 -0.0596 -0.6989
17137TIP3    H172902   3.551   4.991   1.617  3.1698  0.5687 -0.7336
17137TIP3    H272903   3.466   4.936   1.505 -1.0039  0.4158  2.4154
17138TIP3   OH272904   5.178   1.247   1.422 -0.2580  0.5136  0.0976
17138TIP3    H172905   5.168   1.192   1.344 -1.7544 -0.0267  0.6567
17138TIP3    H272906   5.168   1.187   1.495 -0.7238  1.3381  0.7145
17139TIP3   OH272907   1.301   5.698  15.470  0.2896 -0.1612 -0.5124
17139TIP3    H172908   1.279   5.770  15.410 -1.7626 -0.3069  0.0063
17139TIP3    H272909   1.227   5.637  15.461  2.1166 -2.3380 -1.1267
17140TIP3   OH272910   3.957   0.445   1.163  0.0122  0.3427 -0.3095
17140TIP3    H172911   3.875   0.454   1.114 -1.5660  1.7539  2.4456
17140TIP3    H272912   3.939   0.374   1.226  1.6954 -0.8470 -1.1205
17141TIP3   OH272913   5.640   3.887   2.060  0.4132 -0.2030  0.1555
17141TIP3    H172914   5.633   3.826   1.986  0.6735  0.3433 -0.3235
17141TIP3    H272915   5.646   3.973   2.019 -0.5299  0.1958  0.8409
17142TIP3   OH272916   2.805   5.246   1.258  0.2265  0.0534  0.2829
17142TIP3    H172917   2.729   5.241   1.315 -0.5346  1.6171 -0.5759
17142TIP3    H272918   2.834   5.155   1.249 -0.3045 -0.3288  2.2331
17143TIP3   OH272919   1.059   0.617  11.354  0.1646 -0.3142 -0.3853
17143TIP3    H172920   1.059   0.657  11.441 -1.6525  1.5543 -1.1829
17143TIP3    H272921   1.105   0.534  11.365  1.1821  0.5295  2.0483
17144TIP3   OH272922   2.385   4.507   3.153 -0.0244 -0.3152 -0.4561
17144TIP3    H172923   2.475   4.536   3.171  0.0840 -1.1915  0.4463
17144TIP3    H272924   2.385   4.414   3.176 -1.2754 -0.2204 -0.0603
17145TIP3   OH272925   0.571   2.387  15.489  0.0187  0.5104  0.6896
17145TIP3    H172926   0.602   2.477  15.480  0.0526  0.4206 -0.1000
17145TIP3    H272927   0.597   2.361  15.577  1.0032  0.8969  0.5132
17146TIP3   OH272928   6.212   2.257  13.560 -0.4352 -0.2309 -0.0642
17146TIP3    H172929   6.235   2.321  13.627  0.2488  0.3427 -0.8212
17146TIP3    H272930   6.191   2.310  13.483 -1.1658 -0.8800 -0.3128
17147TIP3   OH272931   1.717   6.042   1.837  0.1431 -0.0995  0.2715
17147TIP3    H172932   1.686   6.010   1.752 -0.3715 -1.0037  0.7845
17147TIP3    H272933   1.638   6.074   1.881  0.6520  1.8448 -0.2121
17148TIP3   OH272934   4.608   0.651  17.104 -0.0859 -0.0289  0.4663
17148TIP3    H172935   4.672   0.603  17.050  0.6115  1.3528  0.0538
17148TIP3    H272936   4.660   0.686  17.177 -0.9108 -1.3314  1.7069
17149TIP3   OH272937   6.538   2.069  12.892 -0.2400  0.2387  0.0814
17149TIP3    H172938   6.462   2.025  12.855  0.9626 -0.1840 -1.9453
17149TIP3    H272939   6.564   2.014  12.966 -2.8202  1.2322  1.8145
17150TIP3   OH272940   4.069   6.627  14.487  0.3120 -0.1602  0.3158
17150TIP3    H172941   4.037   6.550  14.438 -0.3527  0.1223  0.2986
17150TIP3    H272942   4.034   6.702  14.439 -2.0393  0.0961  2.3486
17151TIP3   OH272943   2.610   0.961  11.962 -0.0459  0.2569 -0.4182
17151TIP3    H172944   2.635   0.898  11.894 -0.6099  0.2142 -0.5837
17151TIP3    H272945   2.635   0.918  12.044  0.5908  0.2898 -0.5915
17152TIP3   OH272946   2.251   0.535  11.614 -0.1951 -0.4799  0.2177
17152TIP3    H172947   2.162   0.556  11.586 -0.7233 -0.7543  1.6388
17152TIP3    H272948   2.307   0.596  11.565 -1.3072  0.9007  0.6234
17153TIP3   OH272949   1.527   4.135   0.560 -0.0627 -0.2930  0.2689
17153TIP3    H172950   1.451   4.183   0.528  0.1718  0.9920  1.5655
17153TIP3    H272951   1.500   4.100   0.645  0.8896  0.5077  0.9234
17154TIP3   OH272952   1.284   2.542  15.221  0.2470 -0.0177 -0.4547
17154TIP3    H172953   1.342   2.586  15.285 -1.1565 -0.3489  1.0897
17154TIP3    H272954   1.230   2.483  15.274 -1.4107  0.1742 -1.8750
17155TIP3   OH272955   2.335   3.073   6.421  0.0356 -0.0738  0.5254
17155TIP3    H172956   2.311   2.991   6.463 -0.1716  0.5551  1.6459
17155TIP3    H272957   2.374   3.126   6.491  0.2181  0.7609 -0.1930
17156TIP3   OH272958   3.291   6.235   4.855 -0.2415 -0.3745 -0.9941
17156TIP3    H172959   3.247   6.176   4.916 -0.1582  1.0322  0.4416
17156TIP3    H272960   3.356   6.281   4.908  0.2902  0.3848 -2.2852
17157TIP3   OH272961   5.914   3.014   3.707 -0.5836  0.8283 -0.1929
17157TIP3    H172962   6.008   3.024   3.692 -0.6908  2.3719  0.1722
17157TIP3    H272963   5.878   2.996   3.620  0.0125  0.4419 -0.3641
17158TIP3   OH272964   1.310   5.829   5.450 -0.0055 -0.1903 -0.5867
17158TIP3    H172965   1.393   5.787   5.474  0.3566  0.4219 -0.7455
17158TIP3    H272966   1.323   5.860   5.360 -0.0928  0.6638 -0.3150
17159TIP3   OH272967   5.715   1.505   4.100  0.0822  0.4733  0.4549
17159TIP3    H172968   5.624   1.513   4.128 -0.2543  3.2198 -1.2333
17159TIP3    H272969   5.766   1.545   4.170 -0.3053  2.0660 -0.1526
17160TIP3   OH272970   4.167   6.725  14.721  0.1688  0.4860  0.0167
17160TIP3    H172971   4.192   6.663  14.789  0.5049  0.0764 -0.4762
17160TIP3    H272972   4.139   6.671  14.647  0.2418  0.9228 -0.3354
17161TIP3   OH272973   3.459   1.787   1.606  0.0097  0.1988 -0.6659
17161TIP3    H172974   3.389   1.850   1.626  0.9743  0.7037  1.1743
17161TIP3    H272975   3.459   1.726   1.680  1.5470  0.2369 -0.6264
17162TIP3   OH272976   3.975   5.174   3.396  1.0766 -0.2390 -0.1649
17162TIP3    H172977   4.070   5.184   3.386  1.1280  0.5097  1.0617
17162TIP3    H272978   3.940   5.261   3.377  0.7410 -0.1911  0.6592
17163TIP3   OH272979   3.640   3.993   5.086 -0.1333 -0.6572 -0.1273
17163TIP3    H172980   3.627   3.907   5.127  0.1128 -0.2218  0.8585
17163TIP3    H272981   3.604   4.055   5.149 -1.8402 -0.1440 -1.5556
17164TIP3   OH272982   1.521   1.914   4.767 -0.2318 -0.2576 -0.4479
17164TIP3    H172983   1.499   1.990   4.714 -0.3920 -0.3076 -0.4528
17164TIP3    H272984   1.442   1.860   4.767 -0.9278  0.6942  1.4722
17165TIP3   OH272985   0.469   1.287   6.268  0.7091 -0.2442 -0.1729
17165TIP3    H172986   0.374   1.288   6.254  0.6959  1.5605 -0.0815
17165TIP3    H272987   0.490   1.195   6.283 -0.7955 -0.8738 -1.7356
17166TIP3   OH272988   6.218   4.603  15.096 -0.0981  0.4560 -0.7456
17166TIP3    H172989   6.169   4.521  15.106 -0.9084  1.0546  0.3570
17166TIP3    H272990   6.197   4.653  15.175  0.9532  1.4376 -1.0742
17167TIP3   OH272991   1.616   3.080  11.766 -0.1456 -0.1404  0.6245
17167TIP3    H172992   1.691   3.041  11.720  0.4489  0.2263  1.2797
17167TIP3    H272993   1.653   3.119  11.844 -0.8687  1.0529  0.3859
17168TIP3   OH272994   1.495   6.355  13.662 -0.8072  0.6681  0.1672
17168TIP3    H172995   1.548   6.367  13.741  1.7697  1.1602 -1.5537
17168TIP3    H272996   1.490   6.260  13.651 -0.4283  0.6080  0.4739
17169TIP3   OH272997   2.196   3.559   2.278  0.3328  0.5165  0.1137
17169TIP3    H172998   2.115   3.611   2.282  1.5941  2.4637  1.0260
17169TIP3    H272999   2.223   3.551   2.369  1.5461  0.5078 -0.2460
17170TIP3   OH273000   6.444   3.582  14.092 -0.2913 -0.2251  0.1562
17170TIP3    H173001   6.463   3.634  14.014  0.5184  0.6340  0.9248
17170TIP3    H273002   6.429   3.646  14.161 -0.2206 -0.9919  0.8875
17171TIP3   OH273003   1.932   6.312  15.839  0.1034 -0.1538  0.7065
17171TIP3    H173004   1.880   6.252  15.893  0.7027 -3.6925 -2.4123
17171TIP3    H273005   1.870   6.377  15.808 -1.3653 -1.2923  1.2075
17172TIP3   OH273006   4.517   2.173   2.497 -0.6156 -0.0856  0.5556
17172TIP3    H173007   4.500   2.080   2.491 -0.9514  0.0708 -1.0777
17172TIP3    H273008   4.431   2.213   2.505 -0.5083  0.1167  0.7050
17173TIP3   OH273009   6.614   4.337   5.664  0.5761  0.1867 -0.3174
17173TIP3    H173010   6.646   4.426   5.651  0.5185  0.0979 -1.0866
17173TIP3    H273011   6.532   4.348   5.712  0.9082  0.5128  0.1732
17174TIP3   OH273012   4.688   0.579  12.765  0.5318  0.3249  0.8842
17174TIP3    H173013   4.724   0.491  12.774  0.5665  0.3674  1.1615
17174TIP3    H273014   4.597   0.565  12.736  0.9991  0.2330 -0.6154
17175TIP3   OH273015   2.489   1.088  12.434  0.8026  0.4090 -0.0093
17175TIP3    H173016   2.417   1.110  12.492 -0.5746 -2.3726 -0.5674
17175TIP3    H273017   2.513   1.171  12.393 -0.2280  1.8572  2.2264
17176TIP3   OH273018   2.233   1.976   5.605 -0.3017 -0.3900 -0.6289
17176TIP3    H173019   2.145   1.964   5.571  0.4328 -2.6951 -1.8067
17176TIP3    H273020   2.267   1.887   5.617  2.1936  0.4562 -1.0675
17177TIP3   OH273021   5.215   1.970  12.893 -0.2849 -0.2481  0.1745
17177TIP3    H173022   5.211   2.046  12.834 -1.9049 -1.1500 -0.9016
17177TIP3    H273023   5.251   1.900  12.838 -0.2439 -0.6560  0.7271
17178TIP3   OH273024   5.240   1.762   1.670  0.3700  0.3217  0.0654
17178TIP3    H173025   5.329   1.793   1.660  0.9590 -1.0451  0.9483
17178TIP3    H273026   5.247   1.667   1.669 -0.9494  0.1918  1.2619
17179TIP3   OH273027   4.987   2.193  13.287  0.2131 -0.4142 -0.2107
17179TIP3    H173028   5.010   2.127  13.353  3.0205  0.3846 -0.3044
17179TIP3    H273029   4.963   2.142  13.210  0.2273 -1.3479  0.3893
17180TIP3   OH273030   6.726   0.674   5.315  0.6716  0.0376  0.1974
17180TIP3    H173031   6.813   0.668   5.276  0.0191 -1.0818 -1.1748
17180TIP3    H273032   6.683   0.745   5.267 -0.1565 -1.3856 -1.2346
17181TIP3   OH273033   5.995   2.651  11.380  0.7684  0.3895 -0.4661
17181TIP3    H173034   6.012   2.682  11.469 -0.3367  0.2907 -0.2140
17181TIP3    H273035   5.910   2.689  11.357 -0.1744 -1.6777 -0.5199
17182TIP3   OH273036   1.781   5.751  13.741  0.1036  0.1122 -0.0993
17182TIP3    H173037   1.694   5.750  13.702  0.4063  1.2374 -0.8383
17182TIP3    H273038   1.767   5.727  13.833 -0.8436 -0.7815 -0.4761
17183TIP3   OH273039   2.122   6.306  15.297 -0.2319 -0.0465  0.0926
17183TIP3    H173040   2.144   6.215  15.279  1.5925  0.6786 -1.4810
17183TIP3    H273041   2.076   6.337  15.219 -0.2420  0.5741  0.3356
17184TIP3   OH273042   2.348   1.466   4.097 -0.0650 -0.3867 -0.1593
17184TIP3    H173043   2.282   1.398   4.080  1.9115 -2.8422  1.6735
17184TIP3    H273044   2.311   1.517   4.168 -0.4105 -1.1789  0.2400
17185TIP3   OH273045   2.895   6.257   2.878 -0.0918  0.0732 -0.3383
17185TIP3    H173046   2.900   6.229   2.969 -0.4815 -0.3839 -0.4601
17185TIP3    H273047   2.841   6.336   2.880 -1.9099 -1.1338 -0.4435
17186TIP3   OH273048   4.022   1.813  11.094 -0.1510 -0.0462 -0.4862
17186TIP3    H173049   4.083   1.869  11.046 -1.3834  1.4051 -0.4135
17186TIP3    H273050   4.039   1.834  11.186  0.6778 -1.2000 -0.3599
17187TIP3   OH273051   6.723   3.837   4.307  0.2206 -0.5025 -0.4400
17187TIP3    H173052   6.758   3.899   4.371  2.8369 -0.5123 -1.7966
17187TIP3    H273053   6.644   3.803   4.348  1.1412  0.4198  2.2433
17188TIP3   OH273054   1.251   5.359   0.707  0.1643  0.4390  0.1987
17188TIP3    H173055   1.167   5.342   0.752  0.6948  2.0505  1.8698
17188TIP3    H273056   1.230   5.426   0.642 -0.2015 -0.4775 -0.6436
17189TIP3   OH273057   0.503   1.413  15.508  0.0636 -0.4217  0.1090
17189TIP3    H173058   0.541   1.325  15.512 -0.2606 -0.5912 -0.5656
17189TIP3    H273059   0.572   1.470  15.543  2.0567 -0.3584 -3.6612
17190TIP3   OH273060   4.532   0.751   3.048  0.2218  0.3931 -0.5020
17190TIP3    H173061   4.509   0.812   2.978  0.5521  0.9773 -0.1052
17190TIP3    H273062   4.625   0.732   3.034  0.1434  0.0555 -0.5676
17191TIP3   OH273063   4.432   3.466  15.556  0.1096  0.3654  0.6487
17191TIP3    H173064   4.408   3.442  15.466  1.2100 -1.3023  0.7797
17191TIP3    H273065   4.505   3.527  15.546  0.0325  0.4229  0.4071
17192TIP3   OH273066   3.179   4.784   6.091 -0.3860  0.1588  0.1409
17192TIP3    H173067   3.253   4.735   6.055 -1.8408 -1.1199 -1.1948
17192TIP3    H273068   3.124   4.717   6.132 -1.3604  0.9506  0.1513
17193TIP3   OH273069   2.258   1.817  12.112 -0.4843 -0.3838 -0.2916
17193TIP3    H173070   2.334   1.786  12.161  1.2572  0.9023 -2.1265
17193TIP3    H273071   2.258   1.764  12.032 -1.8064 -0.6785 -0.1184
17194TIP3   OH273072   4.576   3.337   4.836  0.7780 -0.0905  0.1417
17194TIP3    H173073   4.606   3.264   4.889  3.7004  0.6501 -0.4483
17194TIP3    H273074   4.579   3.412   4.895  0.6694  0.0972 -0.0898
17195TIP3   OH273075   2.355   6.646   6.060  0.7692  0.2483 -0.8531
17195TIP3    H173076   2.423   6.605   6.007  0.0560 -0.7021 -1.0361
17195TIP3    H273077   2.348   6.589   6.138 -0.6080 -0.3075 -1.3654
17196TIP3   OH273078   0.383   1.641   1.151 -0.4057  0.0807 -0.0348
17196TIP3    H173079   0.346   1.714   1.201 -0.5879  0.7321 -1.1044
17196TIP3    H273080   0.474   1.636   1.181 -0.6860  0.0427  0.8304
17197TIP3   OH273081   2.768   6.141  14.021  0.0659 -0.4907 -0.0029
17197TIP3    H173082   2.699   6.202  14.047 -1.0174 -1.4634 -0.5529
17197TIP3    H273083   2.836   6.152  14.088 -0.4017  0.8244  0.2729
17198TIP3   OH273084   0.922   2.424   2.697 -0.5046  0.1291 -0.0998
17198TIP3    H173085   0.838   2.462   2.722 -0.5768  0.5880 -1.0346
17198TIP3    H273086   0.913   2.404   2.604  0.3757  0.0489 -0.1691
17199TIP3   OH273087   1.257   1.569  13.738 -0.1225  0.2237  0.2792
17199TIP3    H173088   1.335   1.523  13.769 -0.5567  0.3785  1.5992
17199TIP3    H273089   1.283   1.603  13.652  0.6510 -1.3215 -0.1203
17200TIP3   OH273090   2.529   2.352  15.817 -0.0194 -1.0152 -0.1933
17200TIP3    H173091   2.468   2.297  15.766 -1.0215 -2.0550  2.0788
17200TIP3    H273092   2.545   2.302  15.897  2.9923 -0.2330 -0.2741
17201TIP3   OH273093   6.806   2.606   4.672 -0.3371  0.3661 -0.4115
17201TIP3    H173094   6.869   2.535   4.657  1.3382  1.2677  2.0202
17201TIP3    H273095   6.752   2.607   4.593  1.0584 -2.1207 -1.4642
17202TIP3   OH273096   6.538   2.352  14.823  0.8361  0.3393 -0.1876
17202TIP3    H173097   6.549   2.339  14.728 -1.0988  1.8873 -0.6663
17202TIP3    H273098   6.463   2.296  14.846  1.4995 -0.2685  0.4922
17203TIP3   OH273099   3.993   2.207   0.561 -0.2948 -0.0147 -0.2378
17203TIP3    H173100   4.073   2.229   0.607  0.3237  0.4409 -1.5005
17203TIP3    H273101   3.973   2.117   0.587 -1.0191  0.8658  2.3811
17204TIP3   OH273102   4.124   3.825  17.257 -0.0453 -0.3003 -0.3306
17204TIP3    H173103   4.135   3.909  17.211  0.7044  0.1162  0.5929
17204TIP3    H273104   4.066   3.774  17.200  0.5311  0.3636 -1.5331
17205TIP3   OH273105   1.616   1.128   3.351  0.1389  0.7566 -0.4692
17205TIP3    H173106   1.527   1.129   3.318 -0.2017  0.8185  0.4203
17205TIP3    H273107   1.642   1.036   3.347  0.6732  0.9816 -2.3703
17206TIP3   OH273108   5.638   3.249   0.526  0.6236  0.0690 -0.0356
17206TIP3    H173109   5.729   3.251   0.495  1.2981  0.8273  1.9401
17206TIP3    H273110   5.642   3.207   0.612 -1.0068 -0.5709 -0.2492
17207TIP3   OH273111   5.009   2.625   3.669  0.3581 -0.1144 -0.2777
17207TIP3    H173112   5.004   2.560   3.739 -2.2009  0.0268 -0.2958
17207TIP3    H273113   5.081   2.595   3.613  0.5025 -1.8369  0.8040
17208TIP3   OH273114   5.916   6.799   5.467 -0.5999 -0.1408  0.5696
17208TIP3    H173115   5.886   6.852   5.541 -0.6160  0.6870 -0.0280
17208TIP3    H273116   5.852   6.816   5.398  0.6653  0.8702 -0.3958
17209TIP3   OH273117   0.195   5.132  13.038 -0.5653 -0.1486  0.5396
17209TIP3    H173118   0.217   5.058  13.096  2.6479  0.2937 -0.0248
17209TIP3    H273119   0.172   5.202  13.098 -0.9427 -0.8046  1.1767
17210TIP3   OH273120   1.356   1.576   5.490  0.2791  0.2574  0.2980
17210TIP3    H173121   1.353   1.672   5.493 -0.7112  0.2246  0.6266
17210TIP3    H273122   1.365   1.556   5.397 -1.1327  0.6488  0.0587
17211TIP3   OH273123   5.668   2.561   5.001  0.5194  0.2387 -0.6034
17211TIP3    H173124   5.710   2.646   5.014 -1.2282  0.8522  1.3493
17211TIP3    H273125   5.601   2.556   5.069  0.1611 -2.4530 -1.0621
17212TIP3   OH273126   1.226   4.184   2.872  0.8592  0.1586 -0.5811
17212TIP3    H173127   1.159   4.121   2.897  0.7306  0.1584 -0.9242
17212TIP3    H273128   1.200   4.213   2.785  0.1637  1.7033  0.1309
17213TIP3   OH273129   1.315   4.487   7.148 -0.3876 -0.1791 -0.0585
17213TIP3    H173130   1.388   4.426   7.137  0.0743  0.5057 -0.8750
17213TIP3    H273131   1.265   4.480   7.066 -0.8000 -0.0791  0.1844
17214TIP3   OH273132   5.352   1.930   3.668 -0.2341 -0.6307  0.2531
17214TIP3    H173133   5.347   1.927   3.572 -0.6103 -1.6459  0.3102
17214TIP3    H273134   5.430   1.984   3.685  0.9713 -2.0406 -0.6371
17215TIP3   OH273135   4.799   6.498  15.609  0.5925 -0.2177 -0.7921
17215TIP3    H173136   4.793   6.456  15.695 -0.3109  0.6037 -0.4537
17215TIP3    H273137   4.781   6.590  15.626 -0.1573 -0.1453 -1.9558
17216TIP3   OH273138   0.362   5.237  15.490 -0.2616  0.4797  0.4652
17216TIP3    H173139   0.439   5.181  15.501  0.2741  1.3519  1.3096
17216TIP3    H273140   0.323   5.210  15.407  0.9262 -0.0163  0.0636
17217TIP3   OH273141   1.613   4.082  13.765  0.3135 -0.2442 -0.6068
17217TIP3    H173142   1.577   4.146  13.704 -1.5429 -0.5559  0.1428
17217TIP3    H273143   1.657   4.018  13.709  2.1854  1.6344 -1.3715
17218TIP3   OH273144   4.653   0.551  15.590  0.7459  0.2130 -0.6229
17218TIP3    H173145   4.687   0.641  15.595  2.0388 -0.2013 -1.8958
17218TIP3    H273146   4.729   0.496  15.604  0.3475 -0.7088 -1.9985
17219TIP3   OH273147   3.196   3.870  15.499  0.1743 -0.0619 -1.0383
17219TIP3    H173148   3.237   3.929  15.562 -2.8050  0.3283  0.6637
17219TIP3    H273149   3.242   3.887  15.416  1.2707  2.5980  0.0551
17220TIP3   OH273150   5.468   1.041   1.576  0.1999 -0.1715  0.5771
17220TIP3    H173151   5.429   1.009   1.657 -0.0316 -1.9811 -0.2213
17220TIP3    H273152   5.527   0.971   1.549  0.2221  0.3864 -0.8494
17221TIP3   OH273153   4.762   5.963  12.479  0.0177 -0.2728 -0.1952
17221TIP3    H173154   4.796   6.052  12.487  0.8423 -0.5428 -0.6125
17221TIP3    H273155   4.782   5.938  12.389 -0.7205 -0.6709 -0.2492
17222TIP3   OH273156   6.482   6.771   5.368 -0.2100  0.5807 -0.1458
17222TIP3    H173157   6.526   6.746   5.449 -0.8928 -2.4929 -0.6432
17222TIP3    H273158   6.390   6.778   5.392 -0.0349  2.7019 -0.0301
17223TIP3   OH273159   6.739   4.787   4.681  0.2065 -0.0404  0.1142
17223TIP3    H173160   6.650   4.821   4.687  0.8256  1.8133 -0.7049
17223TIP3    H273161   6.786   4.852   4.628  1.4649 -2.1866 -1.4992
17224TIP3   OH273162   2.160   2.631  14.742  0.1986 -0.5198  0.2152
17224TIP3    H173163   2.095   2.595  14.802 -0.3207 -0.1868 -0.1486
17224TIP3    H273164   2.111   2.653  14.663  0.3256  1.9183  0.7706
17225TIP3   OH273165   3.929   2.215  16.408 -0.4538  0.0257 -0.1033
17225TIP3    H173166   3.839   2.193  16.383 -0.8970  0.2395  1.2534
17225TIP3    H273167   3.962   2.136  16.450  0.1304 -0.1729 -0.9163
17226TIP3   OH273168   6.177   0.247   5.409 -0.2734 -0.3201  0.0802
17226TIP3    H173169   6.109   0.234   5.475 -0.1131 -0.1840  0.2730
17226TIP3    H273170   6.202   0.158   5.382  1.2593 -0.4513  1.8431
17227TIP3   OH273171   4.127   4.878   4.722 -0.2902  0.1628  0.3657
17227TIP3    H173172   4.171   4.795   4.742 -1.9499 -0.9468 -0.4043
17227TIP3    H273173   4.164   4.905   4.638  0.4337  0.3201  0.7367
17228TIP3   OH273174   1.314   6.538  13.964  0.3073 -0.5670  0.4700
17228TIP3    H173175   1.294   6.548  14.057 -0.2380 -1.4486  0.4540
17228TIP3    H273176   1.271   6.456  13.939 -0.1928  0.0665 -0.7454
17229TIP3   OH273177   0.321   4.847   0.218 -0.5022  0.2647 -0.6810
17229TIP3    H173178   0.343   4.780   0.153  0.3521  0.8572 -1.0150
17229TIP3    H273179   0.330   4.803   0.303  1.1831  0.2555 -0.8482
17230TIP3   OH273180   0.810   3.730  12.685  0.4292 -0.6317 -0.0510
17230TIP3    H173181   0.849   3.654  12.643 -0.0723 -0.5248 -0.7119
17230TIP3    H273182   0.860   3.805  12.653  0.3647 -0.5980 -0.0738
17231TIP3   OH273183   5.856   5.995  12.480  0.1339 -0.3861  0.4562
17231TIP3    H173184   5.883   6.078  12.520  1.6089 -0.7328  0.2221
17231TIP3    H273185   5.921   5.932  12.512 -0.9360 -1.4285  0.5666
17232TIP3   OH273186   4.407   1.969   0.983  0.6602 -0.2485  0.1669
17232TIP3    H173187   4.421   1.995   0.892  4.7598  1.0333  1.0597
17232TIP3    H273188   4.377   2.048   1.027  1.6091 -0.0824  0.5221
17233TIP3   OH273189   1.893   3.246   4.239 -0.2661  0.4496  1.2582
17233TIP3    H173190   1.969   3.300   4.216 -0.4357  0.5079  0.8183
17233TIP3    H273191   1.866   3.208   4.155  0.0938 -0.6380  1.6235
17234TIP3   OH273192   4.935   4.831  15.101 -0.4408  0.3599 -0.0879
17234TIP3    H173193   4.972   4.778  15.172  0.0241 -1.2105 -1.4941
17234TIP3    H273194   5.002   4.896  15.083  0.2930 -0.4865 -0.4446
17235TIP3   OH273195   4.403   5.144  14.843 -0.3400  0.4281 -0.2566
17235TIP3    H173196   4.489   5.182  14.859  0.3189  0.0408 -2.6682
17235TIP3    H273197   4.367   5.196  14.770 -1.3487 -0.6058 -0.5073
17236TIP3   OH273198   1.492   3.254  11.579  0.4169 -0.1166 -0.2964
17236TIP3    H173199   1.523   3.237  11.668 -0.2223  0.0465 -0.0402
17236TIP3    H273200   1.465   3.169  11.546 -0.3215 -0.0203  0.0435
17237TIP3   OH273201   1.532   0.625   1.051  0.7663 -0.2869  0.1406
17237TIP3    H173202   1.485   0.692   1.101 -0.2858  0.4131 -1.7119
17237TIP3    H273203   1.614   0.667   1.026 -1.6998  2.1393 -4.8380
17238TIP3   OH273204   3.254   2.769   4.903  0.5598  0.2508  0.1737
17238TIP3    H173205   3.303   2.825   4.962 -0.0944  0.4370  0.5498
17238TIP3    H273206   3.171   2.815   4.890  0.7276  0.2576 -0.9627
17239TIP3   OH273207   0.821   4.341   2.363 -0.2700 -0.0215 -0.6542
17239TIP3    H173208   0.771   4.307   2.437  0.4971  1.0219  0.3634
17239TIP3    H273209   0.853   4.426   2.393  3.5919 -1.3851 -0.5797
17240TIP3   OH273210   6.222   4.349  11.472  0.5126 -0.3547 -0.2264
17240TIP3    H173211   6.307   4.346  11.514  0.3423 -0.4443  0.1156
17240TIP3    H273212   6.185   4.262  11.487  0.3635 -0.3158 -0.3724
17241TIP3   OH273213   1.462   2.537  10.727 -0.0204  0.1834 -0.6517
17241TIP3    H173214   1.490   2.525  10.817 -0.4055  0.3591 -0.5092
17241TIP3    H273215   1.373   2.572  10.733  0.2561  0.9797 -1.0872
17242TIP3   OH273216   6.764   2.914  14.894 -0.0901  0.2354  0.3868
17242TIP3    H173217   6.727   2.826  14.895 -0.4742  0.3835 -0.5554
17242TIP3    H273218   6.698   2.967  14.851  0.0210  1.0516  1.2060
17243TIP3   OH273219   0.207   2.703   6.335  0.6429 -0.2534 -0.1716
17243TIP3    H173220   0.224   2.692   6.241  1.2581  0.3556 -0.1345
17243TIP3    H273221   0.119   2.667   6.347  1.0225 -1.4162 -0.7632
17244TIP3   OH273222   0.666   1.988   4.855  0.2068 -0.1556  0.0269
17244TIP3    H173223   0.667   2.010   4.762 -0.1635  1.0770  0.3051
17244TIP3    H273224   0.642   1.895   4.857  0.6092 -0.2937 -1.1214
17245TIP3   OH273225   5.324   0.984  14.720 -0.2307  0.5659 -0.0334
17245TIP3    H173226   5.396   0.928  14.749 -1.7330 -0.9663  0.8188
17245TIP3    H273227   5.273   1.001  14.799 -0.9031  1.5169 -0.6502
17246TIP3   OH273228   6.355   0.325   0.918 -0.2073 -0.2331 -0.2828
17246TIP3    H173229   6.375   0.401   0.973 -0.7355  0.3600 -0.9127
17246TIP3    H273230   6.348   0.252   0.979  1.4723 -0.0008  0.2168
17247TIP3   OH273231   6.613   5.357   6.219  0.7032  0.0323 -0.8707
17247TIP3    H173232   6.587   5.386   6.306 -1.1362 -0.7489 -1.1382
17247TIP3    H273233   6.655   5.272   6.234  0.2529 -0.1721 -0.7525
17248TIP3   OH273234   0.278   3.074   3.473  0.7725 -0.1436  0.0800
17248TIP3    H173235   0.367   3.039   3.468  0.5146 -0.8324  0.1598
17248TIP3    H273236   0.243   3.063   3.385  0.6766 -0.1143  0.1146
17249TIP3   OH273237   0.853   2.880  17.040  0.0152  0.2491 -0.1926
17249TIP3    H173238   0.827   2.942  17.108  1.2622 -0.4592  0.9526
17249TIP3    H273239   0.850   2.795  17.082  1.8565 -0.0874 -0.6971
17250TIP3   OH273240   2.404   3.128  15.709  0.1026 -0.3352 -0.0363
17250TIP3    H173241   2.356   3.054  15.746  0.3291 -1.0712 -1.1830
17250TIP3    H273242   2.491   3.122  15.749  0.1545 -0.7707 -0.2044
17251TIP3   OH273243   0.026   6.429   3.927 -0.2040  0.1421  0.1225
17251TIP3    H173244  -0.060   6.463   3.951 -0.7162 -1.2054  0.2497
17251TIP3    H273245   0.048   6.369   3.998  0.6751  0.1967 -0.1032
17252TIP3   OH273246   4.681   2.040  14.601 -0.3926 -0.9521  0.1608
17252TIP3    H173247   4.752   2.098  14.629 -0.0054 -1.0344 -0.6362
17252TIP3    H273248   4.721   1.983  14.536 -1.5427 -0.0728 -1.3459
17253TIP3   OH273249   2.796   2.818  16.470 -0.3601 -0.2182 -0.6916
17253TIP3    H173250   2.795   2.738  16.417 -0.6033 -0.2873 -0.5831
17253TIP3    H273251   2.706   2.850  16.465 -0.0932  0.4443 -1.3466
17254TIP3   OH273252   5.476   5.994  11.858 -0.0718  0.5743  0.1804
17254TIP3    H173253   5.569   6.018  11.855  0.1151 -0.1903 -0.1891
17254TIP3    H273254   5.467   5.924  11.794 -1.2352  1.7726 -1.0065
17255TIP3   OH273255   4.308   5.622  11.211 -0.5475 -0.3931  0.5497
17255TIP3    H173256   4.266   5.688  11.157  0.6808 -1.4917 -1.8444
17255TIP3    H273257   4.300   5.655  11.300 -2.3591  1.6288 -0.3187
17256TIP3   OH273258   1.928   6.455  12.247  0.1134  0.0953 -0.7811
17256TIP3    H173259   1.945   6.400  12.324  1.3609 -0.3748 -1.3770
17256TIP3    H273260   1.911   6.542  12.283 -3.2566 -0.9221  0.2848
17257TIP3   OH273261   4.645   5.355  16.077  0.4300  0.0932 -0.0643
17257TIP3    H173262   4.642   5.271  16.031 -0.4852  0.0255  0.1065
17257TIP3    H273263   4.592   5.413  16.023 -0.4901  0.0655  0.7935
17258TIP3   OH273264   5.193   3.457   0.969  0.0599 -0.2179  0.0600
17258TIP3    H173265   5.194   3.446   1.064  1.3697 -1.6308 -0.1125
17258TIP3    H273266   5.258   3.526   0.952 -1.4710  1.3240  0.3255
17259TIP3   OH273267   1.659   5.457  10.650 -0.5998 -0.1740 -0.4543
17259TIP3    H173268   1.684   5.507  10.572  1.0543  0.4296  0.4445
17259TIP3    H273269   1.593   5.395  10.618  0.5137 -0.3790 -2.4798
17260TIP3   OH273270   0.675   5.696   0.982  0.3332  0.1209  0.2876
17260TIP3    H173271   0.696   5.766   0.920 -1.0457 -1.1203 -1.6421
17260TIP3    H273272   0.710   5.726   1.065  1.6311  2.1458 -0.9578
17261TIP3   OH273273   2.577   0.236   0.813 -0.2350  0.0370 -0.5659
17261TIP3    H173274   2.594   0.195   0.898 -1.4900  0.7183  0.0245
17261TIP3    H273275   2.579   0.164   0.751  2.8150 -0.2022 -0.2900
17262TIP3   OH273276   1.772   4.221  16.002 -0.2974 -0.3991  0.3734
17262TIP3    H173277   1.857   4.260  15.980  0.0565 -0.6966  1.1754
17262TIP3    H273278   1.753   4.163  15.928 -0.9873  1.5050 -0.9851
17263TIP3   OH273279   0.865   1.094   4.484  0.0387  0.6449 -0.0061
17263TIP3    H173280   0.811   1.171   4.462  0.0206  0.3542 -0.9903
17263TIP3    H273281   0.899   1.064   4.400  0.6000 -0.0230  0.4598
17264TIP3   OH273282   6.246   4.970  11.977 -0.2342  0.1023  0.1913
17264TIP3    H173283   6.311   5.017  12.028  1.9104 -1.9756 -0.5258
17264TIP3    H273284   6.260   4.878  11.999 -1.2872 -0.5878 -1.8261
17265TIP3   OH273285   1.340   3.237  14.879  0.0515  0.0914  0.4198
17265TIP3    H173286   1.404   3.169  14.858 -0.3537  0.1133 -0.9181
17265TIP3    H273287   1.285   3.197  14.947  0.8796 -0.2812  0.8707
17266TIP3   OH273288   6.177   1.315   5.606  0.0800 -0.0744  0.6682
17266TIP3    H173289   6.168   1.397   5.558 -1.0542 -0.9193 -0.5855
17266TIP3    H273290   6.088   1.289   5.627  0.5030 -0.2618  2.3287
17267TIP3   OH273291   3.646   1.742   3.769 -0.2224  0.1422 -0.4217
17267TIP3    H173292   3.616   1.821   3.725 -0.4413 -0.5140 -1.4636
17267TIP3    H273293   3.566   1.697   3.796 -0.1058  0.1565 -0.0470
17268TIP3   OH273294   0.094   2.347  13.755 -0.3878 -0.1385 -0.2511
17268TIP3    H173295   0.134   2.433  13.768  0.7858 -0.6692 -0.2808
17268TIP3    H273296   0.043   2.356  13.674  1.3264 -0.0096 -1.3535
17269TIP3   OH273297   5.511   4.548  16.573  0.4413  0.2440  0.2005
17269TIP3    H173298   5.443   4.516  16.633 -0.3468  0.6319 -0.4806
17269TIP3    H273299   5.472   4.540  16.486  1.3994  0.1494 -0.2211
17270TIP3   OH273300   4.345   2.189   2.084  0.7786  0.7124 -0.1313
17270TIP3    H173301   4.252   2.170   2.094  0.7696  1.0764  0.5152
17270TIP3    H273302   4.389   2.108   2.109  0.6874  1.0374  1.1067
17271TIP3   OH273303   3.091   3.677  13.233 -0.2630 -0.1465  0.5971
17271TIP3    H173304   3.109   3.768  13.210  1.8114 -0.7084 -0.1216
17271TIP3    H273305   3.046   3.641  13.157  0.4695 -0.1731  0.1728
17272TIP3   OH273306   4.943   3.297  15.838  0.2321  0.0369 -0.2284
17272TIP3    H173307   4.900   3.269  15.757 -2.7844 -1.6406  1.8334
17272TIP3    H273308   4.986   3.218  15.871  0.8747  0.5437  0.1566
17273TIP3   OH273309   6.442   2.220  13.907 -0.0851 -0.0371 -0.6205
17273TIP3    H173310   6.413   2.267  13.985  0.0450 -0.5208 -0.2759
17273TIP3    H273311   6.376   2.239  13.841 -0.2058  0.3624 -0.3872
17274TIP3   OH273312   6.508   3.397   0.786  0.3430  0.2351 -0.2213
17274TIP3    H173313   6.439   3.455   0.818 -0.7065 -1.5257  0.8167
17274TIP3    H273314   6.552   3.447   0.718 -1.8100  1.4938 -0.7474
17275TIP3   OH273315   2.732   5.536   1.870  0.3964  0.2934 -0.0382
17275TIP3    H173316   2.769   5.578   1.792  0.3843  0.5410  0.0895
17275TIP3    H273317   2.743   5.443   1.854  2.6050  0.3907  0.7237
17276TIP3   OH273318   1.736   3.774   0.205 -0.5189  0.9034  0.0905
17276TIP3    H173319   1.649   3.745   0.175  0.0736 -0.2405 -0.5419
17276TIP3    H273320   1.744   3.738   0.293 -0.9181  1.5068  0.3805
17277TIP3   OH273321   5.282   4.668   4.944 -0.4135  0.3249 -0.2336
17277TIP3    H173322   5.323   4.755   4.942  0.5652 -0.1184  0.3966
17277TIP3    H273323   5.331   4.619   5.009 -2.5474  0.0542  1.2423
17278TIP3   OH273324   3.390   2.431   2.759  0.2406 -0.3610  0.3388
17278TIP3    H173325   3.359   2.498   2.821  1.4916 -0.1107  0.7192
17278TIP3    H273326   3.347   2.350   2.788  1.2451 -0.3636  1.9167
17279TIP3   OH273327   3.155   2.299   4.929 -0.0434 -0.8494  0.5657
17279TIP3    H173328   3.127   2.362   4.995  0.9688 -0.1753  0.3657
17279TIP3    H273329   3.237   2.334   4.896  0.7060 -2.4346  0.6768
17280TIP3   OH273330   2.310   4.287   2.199 -0.3812  0.3624 -1.0447
17280TIP3    H173331   2.264   4.217   2.152 -1.0699  1.6598 -2.3218
17280TIP3    H273332   2.314   4.359   2.137  1.1701  1.1407 -0.0553
17281TIP3   OH273333   1.024   0.685  16.056 -0.3623 -0.3930 -0.1505
17281TIP3    H173334   1.020   0.672  16.150 -0.3962 -0.2680 -0.1357
17281TIP3    H273335   1.008   0.779  16.044  2.1123  0.0812 -0.0929
17282TIP3   OH273336   2.873   0.356  15.749  0.7074  0.1560 -0.5326
17282TIP3    H173337   2.819   0.417  15.700  1.3028  1.3372  0.2440
17282TIP3    H273338   2.963   0.380  15.727  0.9371 -1.4732 -1.4403
17283TIP3   OH273339   3.717   2.622  10.280  0.0760 -0.1596 -0.8439
17283TIP3    H173340   3.752   2.711  10.270 -2.1541  0.6917 -1.3298
17283TIP3    H273341   3.631   2.625  10.239  0.3457 -2.8219 -1.7508
17284TIP3   OH273342   4.379   3.244   5.583  0.0879 -0.6373  0.2392
17284TIP3    H173343   4.341   3.156   5.584  0.8252 -0.9608  2.1607
17284TIP3    H273344   4.427   3.248   5.501  0.6780 -2.3126  0.4709
17285TIP3   OH273345   3.840   0.258   1.597 -0.7094 -0.1257  0.3256
17285TIP3    H173346   3.918   0.313   1.601 -1.3735  0.7441  2.0538
17285TIP3    H273347   3.855   0.199   1.523  1.0147  0.8712 -0.1352
17286TIP3   OH273348   2.904   2.457  13.559 -0.1890  0.0775 -0.2042
17286TIP3    H173349   2.843   2.406  13.506 -3.2179  0.2876  2.9035
17286TIP3    H273350   2.887   2.548  13.534 -0.8584  0.1095  0.3693
17287TIP3   OH273351   6.036   1.022   4.400 -0.1573  0.3190 -0.0921
17287TIP3    H173352   6.056   0.939   4.444 -2.0424 -0.1408 -0.0732
17287TIP3    H273353   6.118   1.072   4.405  0.3464 -0.6610  1.8217
17288TIP3   OH273354   0.465   3.372   4.285  0.0051 -0.1444  0.5194
17288TIP3    H173355   0.376   3.335   4.283 -0.0868  0.0346  1.4575
17288TIP3    H273356   0.498   3.351   4.372  0.6414  0.3675  0.3997
17289TIP3   OH273357   3.931   3.220  13.191  0.0442  0.4737 -0.1289
17289TIP3    H173358   3.980   3.300  13.174 -0.9673  0.8556 -1.3561
17289TIP3    H273359   3.995   3.150  13.182  1.4937  1.2732  3.4033
17290TIP3   OH273360   1.641   6.606   0.642  0.1558  0.3492  0.1774
17290TIP3    H173361   1.603   6.530   0.687  1.1595  0.9981  2.2158
17290TIP3    H273362   1.678   6.659   0.713  0.0894  2.4012 -1.2761
17291TIP3   OH273363   5.557   1.894   2.300  0.1217  0.6212 -0.2840
17291TIP3    H173364   5.515   1.809   2.316 -0.4624  0.7739 -0.9795
17291TIP3    H273365   5.486   1.957   2.306  0.6291  1.1119  0.6325
17292TIP3   OH273366   2.463   5.179  16.536 -0.1175  0.3546 -0.3669
17292TIP3    H173367   2.472   5.093  16.495 -2.0486 -0.0766  0.1057
17292TIP3    H273368   2.441   5.238  16.464 -0.6838  0.1168 -0.3885
17293TIP3   OH273369   1.242   2.189  16.640 -0.3179  0.2336  0.3105
17293TIP3    H173370   1.192   2.149  16.711 -0.6748 -1.3545 -0.7912
17293TIP3    H273371   1.177   2.242  16.593 -0.1748  0.9492  0.9126
17294TIP3   OH273372   6.634   3.863   0.724  0.4132 -0.2437 -0.0191
17294TIP3    H173373   6.579   3.840   0.799 -1.7267 -0.3601 -1.5946
17294TIP3    H273374   6.622   3.957   0.714  1.1247 -0.1355  0.0864
17295TIP3   OH273375   4.185   1.356  15.723 -0.0927  1.0224  0.0502
17295TIP3    H173376   4.159   1.271  15.688 -0.7439  1.0478  0.4538
17295TIP3    H273377   4.161   1.418  15.654 -1.8167  1.1225  0.7243
17296TIP3   OH273378   3.684   3.773   5.737 -0.3803 -0.2457  0.0697
17296TIP3    H173379   3.696   3.753   5.830 -1.0637  0.7983  0.3895
17296TIP3    H273380   3.590   3.764   5.722 -0.2562 -0.5252 -0.5453
17297TIP3   OH273381   6.719   2.901  13.440 -0.6601  0.5686  0.8622
17297TIP3    H173382   6.768   2.824  13.469 -3.0275 -1.9658 -1.6629
17297TIP3    H273383   6.780   2.948  13.383  0.5875  0.2945  1.9316
17298TIP3   OH273384   0.367   0.496  13.816 -0.1758  0.0304  0.1387
17298TIP3    H173385   0.347   0.589  13.822 -0.3911  0.0886 -1.2697
17298TIP3    H273386   0.441   0.491  13.755 -0.0390 -0.7066  0.3524
17299TIP3   OH273387   3.952   0.663  16.243 -0.0645  0.3895  0.0162
17299TIP3    H173388   4.007   0.699  16.173 -1.9229 -1.0636 -2.2858
17299TIP3    H273389   3.923   0.740  16.293  0.6203  1.5442 -1.3160
17300TIP3   OH273390   5.086   2.208   2.292 -0.2772 -0.2847 -0.1034
17300TIP3    H173391   5.081   2.281   2.354  1.4177 -1.5997  1.6609
17300TIP3    H273392   5.061   2.132   2.344  2.8760 -1.6734 -0.5261
17301TIP3   OH273393   2.879   1.066  16.794  0.0964  0.3060 -0.3287
17301TIP3    H173394   2.925   0.987  16.823  0.3010  1.3837  2.3990
17301TIP3    H273395   2.923   1.092  16.713  0.4829 -1.9493 -0.8623
17302TIP3   OH273396   0.247   6.815  17.013 -0.4230 -0.3883 -0.5760
17302TIP3    H173397   0.335   6.846  16.992 -1.4269  2.0354 -1.3608
17302TIP3    H273398   0.240   6.730  16.970  1.9839 -1.2233  0.6060
17303TIP3   OH273399   3.633   1.190  10.462  0.3320 -0.9849  0.8911
17303TIP3    H173400   3.557   1.133  10.474  0.7628 -1.3221  2.0953
17303TIP3    H273401   3.677   1.154  10.385 -2.6071  1.3508 -2.0280
17304TIP3   OH273402   2.228   4.600   2.963 -0.0450 -0.1566 -0.3368
17304TIP3    H173403   2.229   4.515   2.917 -0.2538 -0.4931  0.2717
17304TIP3    H273404   2.291   4.589   3.034  0.3935  0.4196 -0.6304
17305TIP3   OH273405   2.717   6.303   5.507 -0.3361  0.5239 -0.1232
17305TIP3    H173406   2.810   6.326   5.504 -0.4118  0.7585 -0.8151
17305TIP3    H273407   2.697   6.271   5.419 -0.5662 -0.9018  0.4300
17306TIP3   OH273408   2.038   2.957   2.078  0.2068 -0.0410  0.4864
17306TIP3    H173409   2.064   3.047   2.061 -2.2890  0.4039 -1.2219
17306TIP3    H273410   2.049   2.913   1.994 -0.7157 -0.7769  0.7409
17307TIP3   OH273411   2.823   5.143   4.248 -0.1548  0.0992  0.1214
17307TIP3    H173412   2.761   5.122   4.317 -1.2118 -0.1972 -0.9034
17307TIP3    H273413   2.906   5.158   4.294 -0.5104 -1.4488  1.3255
17308TIP3   OH273414   4.962   6.812  16.355 -0.1336 -0.4330 -0.2644
17308TIP3    H173415   4.926   6.825  16.268 -2.5922  0.2342  0.8024
17308TIP3    H273416   4.930   6.726  16.382 -0.5090 -0.0545  0.5030
17309TIP3   OH273417   1.895   0.081  15.546  0.2023  0.1875  0.2852
17309TIP3    H173418   1.864   0.164  15.583  0.5690 -0.1695  1.4155
17309TIP3    H273419   1.841   0.068  15.468  0.4743  1.7253 -0.1743
17310TIP3   OH273420   0.189   5.937  12.417  0.4928  0.3781  0.1497
17310TIP3    H173421   0.150   5.956  12.503 -0.7430 -1.7514  0.0869
17310TIP3    H273422   0.179   6.019  12.368  0.1999  1.2713  1.6604
17311TIP3   OH273423   3.101   1.778   2.448  0.1198  0.2331  0.3017
17311TIP3    H173424   3.147   1.859   2.425  1.6272 -0.9132 -0.7280
17311TIP3    H273425   3.122   1.717   2.378 -0.9601 -1.0909  1.1106
17312TIP3   OH273426   0.051   5.697   5.653  0.1958 -0.0450  0.2130
17312TIP3    H173427  -0.011   5.730   5.588  1.2606 -0.1862 -0.8832
17312TIP3    H273428   0.025   5.740   5.735 -1.2451  0.0187 -0.2657
17313TIP3   OH273429   1.214   1.930  16.128 -0.4310  0.2635  0.4995
17313TIP3    H173430   1.179   1.967  16.210 -0.9914 -0.1038  0.4311
17313TIP3    H273431   1.164   1.849  16.116 -0.9798  0.7690 -0.6848
17314TIP3   OH273432   4.400   3.978  14.897 -0.4044 -0.4879  0.3909
17314TIP3    H173433   4.463   4.022  14.840  0.0714  0.7432  1.8684
17314TIP3    H273434   4.378   4.042  14.964 -3.3283 -0.8300 -0.1406
17315TIP3   OH273435   2.975   4.824   4.710 -0.5770 -0.0263 -0.5099
17315TIP3    H173436   3.024   4.796   4.787  0.4816  1.7481 -0.5203
17315TIP3    H273437   2.889   4.848   4.744  0.5958  2.9623  0.5484
17316TIP3   OH273438   2.507   4.688   0.034 -0.0744 -0.3799 -0.0403
17316TIP3    H173439   2.507   4.778   0.003  1.8485 -0.5557 -0.6152
17316TIP3    H273440   2.418   4.657   0.019 -0.7834  1.4640  0.3048
17317TIP3   OH273441   0.916   3.768   6.086 -0.6215 -0.3237 -0.3591
17317TIP3    H173442   0.890   3.843   6.032  0.1832  0.1944 -0.0421
17317TIP3    H273443   0.855   3.769   6.160 -1.7446 -1.0533 -1.2612
17318TIP3   OH273444   5.495   0.451   2.033  0.1951 -0.2856 -0.3505
17318TIP3    H173445   5.529   0.413   1.952  0.1827 -0.3426 -0.3290
17318TIP3    H273446   5.485   0.376   2.092  2.3307  0.0293  0.4682
17319TIP3   OH273447   3.572   3.391   1.474  0.3509  0.2539 -0.3411
17319TIP3    H173448   3.658   3.424   1.447  0.6348  0.5125  0.8541
17319TIP3    H273449   3.543   3.453   1.540 -0.2291 -0.5056  0.1126
17320TIP3   OH273450   4.119   5.871   2.084  0.0684 -0.6764 -0.2412
17320TIP3    H173451   4.037   5.833   2.115 -0.2309 -0.8467 -1.2428
17320TIP3    H273452   4.171   5.884   2.164 -1.0185 -0.3483  0.4237
17321TIP3   OH273453   0.338   0.556   2.332 -0.1562  0.0051 -0.1727
17321TIP3    H173454   0.310   0.530   2.244  1.1844 -0.9784 -0.3233
17321TIP3    H273455   0.311   0.484   2.388  0.2265 -0.0021  0.0037
17322TIP3   OH273456   2.543   1.577   3.938  0.6922  0.0816 -0.5111
17322TIP3    H173457   2.558   1.545   3.849 -0.1007  0.4091 -0.7659
17322TIP3    H273458   2.473   1.521   3.973  0.6660  0.2670 -0.2632
17323TIP3   OH273459   3.212   6.127   0.004 -0.4548 -0.0800 -0.2178
17323TIP3    H173460   3.155   6.077  -0.055  0.0494  0.9017 -1.5717
17323TIP3    H273461   3.299   6.090  -0.010 -0.4143 -0.1753  0.2838
17324TIP3   OH273462   2.167   1.209  13.555 -0.7981  0.4108 -0.5155
17324TIP3    H173463   2.092   1.250  13.511 -1.4561  0.8171  0.9666
17324TIP3    H273464   2.140   1.119  13.572 -0.4211  0.1604 -1.2245
17325TIP3   OH273465   5.207   6.741  14.835  0.6931 -0.4667  0.4298
17325TIP3    H173466   5.162   6.765  14.916 -0.6906 -0.8372 -0.2142
17325TIP3    H273467   5.235   6.825  14.798  2.2279 -0.3548  1.7768
17326TIP3   OH273468   4.098   6.369   1.055  0.0194 -0.1254 -0.3279
17326TIP3    H173469   4.097   6.418   0.973 -1.5409 -1.9422 -1.4541
17326TIP3    H273470   4.008   6.378   1.088  0.1932 -0.8038  0.3267
17327TIP3   OH273471   1.553   1.510  11.514  0.2930  0.0371  0.1844
17327TIP3    H173472   1.591   1.543  11.433  0.4246 -0.2704  0.1214
17327TIP3    H273473   1.625   1.510  11.577  0.0635  0.7890  0.4522
17328TIP3   OH273474   0.138   5.386   5.941  0.1968  0.3113  0.7797
17328TIP3    H173475   0.090   5.439   6.004  1.0403  1.1513  0.7210
17328TIP3    H273476   0.216   5.356   5.988 -1.3947 -2.8605  1.5742
17329TIP3   OH273477   5.884   2.167   3.967  0.1319 -0.4282 -0.1408
17329TIP3    H173478   5.817   2.231   3.987 -0.5841 -1.2524  0.1453
17329TIP3    H273479   5.839   2.099   3.917  1.4774  0.6475 -2.9574
17330TIP3   OH273480   0.209   4.380  11.970  0.4410 -0.3115  0.0126
17330TIP3    H173481   0.207   4.328  12.050  0.6132  2.4356  1.9061
17330TIP3    H273482   0.134   4.350  11.919 -0.9921 -0.6298  2.2342
17331TIP3   OH273483   3.991   5.629  13.270  0.3743 -0.1073  0.0041
17331TIP3    H173484   4.039   5.694  13.219 -0.0311  0.8953  0.8669
17331TIP3    H273485   3.904   5.668  13.282  0.1489 -0.7834  0.5840
17332TIP3   OH273486   5.736   6.317   3.382 -0.1774  0.3336  0.1963
17332TIP3    H173487   5.800   6.386   3.361  0.2790 -0.0058  0.4660
17332TIP3    H273488   5.759   6.245   3.324  1.3387 -0.7565  2.0896
17333TIP3   OH273489   4.881   3.383   4.360  0.6387  0.0399 -0.1000
17333TIP3    H173490   4.848   3.464   4.323  0.3317 -0.4648 -0.9459
17333TIP3    H273491   4.865   3.391   4.454 -1.6668 -0.0789 -0.4590
17334TIP3   OH273492   2.420   3.016   3.625  0.3134  0.6489  0.6085
17334TIP3    H173493   2.350   3.081   3.622 -0.5453 -0.3262 -1.7715
17334TIP3    H273494   2.375   2.932   3.627  1.4106  0.0662  1.4449
17335TIP3   OH273495   4.490   0.297  14.979  0.0040 -0.7869  0.1911
17335TIP3    H173496   4.528   0.226  14.928  1.6217 -0.6268  1.1283
17335TIP3    H273497   4.476   0.259  15.066 -1.0953 -0.5597  0.1222
17336TIP3   OH273498   2.588   5.052   4.343 -1.0423 -0.0215 -0.0428
17336TIP3    H173499   2.507   5.095   4.369 -1.7843  0.7170 -3.4112
17336TIP3    H273500   2.563   4.994   4.271  1.0990 -1.2126  0.1186
17337TIP3   OH273501   5.687   4.173  12.946  0.1517 -0.1933  0.3822
17337TIP3    H173502   5.678   4.199  12.854 -0.5876 -0.7772  0.2723
17337TIP3    H273503   5.779   4.187  12.967  0.1784  0.5857 -0.2523
17338TIP3   OH273504   4.372   2.806   2.959  0.1602  0.2351 -0.3542
17338TIP3    H173505   4.316   2.763   2.895  1.2492  0.9825 -1.8407
17338TIP3    H273506   4.380   2.743   3.030 -0.3939 -0.9570 -1.3256
17339TIP3   OH273507   2.908   5.316  11.958 -0.0144  0.3221 -0.2347
17339TIP3    H173508   2.855   5.356  11.890 -0.7906  1.1255  0.8196
17339TIP3    H273509   2.845   5.282  12.022  0.6933 -0.5234  0.0245
17340TIP3   OH273510   3.299   1.514  13.361 -0.3227 -0.0902 -0.2977
17340TIP3    H173511   3.247   1.476  13.431  1.2207  1.2791  1.6613
17340TIP3    H273512   3.384   1.471  13.368  0.3759  1.2748 -0.2079
17341TIP3   OH273513   0.611   0.544   1.444  0.4269 -0.2958 -0.1352
17341TIP3    H173514   0.646   0.456   1.432  1.4609  0.1487 -0.4607
17341TIP3    H273515   0.676   0.602   1.404  0.1047  0.6610  0.6921
17342TIP3   OH273516   2.774   0.919   4.717 -0.3099 -0.3053 -0.0264
17342TIP3    H173517   2.681   0.897   4.719  0.0392 -1.8441 -0.5980
17342TIP3    H273518   2.819   0.837   4.735  0.9730  0.2271 -0.7248
17343TIP3   OH273519   4.397   1.640  12.410  0.2522  0.1737 -0.5017
17343TIP3    H173520   4.425   1.626  12.500  0.7381 -0.6881 -0.7826
17343TIP3    H273521   4.325   1.578  12.398 -0.1980  0.7007 -0.5253
17344TIP3   OH273522   5.660   5.646  12.587  0.1491 -0.1834 -0.4077
17344TIP3    H173523   5.696   5.639  12.499 -0.9966 -1.0212 -0.8148
17344TIP3    H273524   5.613   5.564  12.600  1.3825 -0.6310  1.4701
17345TIP3   OH273525   0.931   3.449  16.885 -0.5427 -0.0790  0.0652
17345TIP3    H173526   0.895   3.365  16.915 -1.8612  0.6225  0.5144
17345TIP3    H273527   1.004   3.466  16.945 -1.4389 -0.0259  1.1785
17346TIP3   OH273528   4.456   3.836  16.010  0.2623 -0.6535  0.4460
17346TIP3    H173529   4.446   3.754  15.962 -1.9342 -0.2593  0.1961
17346TIP3    H273530   4.428   3.816  16.099  0.4548 -0.3684  0.5719
17347TIP3   OH273531   6.151   1.694   6.513  0.2167  0.3431  0.2067
17347TIP3    H173532   6.068   1.665   6.477  1.6087 -0.8096 -2.2418
17347TIP3    H273533   6.202   1.614   6.525  0.9615  1.0268  1.7104
17348TIP3   OH273534   1.480   6.594   0.924  0.2100  0.4546 -0.1040
17348TIP3    H173535   1.480   6.672   0.980  0.2624  0.8233 -0.6109
17348TIP3    H273536   1.573   6.570   0.917 -0.0850 -2.0861  3.3747
17349TIP3   OH273537   3.090   4.929   4.467  0.0853 -0.0935  0.1463
17349TIP3    H173538   3.085   5.022   4.448  0.7755  0.3135  1.8511
17349TIP3    H273539   3.068   4.922   4.560 -1.1641 -1.7705 -0.2457
17350TIP3   OH273540   4.262   0.891  16.352 -0.2336 -0.0250 -0.6138
17350TIP3    H173541   4.325   0.822  16.330 -2.0015 -1.9078  0.1125
17350TIP3    H273542   4.201   0.892  16.278 -0.7022  0.1841 -0.2246
17351TIP3   OH273543   4.162   0.534   5.842  0.2469  0.5599  0.2085
17351TIP3    H173544   4.219   0.597   5.797  0.5614  0.3867  0.3578
17351TIP3    H273545   4.206   0.518   5.926  1.6559 -1.9598 -0.9496
17352TIP3   OH273546   4.419   2.194   3.640  0.2659 -0.1419 -0.2014
17352TIP3    H173547   4.389   2.124   3.697 -0.5469 -0.5509 -1.1247
17352TIP3    H273548   4.340   2.240   3.613  0.8374  1.6717  1.0397
17353TIP3   OH273549   0.995   2.480   1.364  0.4404  0.2756 -0.1826
17353TIP3    H173550   1.043   2.530   1.430 -0.2125  1.0834 -0.3011
17353TIP3    H273551   1.026   2.390   1.374  2.0691  0.8094 -0.3575
17354TIP3   OH273552   3.156   5.134   5.308 -0.7101  0.4074  0.1219
17354TIP3    H173553   3.126   5.206   5.252  1.2461  0.2649 -1.1825
17354TIP3    H273554   3.221   5.088   5.254  0.8873 -0.0061  2.3542
17355TIP3   OH273555   2.491   0.066   3.474  0.4791  0.5779  0.1185
17355TIP3    H173556   2.570   0.085   3.424  1.0942  0.0900  0.8884
17355TIP3    H273557   2.483   0.138   3.536  0.6343  0.3502  0.4083
17356TIP3   OH273558   4.183   2.423  11.707  0.2425 -0.8330  0.0115
17356TIP3    H173559   4.099   2.464  11.687  0.9907  1.1072  0.7880
17356TIP3    H273560   4.169   2.330  11.688 -2.2209 -0.6180  0.5644
17357TIP3   OH273561   3.408   5.635  16.449 -0.2639  0.0525 -0.4619
17357TIP3    H173562   3.458   5.681  16.516  0.9972 -1.6424 -0.2054
17357TIP3    H273563   3.335   5.595  16.498  0.4574 -0.8897 -0.1350
17358TIP3   OH273564   1.190   2.723  15.021  0.4037 -0.0226 -0.3331
17358TIP3    H173565   1.120   2.668  14.986 -2.1099  1.7835  1.6477
17358TIP3    H273566   1.239   2.665  15.081 -0.1022 -0.9754 -0.8313
17359TIP3   OH273567   2.601   0.540  16.612 -0.4113  0.0859 -0.5371
17359TIP3    H173568   2.584   0.607  16.546  1.5950  0.4379 -0.7259
17359TIP3    H273569   2.685   0.564  16.650 -0.7993 -0.9899  1.0758
17360TIP3   OH273570   2.653   0.548  15.878 -0.4231  0.0887 -0.3946
17360TIP3    H173571   2.600   0.617  15.917 -1.9354 -1.5366  0.5030
17360TIP3    H273572   2.636   0.554  15.784 -0.7876  0.7486 -0.2840
17361TIP3   OH273573   3.642   1.314   0.414 -0.3162 -0.3910 -0.2121
17361TIP3    H173574   3.737   1.314   0.401 -0.2698 -0.2862  0.1262
17361TIP3    H273575   3.615   1.401   0.385 -0.7729 -1.5774 -3.6266
17362TIP3   OH273576   2.450   2.996   3.037  0.3195 -0.0927  0.4609
17362TIP3    H173577   2.360   3.027   3.036  0.5409  0.5459 -0.0541
17362TIP3    H273578   2.481   3.013   3.125 -0.1518 -0.5852  0.7282
17363TIP3   OH273579   3.589   0.147   2.643  0.6320  0.4483 -0.1277
17363TIP3    H173580   3.639   0.074   2.680 -0.8579 -0.5001  0.0246
17363TIP3    H273581   3.597   0.135   2.548 -0.0764 -0.2279 -0.1013
17364TIP3   OH273582   5.167   4.421  13.551  0.3145  0.3224 -0.3136
17364TIP3    H173583   5.071   4.425  13.558  0.2270 -0.0084 -1.2018
17364TIP3    H273584   5.196   4.389  13.636 -0.5148 -1.6056 -0.7383
17365TIP3   OH273585   3.119   6.430  13.605 -0.1923 -0.0432  0.3969
17365TIP3    H173586   3.138   6.337  13.617  0.7392  0.5282  3.9438
17365TIP3    H273587   3.042   6.446  13.660 -0.6946  1.1731 -0.6363
17366TIP3   OH273588   5.476   5.709   4.173  0.1404  0.3371 -0.7208
17366TIP3    H173589   5.381   5.700   4.166  0.3816 -2.1194 -1.2960
17366TIP3    H273590   5.508   5.709   4.083  0.8014 -0.4526 -0.4960
17367TIP3   OH273591   0.564   0.295  16.603 -0.1859  0.0212 -0.1815
17367TIP3    H173592   0.498   0.338  16.657 -1.8224 -1.9847 -0.5140
17367TIP3    H273593   0.643   0.296  16.656 -0.6544  1.8294  0.5124
17368TIP3   OH273594   5.250   2.994   1.743  0.3944  0.1544  0.1589
17368TIP3    H173595   5.223   2.903   1.744  1.1946 -0.0806  0.5805
17368TIP3    H273596   5.174   3.042   1.777 -0.5077 -0.2099 -1.2834
17369TIP3   OH273597   2.664   3.254  16.633 -0.1987  0.3156  0.4383
17369TIP3    H173598   2.676   3.252  16.538  1.1831  0.2099  0.6009
17369TIP3    H273599   2.695   3.341  16.659 -1.8159  0.8577  0.6588
17370TIP3   OH273600   2.756   2.017  12.000 -0.3773  0.2297 -0.1355
17370TIP3    H173601   2.779   1.926  11.983  0.2700  0.2692  0.5092
17370TIP3    H273602   2.797   2.065  11.928  0.8658  0.2105  0.5584
17371TIP3   OH273603   2.401   1.844  16.936  0.1055  0.3456 -0.0951
17371TIP3    H173604   2.351   1.905  16.883  0.6145  1.5383  0.7860
17371TIP3    H273605   2.475   1.895  16.970  0.8181 -0.8773  0.2352
17372TIP3   OH273606   6.312   3.692   5.168 -0.5771  0.1207  0.4781
17372TIP3    H173607   6.237   3.671   5.113 -0.2063  0.3045 -0.1042
17372TIP3    H273608   6.275   3.703   5.255 -0.9510 -1.7442  0.5807
17373TIP3   OH273609   2.772   5.068  16.548 -0.3459  0.6557 -0.1186
17373TIP3    H173610   2.851   5.120  16.538 -0.6246  1.3655  1.2113
17373TIP3    H273611   2.715   5.096  16.476 -1.1888  3.5019  1.5680
17374TIP3   OH273612   6.422   1.082  13.425 -0.3688  0.2040 -0.2816
17374TIP3    H173613   6.472   1.014  13.381 -0.7100  0.6137 -1.3189
17374TIP3    H273614   6.444   1.162  13.378  0.1053  0.8392  0.9852
17375TIP3   OH273615   3.488   4.449  16.594 -0.0833  0.0095  0.3249
17375TIP3    H173616   3.477   4.543  16.611 -2.3881 -0.1403 -0.2278
17375TIP3    H273617   3.523   4.414  16.676 -1.7669  0.9068  1.4448
17376TIP3   OH273618   4.380   4.103   3.707  0.0525  0.0866  0.2242
17376TIP3    H173619   4.390   4.037   3.638 -0.3721 -0.6956  0.9044
17376TIP3    H273620   4.314   4.164   3.673 -0.3961 -0.4814  0.0734
17377TIP3   OH273621   2.055   5.587   2.856 -0.2881 -0.7377 -0.0278
17377TIP3    H173622   2.072   5.502   2.896  0.7775 -0.5072  0.0258
17377TIP3    H273623   1.990   5.628   2.914  0.4521 -0.8411  0.8806
17378TIP3   OH273624   4.575   1.845   5.475 -0.1134  0.2149 -0.4986
17378TIP3    H173625   4.598   1.807   5.390 -2.0444 -0.2352 -0.8578
17378TIP3    H273626   4.606   1.781   5.539 -0.0277 -0.1962 -0.9501
17379TIP3   OH273627   1.904   5.154   2.656 -0.8266  0.4389  0.2311
17379TIP3    H173628   1.985   5.184   2.615 -0.6002 -0.5385 -0.0474
17379TIP3    H273629   1.875   5.228   2.709 -0.1762  1.0759 -0.3033
17380TIP3   OH273630   6.028   1.163   5.389  0.2590 -0.2230 -0.0461
17380TIP3    H173631   6.102   1.187   5.446  0.0833 -0.4101  0.2602
17380TIP3    H273632   5.982   1.246   5.374  1.2112  0.1242 -1.2253
17381TIP3   OH273633   2.844   2.311  15.848  0.1177 -0.9843  0.1869
17381TIP3    H173634   2.801   2.298  15.763  1.4448 -3.1106 -0.1799
17381TIP3    H273635   2.896   2.390  15.837 -0.9218 -0.3848 -0.4843
17382TIP3   OH273636   5.137   0.603  12.926  0.2353  0.1684 -0.0719
17382TIP3    H173637   5.162   0.682  12.879  1.7500 -0.1018  0.2564
17382TIP3    H273638   5.082   0.554  12.864  0.6184  0.7124 -0.8466
17383TIP3   OH273639   2.821   1.550  17.198 -0.6774  0.0361  0.5777
17383TIP3    H173640   2.812   1.476  17.258  0.3856 -1.2926 -0.8653
17383TIP3    H273641   2.744   1.603  17.214 -1.7027 -1.6361  1.3224
17384TIP3   OH273642   6.144   1.561  15.758 -0.0363 -0.2168 -0.2614
17384TIP3    H173643   6.113   1.591  15.672  0.3677  0.0638 -0.3105
17384TIP3    H273644   6.239   1.568  15.753  0.0434 -1.0633 -0.1104
17385TIP3   OH273645   3.712   5.797   0.407  0.1890 -0.1876 -0.0309
17385TIP3    H173646   3.782   5.841   0.359  0.6013 -2.8525 -1.9667
17385TIP3    H273647   3.753   5.770   0.489  0.8693  0.0827 -0.2756
17386TIP3   OH273648   6.284   2.424  16.906 -0.1439  0.7805  0.2693
17386TIP3    H173649   6.322   2.512  16.908  0.4145  0.5165  1.5315
17386TIP3    H273650   6.345   2.370  16.955 -1.0217 -0.1001  0.4080
17387TIP3   OH273651   6.386   5.630  16.510  0.1260  0.1818 -0.5319
17387TIP3    H173652   6.306   5.625  16.457 -0.9478 -2.2217  1.2304
17387TIP3    H273653   6.361   5.684  16.585  0.1643 -0.6159  0.0489
17388TIP3   OH273654   1.418   5.236   5.403  0.0161 -0.0422 -0.6957
17388TIP3    H173655   1.381   5.159   5.360  0.3569 -0.3400 -0.4604
17388TIP3    H273656   1.470   5.201   5.476 -0.2154  0.4345 -0.2964
17389TIP3   OH273657   2.410   3.421  14.207 -0.7872  0.5552 -0.3151
17389TIP3    H173658   2.360   3.439  14.286 -1.3373 -0.3144 -0.4524
17389TIP3    H273659   2.378   3.484  14.143 -0.4167  1.1877  0.1193
17390TIP3   OH273660   0.435   3.687   4.868  0.6202  0.1085  0.2012
17390TIP3    H173661   0.411   3.599   4.897 -1.0428  0.1799 -0.9551
17390TIP3    H273662   0.530   3.692   4.884  0.3542 -1.0672  2.4051
17391TIP3   OH273663   6.467   5.178  14.546 -0.1674  0.2380  0.0532
17391TIP3    H173664   6.477   5.083  14.538  0.8455  0.4223 -1.0615
17391TIP3    H273665   6.397   5.199  14.484  0.8201  0.4266 -1.0133
17392TIP3   OH273666   2.348   0.651   5.316  0.2137  0.3119 -0.3395
17392TIP3    H173667   2.320   0.571   5.361  2.5430 -0.0447  0.5919
17392TIP3    H273668   2.280   0.668   5.250 -1.7418 -0.8273  1.3471
17393TIP3   OH273669   4.243   0.096  12.944 -0.4107 -0.2201  0.4939
17393TIP3    H173670   4.184   0.021  12.954 -1.2231  0.2273 -0.8281
17393TIP3    H273671   4.188   0.173  12.963  0.3511  0.0686  1.5893
17394TIP3   OH273672   5.004   0.843  12.394 -0.0426  0.3943 -0.4210
17394TIP3    H173673   4.956   0.772  12.437  1.1889  0.0661  0.4768
17394TIP3    H273674   5.015   0.814  12.303  0.1944 -0.4483 -0.1304
17395TIP3   OH273675   0.267   6.137  13.454  0.0408  0.2344 -1.2479
17395TIP3    H173676   0.241   6.229  13.462 -0.3728  0.0899 -0.9463
17395TIP3    H273677   0.354   6.134  13.494 -0.9322  0.0296  0.9094
17396TIP3   OH273678   1.574   5.243   4.534 -0.3055  0.2258 -0.2898
17396TIP3    H173679   1.499   5.240   4.594 -1.4284  1.0507 -1.6066
17396TIP3    H273680   1.537   5.216   4.450  1.5747 -2.4088 -0.3322
17397TIP3   OH273681   5.813   5.654   1.152  0.0071 -0.0556 -0.6915
17397TIP3    H173682   5.781   5.743   1.166  2.3357  0.6357  0.4269
17397TIP3    H273683   5.761   5.600   1.211  1.6124  1.2126  1.9662
17398TIP3   OH273684   1.501   2.055   1.587 -0.0619 -0.1324 -0.7292
17398TIP3    H173685   1.482   1.969   1.551  1.5401 -1.1889  0.8929
17398TIP3    H273686   1.524   2.108   1.511 -0.4032 -1.3075 -1.6629
17399TIP3   OH273687   6.007   2.295   0.825 -0.6978 -0.9662  0.0102
17399TIP3    H173688   6.023   2.355   0.898 -0.6460  0.3122 -1.0320
17399TIP3    H273689   6.082   2.235   0.827  0.5230  0.5062 -0.3971
17400TIP3   OH273690   0.469   6.055  14.506  0.5921 -0.3218 -0.1629
17400TIP3    H173691   0.391   6.084  14.553  0.1897  0.7654 -1.4652
17400TIP3    H273692   0.453   5.962  14.487  0.3119 -0.5001  0.9180
17401TIP3   OH273693   6.411   1.327   5.897 -0.3031 -0.1040 -0.0365
17401TIP3    H173694   6.380   1.262   5.834  0.9245  0.4161 -1.2172
17401TIP3    H273695   6.433   1.403   5.843  1.8355 -0.0437  0.8603
17402TIP3   OH273696   3.193   3.118   4.704  0.4167 -0.0775 -0.2489
17402TIP3    H173697   3.256   3.080   4.642 -0.2843 -0.3557 -0.7949
17402TIP3    H273698   3.239   3.194   4.740  1.4795 -0.8974  0.1736
17403TIP3   OH273699   6.085   4.557   2.212 -0.2295 -0.2611 -0.0521
17403TIP3    H173700   6.030   4.521   2.282  1.0865 -0.6383  0.8045
17403TIP3    H273701   6.049   4.644   2.196 -0.7934 -0.3248  0.8303
17404TIP3   OH273702   5.347   0.550   3.338  0.8218 -0.4305  0.5991
17404TIP3    H173703   5.385   0.636   3.358 -2.1447  1.0827  0.0430
17404TIP3    H273704   5.380   0.528   3.251  1.1894  0.3901  0.5268
17405TIP3   OH273705   4.836   1.870  14.457  1.0520 -0.0858  0.1207
17405TIP3    H173706   4.782   1.795  14.431  0.5254  1.0157 -2.0924
17405TIP3    H273707   4.926   1.841  14.441  1.0882 -1.3384  2.2829
17406TIP3   OH273708   6.387   4.914   3.981 -0.5555 -0.3259 -0.5363
17406TIP3    H173709   6.428   4.972   4.045 -1.3569  0.4831 -0.7399
17406TIP3    H273710   6.457   4.855   3.954 -0.2393 -0.7636  1.1705
17407TIP3   OH273711   5.140   4.753  13.310 -0.7890 -0.0946 -0.0703
17407TIP3    H173712   5.219   4.796  13.344 -0.6990  0.1193 -0.5403
17407TIP3    H273713   5.170   4.665  13.287 -0.5877  0.1231 -0.6438
17408TIP3   OH273714   1.253   5.035   6.288 -0.3098 -0.6464  0.1871
17408TIP3    H173715   1.222   5.071   6.371 -0.6512  0.5939 -0.4716
17408TIP3    H273716   1.207   4.952   6.278 -0.6378 -0.5589  0.9897
17409TIP3   OH273717   1.399   4.631  16.954 -0.0834  0.1301 -0.1134
17409TIP3    H173718   1.356   4.689  16.890  0.5315  1.6471  0.8407
17409TIP3    H273719   1.329   4.572  16.981 -1.0544  1.2160 -0.1748
17410TIP3   OH273720   4.496   5.937   2.712 -0.1941 -0.2356 -0.2345
17410TIP3    H173721   4.425   5.878   2.740 -1.5453  0.4795 -2.0278
17410TIP3    H273722   4.474   6.021   2.753  0.7867 -0.5218  0.9102
17411TIP3   OH273723   1.878   4.699  12.858  0.7570 -0.5141  0.4889
17411TIP3    H173724   1.966   4.704  12.895  0.8660 -1.8683  0.4619
17411TIP3    H273725   1.882   4.755  12.781  0.3501  2.8038  2.7932
17412TIP3   OH273726   2.149   5.052   5.078  0.4334 -0.1173 -0.5488
17412TIP3    H173727   2.107   5.038   4.993  0.1943 -1.3766 -0.2251
17412TIP3    H273728   2.131   4.972   5.128  0.2021  0.7727  0.8422
17413TIP3   OH273729   5.930   2.568   3.866 -0.1617  0.3048 -0.5344
17413TIP3    H173730   6.021   2.599   3.865 -0.7188  2.0075 -2.1263
17413TIP3    H273731   5.930   2.491   3.810  0.7844 -1.2644  1.5572
17414TIP3   OH273732   4.057   1.525  16.845  0.6622  0.5574  0.5146
17414TIP3    H173733   4.083   1.613  16.818  1.9225  0.0212 -0.0527
17414TIP3    H273734   4.131   1.470  16.821  0.1447 -0.5621  1.4581
17415TIP3   OH273735   5.164   4.162  15.617 -0.4237 -0.2408  0.8559
17415TIP3    H173736   5.107   4.180  15.542  0.5565 -1.4819 -0.2030
17415TIP3    H273737   5.233   4.106  15.582  1.1702  0.8025  2.2470
17416TIP3   OH273738   5.632   1.818  15.125 -0.1873 -0.6761  0.7187
17416TIP3    H173739   5.712   1.857  15.090 -0.5291  0.4298  1.1567
17416TIP3    H273740   5.662   1.737  15.166  0.5922 -0.6710  0.1843
17417TIP3   OH273741   0.543   3.035   5.789  0.0777  0.2273 -0.4094
17417TIP3    H173742   0.587   2.983   5.856  0.3357  0.4017 -0.4411
17417TIP3    H273743   0.609   3.099   5.762 -0.0862  0.2743 -0.6980
17418TIP3   OH273744   3.180   5.017  13.655 -0.6571 -0.1746  0.1813
17418TIP3    H173745   3.161   4.983  13.743 -2.5319  0.2197 -0.0556
17418TIP3    H273746   3.113   4.978  13.599 -0.6768  1.1384 -0.7289
17419TIP3   OH273747   6.806   3.288   1.018  0.2578  0.0685  0.0601
17419TIP3    H173748   6.754   3.214   1.049 -0.3550  1.6343  2.9151
17419TIP3    H273749   6.897   3.261   1.032  0.2213 -1.6612 -2.5982
17420TIP3   OH273750   0.738   1.645  11.399  0.1595 -0.1915 -0.6423
17420TIP3    H173751   0.789   1.713  11.443  0.2427 -0.1426 -0.8159
17420TIP3    H273752   0.786   1.626  11.319  0.5873 -1.0688 -0.1722
17421TIP3   OH273753   2.935   6.616  17.268  0.3017  0.5384 -0.1123
17421TIP3    H173754   3.028   6.625  17.288 -0.0151  1.4211  1.0088
17421TIP3    H273755   2.926   6.527  17.235  1.1010 -0.5336  2.4112
17422TIP3   OH273756   0.650   1.491   4.668  0.1034  0.1013  0.0008
17422TIP3    H173757   0.692   1.556   4.612  2.1286 -1.1299  0.0155
17422TIP3    H273758   0.712   1.478   4.740  0.0743 -2.3038 -0.3579
17423TIP3   OH273759   1.984   1.104   3.182 -0.0437  0.5275 -0.1697
17423TIP3    H173760   1.913   1.039   3.180  0.2103  0.2190  0.7043
17423TIP3    H273761   2.061   1.055   3.210  0.4998  0.8904 -1.0055
17424TIP3   OH273762   1.385   4.312  11.958  0.5293  0.0139  0.4308
17424TIP3    H173763   1.341   4.345  12.036  1.2600 -0.2167  0.9452
17424TIP3    H273764   1.380   4.217  11.966  4.6160 -0.1042  2.5293
17425TIP3   OH273765   1.211   3.051   3.093 -0.3341  0.4275 -0.1517
17425TIP3    H173766   1.279   3.065   3.159 -1.0964  2.8342  0.1854
17425TIP3    H273767   1.137   3.015   3.142 -0.9658  2.3866  0.3965
17426TIP3   OH273768   1.180   4.473  16.719  0.2700 -0.6996  0.2926
17426TIP3    H173769   1.099   4.469  16.669 -0.9435  0.0965  2.1557
17426TIP3    H273770   1.170   4.406  16.787  0.8157 -0.0292  1.0492
17427TIP3   OH273771   4.053   4.783   6.058  0.1386 -0.1073  0.2110
17427TIP3    H173772   4.057   4.704   6.113  0.0442 -1.0474 -1.1165
17427TIP3    H273773   4.087   4.755   5.973  0.1478  1.3025 -0.2569
17428TIP3   OH273774   6.493   5.830  13.482  0.2278  0.5182  0.0903
17428TIP3    H173775   6.522   5.787  13.402  0.6928  1.2470 -0.1379
17428TIP3    H273776   6.568   5.883  13.510  0.4902 -0.6295  1.6508
17429TIP3   OH273777   0.421   5.917   2.302  0.1699 -1.0375  0.4089
17429TIP3    H173778   0.411   5.911   2.207  0.6391  0.7930  0.2199
17429TIP3    H273779   0.442   6.009   2.318 -1.1707 -1.0312  2.3933
17430TIP3   OH273780   0.648   3.179  11.162 -0.2522  0.5881  0.2722
17430TIP3    H173781   0.743   3.192  11.159 -0.3002  0.5373 -2.7260
17430TIP3    H273782   0.618   3.234  11.234  2.1104  0.1166  1.6756
17431TIP3   OH273783   1.264   0.366  15.019 -0.0797 -0.2955 -0.1054
17431TIP3    H173784   1.330   0.423  14.980 -0.7124  0.3062 -0.2865
17431TIP3    H273785   1.193   0.363  14.955 -0.5224 -0.4042  0.3908
17432TIP3   OH273786   5.012   1.031   4.095 -0.0710  0.3176 -0.0308
17432TIP3    H173787   5.106   1.044   4.104 -0.0031  0.1559 -0.4826
17432TIP3    H273788   5.000   0.937   4.102 -0.5269  0.5502  2.9539
17433TIP3   OH273789   2.216   2.633  10.845 -0.2480 -0.0789  0.8502
17433TIP3    H173790   2.300   2.675  10.826 -0.7800 -0.0371 -1.5574
17433TIP3    H273791   2.152   2.704  10.839 -0.7984 -0.6622 -0.2948
17434TIP3   OH273792   3.837   5.856  13.904 -0.1335  0.5443  0.2493
17434TIP3    H173793   3.816   5.941  13.865 -0.4977  0.0305 -0.7032
17434TIP3    H273794   3.924   5.835  13.870 -0.6865 -0.1601 -0.7205
17435TIP3   OH273795   5.438   2.372   6.258 -0.0087  0.3895 -0.2593
17435TIP3    H173796   5.406   2.347   6.171 -1.7365  0.9017  0.1953
17435TIP3    H273797   5.497   2.445   6.243  1.5524 -1.0275 -1.1993
17436TIP3   OH273798   4.058   2.756  13.821 -0.2972 -0.6952 -0.3640
17436TIP3    H173799   4.058   2.807  13.902  0.7093  0.2847 -0.9560
17436TIP3    H273800   4.005   2.809  13.760  0.1433 -0.7197 -0.7667
17437TIP3   OH273801   5.351   6.161  13.929  0.1949  0.0765 -0.4551
17437TIP3    H173802   5.322   6.209  14.007  0.9304  0.3311 -0.3374
17437TIP3    H273803   5.269   6.135  13.886 -0.2233  1.4344 -0.5136
17438TIP3   OH273804   2.788   1.232  12.218 -0.0481  0.3813  0.2527
17438TIP3    H173805   2.815   1.281  12.296 -1.0249  0.7971  0.3449
17438TIP3    H273806   2.802   1.140  12.241  1.5499  0.5944  0.1823
17439TIP3   OH273807   0.687   5.563  15.954 -0.1501  0.1218 -0.2081
17439TIP3    H173808   0.727   5.647  15.977 -1.4538  0.4156  1.0557
17439TIP3    H273809   0.756   5.515  15.910  1.0249  1.3364  0.2807
17440TIP3   OH273810   1.369   6.658  13.199 -0.9546 -0.3952  0.1019
17440TIP3    H173811   1.345   6.615  13.282 -0.7951 -0.9545 -0.1395
17440TIP3    H273812   1.458   6.628  13.182 -0.5379  0.6880  0.3459
17441TIP3   OH273813   1.028   5.025  14.665 -0.2293 -0.0256  0.9246
17441TIP3    H173814   1.001   4.934  14.663 -0.4116  0.0339 -1.9096
17441TIP3    H273815   0.947   5.074  14.679 -0.3771 -0.2343  0.8002
17442TIP3   OH273816   0.316   1.477  16.443 -0.3306  0.5911  0.6061
17442TIP3    H173817   0.233   1.505  16.406  0.2873  0.0241 -1.2973
17442TIP3    H273818   0.382   1.507  16.379  0.7654 -0.5149  1.1931
17443TIP3   OH273819   4.896   3.719   0.425 -0.4916 -0.6889  0.2537
17443TIP3    H173820   4.868   3.640   0.380  1.1435 -1.3607  0.3707
17443TIP3    H273821   4.815   3.759   0.457 -1.4345 -1.5848 -0.9975
17444TIP3   OH273822   4.203   4.997   4.484  0.4641  0.8178  0.0686
17444TIP3    H173823   4.133   5.000   4.419 -0.3497 -0.0584  0.8780
17444TIP3    H273824   4.272   4.946   4.442  0.2602  0.9454 -0.4231
17445TIP3   OH273825   3.622   6.086   0.546 -0.8370 -0.0289  0.0594
17445TIP3    H173826   3.554   6.032   0.506  1.3711 -2.9373  0.1052
17445TIP3    H273827   3.660   6.135   0.472 -1.9643  0.5147 -0.1757
17446TIP3   OH273828   2.719   5.363   0.384  0.3704  0.7602 -0.0206
17446TIP3    H173829   2.739   5.455   0.367 -0.2732  0.9289  0.1126
17446TIP3    H273830   2.753   5.347   0.472  0.3292  0.9166  0.0244
17447TIP3   OH273831   5.181   4.864   0.722  0.5808 -0.4225  0.2696
17447TIP3    H173832   5.241   4.936   0.701  0.0596 -0.4397 -1.3663
17447TIP3    H273833   5.097   4.893   0.687 -0.1086 -0.9080  1.5079
17448TIP3   OH273834   6.320   2.540   4.396  0.1724 -0.1438  0.1891
17448TIP3    H173835   6.268   2.604   4.349  0.7141 -0.9041 -1.5138
17448TIP3    H273836   6.256   2.478   4.432 -0.1475 -0.8713 -1.5779
17449TIP3   OH273837   1.615   4.026   4.466 -0.7506  0.3094 -0.0456
17449TIP3    H173838   1.617   3.967   4.390  0.5158  0.0719  0.1530
17449TIP3    H273839   1.666   4.102   4.438 -1.7286  0.9732 -0.0267
17450TIP3   OH273840   1.829   4.458  14.167 -0.3234 -0.4098 -0.1386
17450TIP3    H173841   1.902   4.451  14.105  1.9052 -0.0792  2.3180
17450TIP3    H273842   1.792   4.370  14.171 -0.5246 -0.4190 -1.9434
17451TIP3   OH273843   4.381   5.944  16.677  0.6691  0.4075  0.3105
17451TIP3    H173844   4.418   6.027  16.708  0.3072  0.8452 -0.4355
17451TIP3    H273845   4.288   5.961  16.666 -0.1066 -1.1261  3.6800
17452TIP3   OH273846   6.539   4.274   2.373  0.6317 -0.4905  0.0917
17452TIP3    H173847   6.468   4.211   2.364  0.8436 -0.5429 -1.2764
17452TIP3    H273848   6.528   4.334   2.299  0.4483  1.0810  1.3435
17453TIP3   OH273849   5.670   1.534   4.562  0.2815  0.3759  0.1878
17453TIP3    H173850   5.727   1.536   4.485  0.4564 -1.3713  0.2372
17453TIP3    H273851   5.601   1.596   4.543 -0.3284 -0.9003 -1.9366
17454TIP3   OH273852   0.991   1.970  12.778 -1.5050 -0.3422 -0.1553
17454TIP3    H173853   0.991   1.927  12.864  0.7901 -0.0963  0.0092
17454TIP3    H273854   1.013   2.061  12.798 -3.2665  0.2486 -0.8078
17455TIP3   OH273855   3.887   0.239  14.880  0.6719  0.4465 -0.1004
17455TIP3    H173856   3.955   0.239  14.946  0.6673  1.2623 -0.0855
17455TIP3    H273857   3.917   0.176  14.814  2.1335  1.8216 -0.7833
17456TIP3   OH273858   0.153   2.826  16.580 -0.6263  0.8212 -0.0845
17456TIP3    H173859   0.088   2.760  16.603  1.7438 -1.5917 -0.0788
17456TIP3    H273860   0.206   2.836  16.659  2.2046 -1.1607 -1.6238
17457TIP3   OH273861   2.943   0.703  14.883  0.3020  0.1909  0.1615
17457TIP3    H173862   3.022   0.746  14.851  0.4637 -0.4415 -0.2845
17457TIP3    H273863   2.916   0.756  14.958  0.2903  1.3033 -0.6087
17458TIP3   OH273864   4.674   5.436   4.242  0.1544  0.1461  0.1501
17458TIP3    H173865   4.684   5.485   4.324  1.2890  0.1690  0.0019
17458TIP3    H273866   4.625   5.495   4.184 -2.5553 -0.6804  1.4982
17459TIP3   OH273867   1.266   0.329   6.428  0.2063  0.0222  0.1137
17459TIP3    H173868   1.290   0.237   6.422 -0.5448 -0.1634 -0.0789
17459TIP3    H273869   1.191   0.330   6.487  0.6443  0.5893  0.6665
17460TIP3   OH273870   3.843   3.564  14.263 -0.1700 -0.4908 -0.4055
17460TIP3    H173871   3.754   3.591  14.241  0.4961  1.3811 -0.9289
17460TIP3    H273872   3.849   3.575  14.358  0.5530  2.8330 -0.7678
17461TIP3   OH273873   1.186   5.789  16.769  0.0354  0.5176 -0.5047
17461TIP3    H173874   1.258   5.752  16.716 -1.1896 -1.2463 -0.9807
17461TIP3    H273875   1.197   5.748  16.855 -0.6315 -0.0521 -0.6914
17462TIP3   OH273876   4.521   0.288   0.641  0.1474  0.4502  0.1242
17462TIP3    H173877   4.452   0.222   0.653  0.1641  0.5953  1.0653
17462TIP3    H273878   4.566   0.261   0.561 -0.9840  0.3343 -0.4884
17463TIP3   OH273879   6.785   4.311  13.868  0.1985 -0.2771 -0.4047
17463TIP3    H173880   6.750   4.394  13.836 -0.2791  0.2519  1.4405
17463TIP3    H273881   6.754   4.304  13.958  0.2751 -2.4487 -0.5100
17464TIP3   OH273882   0.239   0.742  11.900 -0.4410 -0.5788 -0.3167
17464TIP3    H173883   0.178   0.785  11.960 -2.4884  0.2381 -2.8654
17464TIP3    H273884   0.264   0.812  11.838  1.0107 -1.5658 -0.8643
17465TIP3   OH273885   5.020   2.992  14.577 -0.0892  0.1213  0.0819
17465TIP3    H173886   5.029   3.022  14.487 -1.9810  0.2206 -0.0742
17465TIP3    H273887   5.068   3.058  14.629  1.6290 -0.3340 -0.8808
17466TIP3   OH273888   5.025   2.703  10.800  0.7537  0.6000 -0.1594
17466TIP3    H173889   4.950   2.688  10.858  0.2616  1.5923 -0.5262
17466TIP3    H273890   5.101   2.702  10.859  0.4542 -0.3350  0.2230
17467TIP3   OH273891   5.195   6.381  16.783  0.1419  0.0330 -0.6289
17467TIP3    H173892   5.209   6.290  16.809 -0.6407 -0.1962 -0.9921
17467TIP3    H273893   5.116   6.379  16.728 -0.5386  1.0818  0.2752
17468TIP3   OH273894   3.035   2.634   3.450 -0.0674  0.5418  0.0165
17468TIP3    H173895   3.031   2.703   3.384 -0.2594  0.7365  0.2301
17468TIP3    H273896   2.955   2.647   3.502  0.9955  1.5429  1.4344
17469TIP3   OH273897   2.337   4.224  10.799  0.2174  0.0919  0.6638
17469TIP3    H173898   2.364   4.174  10.876  0.2968  0.4168  0.8465
17469TIP3    H273899   2.311   4.310  10.834 -1.7923 -0.4619  0.5948
17470TIP3   OH273900   1.299   5.464   3.053 -0.4104 -0.8260  0.0434
17470TIP3    H173901   1.267   5.543   3.011  1.3032  0.3006  0.8270
17470TIP3    H273902   1.300   5.398   2.983  0.7893  0.5755 -1.2884
17471TIP3   OH273903   1.800   1.953  11.812 -0.1954  0.1580 -0.4331
17471TIP3    H173904   1.744   1.903  11.753 -1.7781 -2.9988  3.5070
17471TIP3    H273905   1.888   1.922  11.794 -0.9347 -2.5743  0.4426
17472TIP3   OH273906   5.626   3.759  11.979  0.3503  0.0543  0.3581
17472TIP3    H173907   5.613   3.735  11.887 -0.7546  0.5702  0.3690
17472TIP3    H273908   5.701   3.818  11.979 -1.4488  2.4578 -0.6289
17473TIP3   OH273909   3.615   6.590   3.975 -0.4321  0.1305  0.4788
17473TIP3    H173910   3.619   6.621   4.065 -0.2456 -0.7091  0.7677
17473TIP3    H273911   3.552   6.648   3.932 -1.3923 -0.1745  1.4454
17474TIP3   OH273912   3.084   5.615   0.451 -0.4988  0.0901 -0.7383
17474TIP3    H173913   3.050   5.623   0.540 -3.7173 -1.1768 -1.7933
17474TIP3    H273914   3.078   5.522   0.432  0.4940  0.3102 -2.1886
17475TIP3   OH273915   2.972   5.674  17.233  0.2166 -0.5298  0.4520
17475TIP3    H173916   2.890   5.625  17.228 -0.0397  0.1185 -2.8746
17475TIP3    H273917   3.024   5.628  17.299 -1.5020 -2.9609  0.1567
17476TIP3   OH273918   2.647   3.148  11.525 -0.0445  0.1740  0.4116
17476TIP3    H173919   2.711   3.141  11.596  0.0152  1.8862  0.5577
17476TIP3    H273920   2.662   3.070  11.471  0.9258 -0.3756  1.4560
17477TIP3   OH273921   4.304   1.803  11.386  0.1873 -0.7711  0.3705
17477TIP3    H173922   4.217   1.763  11.384  0.1775 -0.7600  0.6198
17477TIP3    H273923   4.313   1.838  11.474  1.0595 -2.1427  0.8520
17478TIP3   OH273924   6.227   4.630  11.462  0.0644  0.4747  0.4934
17478TIP3    H173925   6.143   4.676  11.461 -0.7914 -1.0606 -0.1358
17478TIP3    H273926   6.204   4.539  11.480  1.4034 -0.2855 -1.5000
17479TIP3   OH273927   5.951   2.998  12.003  0.2231 -0.1349 -0.6490
17479TIP3    H173928   6.028   3.053  11.997  0.0258  0.2876  0.5860
17479TIP3    H273929   5.877   3.059  12.005  0.0596 -0.3451  1.8740
17480TIP3   OH273930   1.196   0.888   4.137 -0.0978 -0.1579 -0.0259
17480TIP3    H173931   1.170   0.978   4.157  1.7630  0.4131 -0.0945
17480TIP3    H273932   1.128   0.856   4.078 -0.4288  1.4213 -0.5115
17481TIP3   OH273933   4.444   2.617   5.737  0.0418 -0.4265 -0.2656
17481TIP3    H173934   4.363   2.568   5.749  2.2508 -4.0353  0.5728
17481TIP3    H273935   4.453   2.669   5.817 -0.3138 -1.7125  0.6192
17482TIP3   OH273936   1.958   0.831   3.759 -0.2666 -0.9000  0.2578
17482TIP3    H173937   1.899   0.766   3.796 -0.4000  1.0817  3.7001
17482TIP3    H273938   1.901   0.900   3.727  0.0071 -1.2439 -1.0287
17483TIP3   OH273939   0.558   1.531  15.127 -0.3044  0.1179  0.0803
17483TIP3    H173940   0.651   1.554  15.125 -0.3064  0.1041 -0.2104
17483TIP3    H273941   0.543   1.499  15.216  0.3663 -1.5113 -0.3755
17484TIP3   OH273942   4.622   2.232   4.017 -0.2075 -0.2522  0.5036
17484TIP3    H173943   4.553   2.166   4.016 -0.0391 -0.4347 -1.0219
17484TIP3    H273944   4.701   2.184   4.042 -0.4786 -0.1944  1.4941
17485TIP3   OH273945   3.745   3.467  14.550 -0.3836 -0.1928  0.4253
17485TIP3    H173946   3.772   3.532  14.616  0.2209 -0.4413  0.4249
17485TIP3    H273947   3.798   3.390  14.569 -0.2437 -0.2865 -0.3139
17486TIP3   OH273948   3.523   2.022   4.718 -0.3485 -0.0466  0.2525
17486TIP3    H173949   3.604   1.998   4.763 -0.6166 -2.0148 -0.2860
17486TIP3    H273950   3.458   2.029   4.787 -0.2603 -0.8262  0.4103
17487TIP3   OH273951   0.951   3.611   4.978  0.3461 -0.5352 -0.6769
17487TIP3    H173952   0.883   3.558   5.020  0.4420 -1.2851 -1.4465
17487TIP3    H273953   1.021   3.549   4.958  1.1187  0.1690 -0.2029
17488TIP3   OH273954   1.908   1.107   0.795  0.1982  0.0090  0.0473
17488TIP3    H173955   1.845   1.046   0.758 -1.0809  0.3639  1.6107
17488TIP3    H273956   1.856   1.166   0.850  1.4408  2.2702 -1.1072
17489TIP3   OH273957   6.485   6.125  14.856  0.0526 -0.8983  0.1685
17489TIP3    H173958   6.574   6.106  14.828  0.4676 -1.7723  1.9977
17489TIP3    H273959   6.437   6.043  14.841 -0.5431 -0.3083 -1.1872
17490TIP3   OH273960   0.092   6.106  13.101 -0.5426  0.2498 -0.0216
17490TIP3    H173961   0.071   6.157  13.179  0.0263  0.5459 -0.0532
17490TIP3    H273962   0.013   6.110  13.047  0.1528  2.8390 -0.9474
17491TIP3   OH273963   5.547   5.759  14.211 -0.2444 -0.0777 -0.2083
17491TIP3    H173964   5.485   5.800  14.150 -0.1474 -2.5381 -2.0591
17491TIP3    H273965   5.625   5.741  14.158  0.4677 -0.7462  1.0514
17492TIP3   OH273966   2.131   1.524   2.406 -0.5467  0.2610 -0.4038
17492TIP3    H173967   2.054   1.520   2.349 -0.3348 -1.2546 -0.5911
17492TIP3    H273968   2.113   1.463   2.477  0.5034 -0.1401 -0.4715
17493TIP3   OH273969   4.608   4.917   4.673  0.4040  0.8135 -0.1315
17493TIP3    H173970   4.586   4.830   4.638  1.8208  0.7128 -0.8154
17493TIP3    H273971   4.543   4.975   4.634 -1.2994 -0.1035  1.2770
17494TIP3   OH273972   6.094   2.186  16.773  0.2313 -0.3936 -0.1693
17494TIP3    H173973   6.101   2.187  16.869 -3.3261 -1.5530  0.1618
17494TIP3    H273974   6.087   2.278  16.749  1.2402 -0.0881  0.6635
17495TIP3   OH273975   4.161   2.579  10.992  0.1637  0.2300  0.4038
17495TIP3    H173976   4.163   2.660  10.942  0.4959 -1.2899 -2.1957
17495TIP3    H273977   4.232   2.526  10.954 -0.9170 -1.7725  1.0754
17496TIP3   OH273978   6.426   1.225   5.487 -0.1723 -0.0163  0.4235
17496TIP3    H173979   6.337   1.246   5.515 -0.5775 -0.1367 -0.7530
17496TIP3    H273980   6.470   1.310   5.478 -1.0090  0.2141 -1.7215
17497TIP3   OH273981   2.858   0.090  16.166 -0.7873  0.3364 -0.6987
17497TIP3    H173982   2.809   0.008  16.174 -0.7374  0.2987 -0.7866
17497TIP3    H273983   2.934   0.078  16.223 -1.5422  0.8809  0.4637
17498TIP3   OH273984   4.002   6.573   1.757  0.2331 -0.4268  0.5099
17498TIP3    H173985   3.932   6.638   1.744 -1.5062 -2.5479 -1.0671
17498TIP3    H273986   4.077   6.625   1.788 -1.3646  2.1957  0.1895
17499TIP3   OH273987   2.347   3.375   2.020  0.7667 -0.3472  0.9179
17499TIP3    H173988   2.310   3.439   1.959  1.0237 -1.6772 -0.6563
17499TIP3    H273989   2.441   3.390   2.015  1.0360 -2.5508 -1.4353
17500TIP3   OH273990   5.175   4.171   2.276  0.1152  0.4531 -0.4828
17500TIP3    H173991   5.218   4.089   2.300  0.8870  0.2326 -2.4983
17500TIP3    H273992   5.147   4.157   2.185 -3.0084  1.0929  0.3220
17501TIP3   OH273993   0.275   2.156   5.369  0.3424 -0.1629 -0.9055
17501TIP3    H173994   0.181   2.160   5.387  0.3130  1.7430 -1.4088
17501TIP3    H273995   0.282   2.156   5.274  0.8376 -0.8133 -0.8734
17502TIP3   OH273996   3.306   2.079   2.099  0.5307 -0.0119 -0.2750
17502TIP3    H173997   3.385   2.026   2.090 -0.6868 -1.8550 -0.3161
17502TIP3    H273998   3.259   2.065   2.018 -0.0901  0.6761 -0.0347
17503TIP3   OH273999   5.676   5.827   0.839  0.2450 -0.2154  0.4012
17503TIP3    H174000   5.727   5.896   0.796 -2.1121  0.9181 -0.6891
17503TIP3    H274001   5.630   5.873   0.910 -0.2093 -0.9541  0.5877
17504TIP3   OH274002   4.174   4.130  16.909 -0.2177 -0.6735  0.1347
17504TIP3    H174003   4.167   4.118  17.004  0.5010  0.2656  0.3194
17504TIP3    H274004   4.214   4.049  16.878  2.2031  0.1227  1.0236
17505TIP3   OH274005   5.467   4.197   2.386 -0.0003 -0.5006 -0.2698
17505TIP3    H174006   5.407   4.131   2.352 -2.0224  1.2001 -0.0803
17505TIP3    H274007   5.528   4.148   2.441 -0.1470 -2.4895 -1.7922
17506TIP3   OH274008   3.045   1.638   3.047  0.0525  0.0359  0.3658
17506TIP3    H174009   3.012   1.638   3.137  0.4332 -0.0185  0.5073
17506TIP3    H274010   3.106   1.564   3.044 -0.3686 -0.2931 -0.0874
17507TIP3   OH274011   3.094   2.431  12.731 -0.2506 -0.0819  0.3062
17507TIP3    H174012   3.064   2.385  12.653  1.2814  0.4891 -0.6560
17507TIP3    H274013   3.115   2.362  12.794  0.0206 -0.6141 -0.3633
17508TIP3   OH274014   1.709   3.872  11.936 -1.0150  0.8000 -0.3776
17508TIP3    H174015   1.762   3.794  11.954  1.9637  2.9833  0.5977
17508TIP3    H274016   1.674   3.898  12.021 -1.8021  0.7196 -0.6668
17509TIP3   OH274017   1.579   6.644  12.857 -0.1118 -0.3491 -0.3451
17509TIP3    H174018   1.608   6.726  12.896 -0.0739 -0.6783  0.3456
17509TIP3    H274019   1.595   6.579  12.926  2.4329 -1.3765 -1.8445
17510TIP3   OH274020   3.794   3.166  13.929  0.2262 -0.2907  0.5428
17510TIP3    H174021   3.887   3.192  13.930 -0.0602  0.7471  0.8032
17510TIP3    H274022   3.747   3.245  13.958 -0.9368  0.0740 -2.1733
17511TIP3   OH274023   4.097   3.274   2.068  0.6781 -0.1918  0.4290
17511TIP3    H174024   4.049   3.271   2.151  0.9878  0.9013  0.6457
17511TIP3    H274025   4.028   3.277   2.002  0.4317 -0.5747  0.6654
17512TIP3   OH274026   6.073   1.731  11.994  0.5373  0.0303  0.1971
17512TIP3    H174027   6.095   1.785  12.070 -1.0471  0.6530  0.2330
17512TIP3    H274028   6.140   1.752  11.929 -0.7680  3.0606 -0.2498
17513TIP3   OH274029   6.010   6.523   5.471 -0.3281  0.1543  0.7761
17513TIP3    H174030   5.949   6.467   5.422 -0.2145 -0.6381  1.5401
17513TIP3    H274031   5.985   6.612   5.446 -1.0941 -0.2000  0.2415
17514TIP3   OH274032   2.189   4.169  13.406 -0.7172 -0.4523 -0.0884
17514TIP3    H174033   2.213   4.247  13.456 -1.1367 -0.7621  0.6048
17514TIP3    H274034   2.254   4.165  13.335  0.2766 -0.3652  0.8086
17515TIP3   OH274035   1.026   2.900   3.251 -0.2620  0.1962 -0.7063
17515TIP3    H174036   0.989   2.849   3.178 -2.9356  0.7513  0.2143
17515TIP3    H274037   1.043   2.835   3.319 -0.3576  0.0634 -0.8098
17516TIP3   OH274038   5.407   0.734  11.508 -0.2864 -0.3900  0.2676
17516TIP3    H174039   5.387   0.723  11.415  0.6142  3.0498 -0.4035
17516TIP3    H274040   5.322   0.743  11.550 -0.6459 -0.3470 -0.4623
17517TIP3   OH274041   3.122   5.336  13.220  0.4223 -0.3632 -0.1915
17517TIP3    H174042   3.124   5.315  13.127 -0.0301  3.0804 -1.0590
17517TIP3    H274043   3.032   5.320  13.247  0.5034 -1.1652 -0.3987
17518TIP3   OH274044   4.661   0.870   4.469  0.2687  0.1922 -0.1912
17518TIP3    H174045   4.663   0.777   4.443  0.1707 -0.7160  2.8616
17518TIP3    H274046   4.591   0.875   4.534  0.1633  2.4672 -0.4508
17519TIP3   OH274047   6.513   2.018  11.720  0.4444 -0.0571  0.6049
17519TIP3    H174048   6.581   1.980  11.776  0.2465  0.1799  1.0039
17519TIP3    H274049   6.481   1.943  11.669 -0.2184 -0.5249  1.6734
17520TIP3   OH274050   3.281   5.862  11.954  0.1454 -0.1557 -0.8218
17520TIP3    H174051   3.232   5.814  11.888 -1.0424  0.9789 -0.7961
17520TIP3    H274052   3.228   5.941  11.969  0.5773 -0.2430  1.2172
17521TIP3   OH274053   1.412   3.162  12.481  0.6245  0.2206 -0.4693
17521TIP3    H174054   1.493   3.202  12.451  0.2872  0.2460 -1.3946
17521TIP3    H274055   1.439   3.078  12.518  1.2910  1.1369  1.1615
17522TIP3   OH274056   3.952   3.322  11.924  0.1625  0.0590  0.0650
17522TIP3    H174057   4.031   3.272  11.945  1.1270  0.9051 -1.4878
17522TIP3    H274058   3.963   3.405  11.972  1.4299  1.1898 -2.1121
17523TIP3   OH274059   5.326   5.624  11.677  0.6792 -0.3559  0.0039
17523TIP3    H174060   5.246   5.586  11.639  0.1584 -1.5413  2.2301
17523TIP3    H274061   5.295   5.695  11.732  1.4492  1.4055 -1.7561
17524TIP3   OH274062   3.641   5.027   0.351 -0.2786 -0.6074  0.3119
17524TIP3    H174063   3.730   5.000   0.372 -0.3900 -0.7979  0.5359
17524TIP3    H274064   3.638   5.027   0.255  0.6248  1.5078  0.2519
17525TIP3   OH274065   2.696   5.551  13.675  0.4108 -0.0030 -0.0381
17525TIP3    H174066   2.745   5.623  13.635  0.1549  0.8173  1.0989
17525TIP3    H274067   2.736   5.538  13.761  0.1773 -0.9411 -0.0599
17526TIP3   OH274068   3.042   1.590  10.756  0.2785  0.1790 -0.2275
17526TIP3    H174069   3.086   1.600  10.672 -1.3202  0.3084 -1.0837
17526TIP3    H274070   3.019   1.498  10.760 -2.4021  0.7392 -1.4025
17527TIP3   OH274071   5.712   0.690   0.573 -0.3517  0.4455 -0.2275
17527TIP3    H174072   5.789   0.725   0.618 -0.2312 -1.3238  0.9506
17527TIP3    H274073   5.747   0.654   0.491  0.2573 -1.4195  0.8383
17528TIP3   OH274074   3.964   1.027  11.984 -0.1398  0.2362  0.3852
17528TIP3    H174075   3.965   1.001  12.076  1.5122  0.9614  0.5934
17528TIP3    H274076   3.971   1.123  11.987 -3.3620  0.5325 -0.4286
17529TIP3   OH274077   4.868   4.674  11.262  0.4723  0.1589 -0.5943
17529TIP3    H174078   4.887   4.760  11.300  2.2359  0.0889 -1.2348
17529TIP3    H274079   4.871   4.614  11.337  0.1877  0.5288 -0.2856
17530TIP3   OH274080   0.979   3.888  12.131 -0.1384 -0.0623 -0.8236
17530TIP3    H174081   0.918   3.944  12.179  1.3165 -0.7338  1.9863
17530TIP3    H274082   1.065   3.928  12.147  0.4312 -0.5548 -2.5828
17531TIP3   OH274083   1.877   2.260  16.685  0.0098 -0.5038  0.4590
17531TIP3    H174084   1.816   2.188  16.668 -0.0573 -0.3891  0.2093
17531TIP3    H274085   1.850   2.329  16.625  0.5067 -0.5246  0.2000
17532TIP3   OH274086   4.372   6.216   2.212  0.5247 -0.3446 -0.2201
17532TIP3    H174087   4.288   6.191   2.174  0.6321  0.8405 -1.2752
17532TIP3    H274088   4.437   6.185   2.150  0.8046 -0.1329 -0.0317
17533TIP3   OH274089   2.202   4.630   1.009  0.3062  0.2203 -0.3364
17533TIP3    H174090   2.113   4.614   0.978 -0.4098  1.6320  0.9015
17533TIP3    H274091   2.192   4.646   1.103  2.0748 -1.2362  0.1191
17534TIP3   OH274092   0.677   3.463  12.254 -0.0950  0.1948 -0.4062
17534TIP3    H174093   0.737   3.520  12.303 -1.9002  1.4008  0.4765
17534TIP3    H274094   0.645   3.401  12.319  2.3682 -2.3306 -1.5088
17535TIP3   OH274095   2.516   1.532  14.236 -0.6891  0.2628  0.1454
17535TIP3    H174096   2.457   1.468  14.197 -0.1169 -0.7615  0.9288
17535TIP3    H274097   2.519   1.604  14.173  0.6619 -1.6034 -2.0199
17536TIP3   OH274098   0.711   4.448   3.590  0.1905  0.0539  1.0146
17536TIP3    H174099   0.768   4.502   3.534  0.6793 -1.9784 -0.5281
17536TIP3    H274100   0.636   4.504   3.609  1.6920  2.0267  1.2756
17537TIP3   OH274101   0.035   1.458   4.328 -0.0835  0.2106  0.6508
17537TIP3    H174102   0.056   1.510   4.250 -0.8242  0.9759  0.9517
17537TIP3    H274103   0.115   1.409   4.346 -0.4872 -1.3881 -1.6512
17538TIP3   OH274104   1.246   1.210  11.091 -0.0621  0.7103 -0.2904
17538TIP3    H174105   1.281   1.123  11.071  1.7773  1.4528 -0.4328
17538TIP3    H274106   1.203   1.199  11.176 -0.0529 -0.3899 -0.4158
17539TIP3   OH274107   5.061   3.131  13.458  0.5528  0.6714 -0.7362
17539TIP3    H174108   4.984   3.074  13.459 -0.3658  1.8911 -1.0039
17539TIP3    H274109   5.080   3.144  13.365  1.3338  0.0483 -0.6684
17540TIP3   OH274110   3.743   4.192  13.026  0.3547 -0.8684 -0.2816
17540TIP3    H174111   3.755   4.126  13.094  0.3605 -1.9791 -1.3245
17540TIP3    H274112   3.652   4.180  12.998  0.3680 -0.4546 -0.4915
17541TIP3   OH274113   2.387   2.945  16.748  0.4109  0.1690  0.0074
17541TIP3    H174114   2.388   2.855  16.779 -0.1716 -0.5134 -1.8504
17541TIP3    H274115   2.433   2.995  16.816 -1.3307 -1.1329  2.1817
17542TIP3   OH274116   6.397   2.177  11.915  0.4014 -0.2901 -0.4100
17542TIP3    H174117   6.418   2.267  11.891 -0.3967 -0.1597 -0.6321
17542TIP3    H274118   6.435   2.124  11.845  1.0480 -0.1454 -0.1745
17543TIP3   OH274119   5.873   0.468  14.906  0.1456 -0.5759 -0.5503
17543TIP3    H174120   5.904   0.457  14.996 -0.7283  2.0518  0.1034
17543TIP3    H274121   5.874   0.562  14.891  1.5798 -1.0332 -3.7874
17544TIP3   OH274122   3.381   2.449  11.800 -0.1149  0.0578 -0.0071
17544TIP3    H174123   3.397   2.544  11.806  0.5957  0.0073 -0.8845
17544TIP3    H274124   3.429   2.422  11.721 -1.1269 -0.8633 -0.3209
17545TIP3   OH274125   5.949   4.265   6.686 -0.6312 -0.3331  0.3487
17545TIP3    H174126   6.018   4.293   6.747  0.5208 -3.8434  0.7615
17545TIP3    H274127   5.914   4.185   6.725 -3.0670 -0.1116 -1.2940
17546TIP3   OH274128   4.711   2.626   3.668  0.0171  0.6178  0.2835
17546TIP3    H174129   4.708   2.554   3.732 -0.4157  0.7987  0.4733
17546TIP3    H274130   4.802   2.655   3.668 -0.1041  0.9981  1.2452
17547TIP3   OH274131   5.550   6.317  13.803  0.5074 -0.2342 -0.2050
17547TIP3    H174132   5.592   6.354  13.881  0.3095  0.2076 -0.3111
17547TIP3    H274133   5.479   6.263  13.838  2.0419 -2.1484  0.0503
17548TIP3   OH274134   3.960   4.606  11.918 -0.7992 -0.0292  0.0734
17548TIP3    H174135   3.953   4.524  11.967  0.9187 -0.4112 -0.2707
17548TIP3    H274136   3.982   4.671  11.984 -0.3585 -0.1962  0.0967
17549TIP3   OH274137   2.703   2.600   5.414  0.3083  0.2964 -0.1303
17549TIP3    H174138   2.726   2.514   5.449  1.5560  0.6089 -0.1527
17549TIP3    H274139   2.704   2.589   5.319  0.1354  0.2598 -0.1288
17550TIP3   OH274140   0.753   4.260  17.241  0.1618  0.0657 -0.4513
17550TIP3    H174141   0.827   4.310  17.204  1.1028 -0.6911  0.3737
17550TIP3    H274142   0.786   4.171  17.246 -0.2164  0.0272  1.5060
17551TIP3   OH274143   1.722   5.741  16.880 -0.2066  0.0802 -0.6497
17551TIP3    H174144   1.682   5.797  16.813 -2.6152 -0.2613  0.4506
17551TIP3    H274145   1.810   5.724  16.847 -1.0120  0.7086 -3.2824
17552TIP3   OH274146   3.814   1.738  15.491 -0.3696  0.0489 -0.0064
17552TIP3    H174147   3.861   1.662  15.458 -1.0280 -0.4703  0.2395
17552TIP3    H274148   3.805   1.796  15.415 -0.8317 -0.6020 -0.4493
17553TIP3   OH274149   1.273   4.846  15.527 -0.6503 -0.0416 -0.5301
17553TIP3    H174150   1.352   4.854  15.472  0.6968  0.9885  1.4963
17553TIP3    H274151   1.275   4.756  15.558  1.8054  0.9710  2.4735
17554TIP3   OH274152   6.095   4.309   0.442 -0.3889 -0.3898  0.4481
17554TIP3    H174153   6.025   4.374   0.448  0.7338  0.9446 -0.7267
17554TIP3    H274154   6.176   4.360   0.445  0.5198 -1.7987  0.2679
17555TIP3   OH274155   3.681   4.990   5.020  0.7120 -0.3662 -0.3507
17555TIP3    H174156   3.733   5.063   5.053  0.9562 -0.1744 -1.1636
17555TIP3    H274157   3.661   4.938   5.098 -0.7380  1.3751  0.4839
17556TIP3   OH274158   2.250   4.255  15.075  0.4952  0.8284  0.0881
17556TIP3    H174159   2.262   4.332  15.019 -0.5165  1.0029  0.1063
17556TIP3    H274160   2.235   4.183  15.014  1.3709  0.6465  0.0732
17557TIP3   OH274161   1.990   4.091  14.214 -0.1192  0.1552  0.2107
17557TIP3    H174162   1.953   4.150  14.280  0.9257  1.6350 -0.4739
17557TIP3    H274163   1.917   4.036  14.187 -1.3665  1.7289  0.2625
17558TIP3   OH274164   4.020   3.718   6.315 -0.1828 -0.5385 -0.1605
17558TIP3    H174165   4.014   3.791   6.376  0.0237 -0.3888 -0.3154
17558TIP3    H274166   4.073   3.752   6.243 -0.7793 -0.5775 -0.6208
17559TIP3   OH274167   3.487   5.005  10.759 -0.2941  0.2193 -0.2955
17559TIP3    H174168   3.445   5.026  10.843  1.5711 -0.3377  0.8004
17559TIP3    H274169   3.538   4.926  10.777  2.2703  1.6267 -1.2463
17560TIP3   OH274170   3.527   1.849  16.041  0.4895 -0.3353  0.1296
17560TIP3    H174171   3.621   1.847  16.023  0.9743 -1.4724  2.5566
17560TIP3    H274172   3.487   1.803  15.967  2.1095 -2.2853  0.4100
17561TIP3   OH274173   3.086   6.325   1.290  0.8985 -0.9147  0.3379
17561TIP3    H174174   3.002   6.334   1.334  0.3579  2.2370 -1.1557
17561TIP3    H274175   3.063   6.309   1.198  1.8926  0.2048 -0.1233
17562TIP3   OH274176   2.451   2.038   1.424 -0.4396  0.3984  0.4235
17562TIP3    H174177   2.543   2.032   1.450 -0.0839 -2.0380 -1.2297
17562TIP3    H274178   2.448   2.114   1.365  1.0359 -0.9297 -1.4203
17563TIP3   OH274179   3.750   4.925   2.129 -0.4279  0.3330 -0.1355
17563TIP3    H174180   3.837   4.927   2.090 -0.4212  0.9306 -0.0964
17563TIP3    H274181   3.746   4.841   2.175 -0.0343  0.1102 -0.5002
17564TIP3   OH274182   1.737   1.365   6.021  0.6868 -1.0697 -0.0337
17564TIP3    H174183   1.816   1.401   5.981  0.5160 -0.9239 -0.2414
17564TIP3    H274184   1.769   1.300   6.084  1.0092 -0.1339  0.7656
17565TIP3   OH274185   0.477   3.355  13.784  0.4075 -0.2171  0.0275
17565TIP3    H174186   0.488   3.378  13.692  1.5929 -0.4478  0.1128
17565TIP3    H274187   0.400   3.298  13.786  0.1634  0.0806 -0.7604
17566TIP3   OH274188   5.051   2.782   2.145  0.1779 -0.6481 -0.3340
17566TIP3    H174189   5.065   2.861   2.197 -2.9368  0.7193 -1.3883
17566TIP3    H274190   5.006   2.722   2.205 -1.1008 -0.0479 -0.6724
17567TIP3   OH274191   1.034   2.727   3.467  0.1675  0.7572 -0.0101
17567TIP3    H174192   1.108   2.711   3.526  0.9402 -0.1606 -1.2122
17567TIP3    H274193   1.003   2.640   3.443 -0.4541  1.1264 -0.5622
17568TIP3   OH274194   4.382   2.766   4.712 -0.1405 -0.4231 -0.0549
17568TIP3    H174195   4.340   2.700   4.767 -0.7806  0.4500  0.5259
17568TIP3    H274196   4.449   2.718   4.663 -1.3436 -1.7236 -0.4827
17569TIP3   OH274197   6.359   0.647   3.954  0.1629  0.2342 -0.0164
17569TIP3    H174198   6.418   0.576   3.930 -1.0774 -0.2393 -1.8175
17569TIP3    H274199   6.295   0.606   4.012  0.9956  0.5257  1.1375
17570TIP3   OH274200   0.296   4.997   1.819  0.1836 -0.4158 -0.3572
17570TIP3    H174201   0.254   4.916   1.790  0.5631 -0.5290 -0.6014
17570TIP3    H274202   0.389   4.982   1.803  0.1289  0.5963 -1.6397
17571TIP3   OH274203   1.208   5.540   0.513 -0.0145 -0.0050 -0.0254
17571TIP3    H174204   1.219   5.612   0.575 -2.6296  0.3681  0.0353
17571TIP3    H274205   1.164   5.579   0.438  2.1550 -0.6873 -1.7393
17572TIP3   OH274206   6.113   4.827   1.330 -0.3074 -0.2605  0.6762
17572TIP3    H174207   6.197   4.849   1.290 -0.2729  0.8057  1.3375
17572TIP3    H274208   6.108   4.881   1.409 -2.3959  1.0193 -0.2839
17573TIP3   OH274209   1.073   1.298  10.843  0.3290  0.0799  0.6372
17573TIP3    H174210   1.117   1.258  10.768  2.2946  0.3114  1.6141
17573TIP3    H274211   1.075   1.392  10.824  1.4710  0.1969  1.2859
17574TIP3   OH274212   2.682   6.008  15.017 -0.0941  0.1511  0.1987
17574TIP3    H174213   2.733   5.929  15.000 -1.7312 -0.6935 -0.9003
17574TIP3    H274214   2.673   6.011  15.112  3.6679  1.4248  0.6084
17575TIP3   OH274215   3.238   4.277   4.751  0.4956 -0.7765  0.0149
17575TIP3    H174216   3.243   4.182   4.761 -1.8647 -1.0163 -0.8009
17575TIP3    H274217   3.202   4.307   4.835 -1.6707 -0.9386 -0.8241
17576TIP3   OH274218   0.460   0.670   4.652 -0.3487 -0.2056 -0.3418
17576TIP3    H174219   0.510   0.606   4.601 -0.6168  0.2648 -1.2043
17576TIP3    H274220   0.454   0.631   4.740  1.5375 -0.2514 -0.2089
17577TIP3   OH274221   4.002   6.409  11.656  0.4634 -0.1618 -0.0193
17577TIP3    H174222   4.012   6.366  11.740  1.0073 -1.4538 -0.7416
17577TIP3    H274223   3.952   6.347  11.602  1.5327 -0.0505 -1.1658
17578TIP3   OH274224   0.844   5.598   2.851 -0.1544 -0.3868  0.0256
17578TIP3    H174225   0.776   5.657   2.884  1.5571  0.2222  2.5488
17578TIP3    H274226   0.905   5.655   2.804 -2.5431 -1.2295 -4.4483
17579TIP3   OH274227   5.716   3.107  13.214  0.0242 -0.2717 -0.1260
17579TIP3    H174228   5.703   3.094  13.307 -1.6743  0.7554 -0.2053
17579TIP3    H274229   5.799   3.156  13.208 -0.0098 -0.0889  0.8602
17580TIP3   OH274230   4.441   5.216  10.980  0.1202 -0.0498  0.1133
17580TIP3    H174231   4.513   5.208  10.918  1.5180  0.5006  1.6257
17580TIP3    H274232   4.374   5.266  10.934 -1.2456 -4.4524 -2.9866
17581TIP3   OH274233   6.801   0.968  16.799 -0.3023 -0.1310 -0.0388
17581TIP3    H174234   6.838   1.003  16.719 -0.4788  1.5284  0.5957
17581TIP3    H274235   6.712   1.004  16.803  0.1158  0.7824  1.4883
17582TIP3   OH274236   4.114   1.776  12.677  0.0438 -0.5715 -0.2207
17582TIP3    H174237   4.041   1.734  12.722 -0.2303 -0.3397 -0.4482
17582TIP3    H274238   4.107   1.745  12.586  0.1951 -0.5060 -0.2561
17583TIP3   OH274239   1.584   4.646  13.670 -0.4439 -0.1245  0.1507
17583TIP3    H174240   1.622   4.730  13.644 -1.1911 -0.2330 -1.3163
17583TIP3    H274241   1.554   4.661  13.760  0.5998  0.7766  0.3609
17584TIP3   OH274242   2.426   0.684   3.803  0.1074 -0.5650  0.2563
17584TIP3    H174243   2.448   0.774   3.827 -2.8641  0.5707 -0.9642
17584TIP3    H274244   2.460   0.674   3.714 -2.1269  0.4169 -0.7544
17585TIP3   OH274245   0.715   6.396  12.425  0.2762 -0.7037 -0.0286
17585TIP3    H174246   0.800   6.398  12.381  0.8535 -0.8873  1.0450
17585TIP3    H274247   0.736   6.376  12.516 -1.0762 -2.5471 -0.0928
17586TIP3   OH274248   3.313   1.864  15.370 -0.1089 -0.1113  0.6810
17586TIP3    H174249   3.307   1.799  15.439 -1.9237  1.5589  2.1766
17586TIP3    H274250   3.234   1.918  15.381 -0.1092  0.5964 -2.2821
17587TIP3   OH274251   0.637   6.612   1.171  0.3544 -0.1790 -0.3281
17587TIP3    H174252   0.581   6.581   1.243  0.1633  0.6589 -0.1185
17587TIP3    H274253   0.701   6.541   1.159 -1.3243 -1.5889 -1.2219
17588TIP3   OH274254   4.228   5.358  10.890  0.1884 -0.1531 -0.7402
17588TIP3    H174255   4.208   5.451  10.902  0.2820  0.2754 -3.6929
17588TIP3    H274256   4.161   5.313  10.940  0.4785  1.4817  1.2099
17589TIP3   OH274257   2.038   0.046   3.287  0.3008  0.2102  1.0373
17589TIP3    H174258   2.069  -0.044   3.298  3.2016  0.8774 -1.1225
17589TIP3    H274259   2.062   0.090   3.369  1.2854 -0.3323  1.0421
17590TIP3   OH274260   0.665   0.258   1.439  0.0216 -0.1551  0.3296
17590TIP3    H174261   0.740   0.199   1.432 -0.4071 -0.5603 -0.8483
17590TIP3    H274262   0.638   0.251   1.531  1.0134 -0.5025  0.6024
17591TIP3   OH274263   4.614   6.439  16.841 -0.2706  0.1097  0.4275
17591TIP3    H174264   4.619   6.534  16.853  0.1124  0.0590  0.6492
17591TIP3    H274265   4.674   6.421  16.769 -1.6197  0.2555 -0.7667
17592TIP3   OH274266   0.051   4.079  16.119 -0.8432  0.0730  0.3517
17592TIP3    H174267   0.073   4.131  16.042 -0.6400  0.8334  0.9267
17592TIP3    H274268  -0.042   4.094  16.133 -0.6542  0.7601  0.8800
17593TIP3   OH274269   1.403   4.769   3.411 -0.0580 -0.2453 -0.3124
17593TIP3    H174270   1.349   4.745   3.336  0.7963  2.3996 -1.8224
17593TIP3    H274271   1.340   4.784   3.482 -1.0249 -0.4605 -1.1200
17594TIP3   OH274272   0.312   6.637  13.631  0.4852  0.0139 -0.1103
17594TIP3    H174273   0.253   6.687  13.575  1.1188  0.3718 -0.4664
17594TIP3    H274274   0.305   6.677  13.717 -0.9139 -0.8893  0.2073
17595TIP3   OH274275   5.622   1.665   0.094 -0.9009  0.0542  0.3704
17595TIP3    H174276   5.536   1.623   0.086 -1.0476  0.5702 -0.9998
17595TIP3    H274277   5.610   1.751   0.053  0.5697 -0.3574 -0.9847
17596TIP3   OH274278   0.874   6.707  12.191 -0.3084  0.4931  1.1825
17596TIP3    H174279   0.789   6.747  12.176  0.0531  0.8128 -0.0485
17596TIP3    H274280   0.933   6.782  12.205  0.8994  0.6087 -3.7709
17597TIP3   OH274281   6.522   5.695  15.688  0.0504  0.0769  0.1076
17597TIP3    H174282   6.464   5.661  15.620  1.7710 -1.4127 -0.6605
17597TIP3    H274283   6.463   5.732  15.753 -1.6990 -0.0038 -1.3814
17598TIP3   OH274284   3.667   1.978  12.012  0.3424  0.5166  0.0195
17598TIP3    H174285   3.718   2.010  11.937  1.3401  0.1194  0.5114
17598TIP3    H274286   3.576   1.982  11.983  0.7088  0.5374 -1.1508
17599TIP3   OH274287   6.405   2.636   3.276  0.1690 -0.2742 -0.4305
17599TIP3    H174288   6.427   2.546   3.300  1.5246  0.6664  2.1209
17599TIP3    H274289   6.396   2.634   3.181 -1.9802 -3.5303 -0.2647
17600TIP3   OH274290   2.325   4.059   0.909 -0.4204 -0.0036 -0.8302
17600TIP3    H174291   2.260   4.122   0.878  0.1150  0.8661 -0.2305
17600TIP3    H274292   2.287   3.973   0.890 -0.5508  0.4941 -2.9286
17601TIP3   OH274293   5.368   2.521  13.767  0.1563 -0.1670 -0.4657
17601TIP3    H174294   5.374   2.484  13.679  1.4812 -1.1358  0.0151
17601TIP3    H274295   5.407   2.608  13.759  3.2187 -1.4319 -0.2201
17602TIP3   OH274296   3.382   1.508   6.116  0.5920  0.6244 -0.3227
17602TIP3    H174297   3.288   1.502   6.099  0.4849  2.0487 -0.2710
17602TIP3    H274298   3.389   1.556   6.198  1.3433 -0.4581  0.2682
17603TIP3   OH274299   0.911   4.651  12.235  0.3596 -0.2592  0.1103
17603TIP3    H174300   0.923   4.558  12.218  1.0473 -0.5736  2.1211
17603TIP3    H274301   0.891   4.656  12.329  1.2326  1.6751  0.2318
17604TIP3   OH274302   5.702   0.947  12.081  0.3335 -0.3868  0.0519
17604TIP3    H174303   5.630   0.886  12.095  0.9057 -0.7501  1.4599
17604TIP3    H274304   5.660   1.027  12.050 -0.4163 -1.4968 -1.9506
17605TIP3   OH274305   3.607   4.036   4.810 -0.3775 -0.4971  0.5894
17605TIP3    H174306   3.604   4.026   4.905  0.6465  1.4393  0.8678
17605TIP3    H274307   3.591   3.949   4.776  0.6942 -1.5022  2.5681
17606TIP3   OH274308   2.939   5.546   5.398  0.1937 -0.7052  0.2962
17606TIP3    H174309   2.922   5.572   5.489  1.5325  0.2796  0.2958
17606TIP3    H274310   3.029   5.513   5.399  0.6499  0.4421 -0.8779
17607TIP3   OH274311   5.071   5.853   5.671 -0.3193 -0.5858 -0.2024
17607TIP3    H174312   5.154   5.857   5.624 -0.4117 -0.6548 -0.3726
17607TIP3    H274313   5.092   5.811   5.754  0.0727  0.6095  0.3215
17608TIP3   OH274314   0.788   5.914  13.439  0.0416  0.2923  0.1842
17608TIP3    H174315   0.772   5.855  13.512 -1.4915  1.0672  0.4910
17608TIP3    H274316   0.706   5.963  13.429  0.3230  0.3974 -1.8569
17609TIP3   OH274317   4.904   4.088   2.534  0.0407 -0.2083 -1.0269
17609TIP3    H174318   4.981   4.122   2.579  0.2327 -1.2988 -0.4998
17609TIP3    H274319   4.871   4.162   2.483  0.5931  0.6707 -0.1279
17610TIP3   OH274320   4.093   5.090  13.344 -0.0875  0.5159  1.1994
17610TIP3    H174321   4.163   5.102  13.280 -1.0301  1.2597  0.2935
17610TIP3    H274322   4.091   4.996  13.359  0.0730  0.3107  0.0321
17611TIP3   OH274323   3.476   2.999  16.472 -0.4091 -0.4873  0.0353
17611TIP3    H174324   3.551   2.951  16.506 -0.1203 -0.2000 -0.1856
17611TIP3    H274325   3.512   3.050  16.399 -0.9180 -0.7294 -0.3881
17612TIP3   OH274326   1.700   4.123   3.927 -0.4935  0.7902  0.1503
17612TIP3    H174327   1.706   4.210   3.966  0.3628  0.5361  0.6148
17612TIP3    H274328   1.759   4.069   3.981 -1.6192 -0.2494  0.3598
17613TIP3   OH274329   6.243   3.699  11.733  0.3960  0.3447 -0.0571
17613TIP3    H174330   6.313   3.670  11.792 -0.7176 -3.4408 -0.4128
17613TIP3    H274331   6.229   3.624  11.675 -1.8806  2.1741 -1.9357
17614TIP3   OH274332   3.382   5.115   3.827  0.4070  0.0062 -0.1503
17614TIP3    H174333   3.292   5.083   3.820  0.8769 -1.7043  1.3476
17614TIP3    H274334   3.376   5.190   3.886 -0.3021  1.0734 -1.5536
17615TIP3   OH274335   5.142   5.902   6.499  0.9363 -0.7120 -0.2506
17615TIP3    H174336   5.048   5.913   6.513  0.9910 -1.2618  0.5840
17615TIP3    H274337   5.149   5.876   6.407  0.2912 -0.4670 -0.3726
17616TIP3   OH274338   2.938   1.315   0.629 -0.1875 -0.3794  0.2404
17616TIP3    H174339   2.935   1.219   0.632  0.1161 -0.3671  1.2768
17616TIP3    H274340   2.872   1.339   0.564 -0.8724 -1.2661  0.5923
17617TIP3   OH274341   5.264   4.230  17.140 -0.7180  0.0860  0.2365
17617TIP3    H174342   5.250   4.203  17.049  2.1073 -0.3137 -0.1214
17617TIP3    H274343   5.253   4.325  17.139 -1.0915  0.0425 -0.4243
17618TIP3   OH274344   0.999   6.762  16.386  0.4768 -0.1885  0.1793
17618TIP3    H174345   0.955   6.678  16.397  1.1494 -0.7261 -1.1300
17618TIP3    H274346   1.093   6.742  16.394  0.6932  0.2691 -1.0207
17619TIP3   OH274347   5.798   0.454  15.772  0.4071  0.6941  0.2308
17619TIP3    H174348   5.877   0.498  15.803  0.1293  1.3995 -0.0664
17619TIP3    H274349   5.749   0.521  15.725  0.0491  0.0410 -0.3455
17620TIP3   OH274350   0.664   3.376   0.587  0.0337  0.2958  0.5250
17620TIP3    H174351   0.723   3.426   0.530  0.4686 -0.9256 -0.1213
17620TIP3    H274352   0.587   3.359   0.533 -0.2875  0.6093  0.8785
17621TIP3   OH274353   0.937   0.904   3.998  0.2140  0.0438  0.1061
17621TIP3    H174354   0.856   0.954   4.007  1.4365  1.9349  0.9355
17621TIP3    H274355   0.946   0.889   3.903 -2.4467 -2.5360  0.2065
17622TIP3   OH274356   3.814   3.732   1.058 -0.2387 -0.2887  0.7154
17622TIP3    H174357   3.901   3.707   1.027 -0.4681  0.0885 -0.2458
17622TIP3    H274358   3.827   3.757   1.149  0.5433 -0.8790  0.7706
17623TIP3   OH274359   3.204   5.179  14.115 -0.0028  0.5101  0.6239
17623TIP3    H174360   3.147   5.216  14.048  1.2068  1.0549 -0.1341
17623TIP3    H274361   3.262   5.251  14.139  0.9409 -0.2654  0.7244
17624TIP3   OH274362   0.164   6.493  12.714  0.1206 -0.2241  0.2342
17624TIP3    H174363   0.235   6.470  12.773  0.1597 -0.2628  0.1715
17624TIP3    H274364   0.088   6.504  12.771  0.2941  0.3394  0.3610
17625TIP3   OH274365   1.544   1.801   2.849 -0.4715 -0.2780 -0.1126
17625TIP3    H174366   1.512   1.884   2.813 -1.0135 -1.1960 -1.8483
17625TIP3    H274367   1.562   1.748   2.771 -0.1067 -1.7707  0.9797
17626TIP3   OH274368   0.754   6.464  14.044  0.0527  1.0240  0.2476
17626TIP3    H174369   0.691   6.428  14.106 -1.6920 -1.9351 -3.0606
17626TIP3    H274370   0.701   6.517  13.984  0.8894 -0.1132 -1.5637
17627TIP3   OH274371   4.712   0.977  11.580  0.4108  0.8252 -0.2307
17627TIP3    H174372   4.802   1.003  11.599  0.7150 -1.2690  1.3525
17627TIP3    H274373   4.688   0.918  11.652 -2.1024  1.0746 -0.8218
17628TIP3   OH274374   0.946   2.731  13.253  0.2938 -0.3566  0.5071
17628TIP3    H174375   0.997   2.769  13.324  1.5710  0.6768 -0.9330
17628TIP3    H274376   0.981   2.772  13.173 -1.7205 -0.8044 -0.6430
17629TIP3   OH274377   3.455   4.631   1.099  0.0580  0.2498 -0.6824
17629TIP3    H174378   3.439   4.613   1.192 -0.1023  2.1373 -0.3250
17629TIP3    H274379   3.432   4.549   1.055 -1.4362 -0.1528  0.7745
17630TIP3   OH274380   6.608   4.233  14.445  0.3131  0.4865 -0.8344
17630TIP3    H174381   6.659   4.219  14.525 -0.4566  1.8995 -0.0795
17630TIP3    H274382   6.546   4.160  14.444 -0.5031  1.1493  0.5327
17631TIP3   OH274383   5.270   6.364   2.480  0.5626 -0.0600  0.0128
17631TIP3    H174384   5.293   6.451   2.513  0.6554  0.2103 -0.7381
17631TIP3    H274385   5.354   6.323   2.460  0.5647 -0.6817  1.2297
17632TIP3   OH274386   3.158   3.056   2.220  0.3363  0.1957  0.2010
17632TIP3    H174387   3.082   3.086   2.171  0.8467  1.6845  0.3134
17632TIP3    H274388   3.183   2.974   2.177 -0.3468  0.5298 -0.8454
17633TIP3   OH274389   1.871   3.810   5.725 -0.2174 -0.1651 -0.4537
17633TIP3    H174390   1.858   3.775   5.637  0.6894 -0.3209 -0.5213
17633TIP3    H274391   1.905   3.898   5.711  1.4018 -0.7430 -0.2593
17634TIP3   OH274392   1.264   0.117   0.911 -0.0691 -0.2867 -0.1036
17634TIP3    H174393   1.276   0.043   0.853 -0.0313  1.2511 -2.1219
17634TIP3    H274394   1.190   0.165   0.874 -1.2714 -0.2881  2.2215
17635TIP3   OH274395   6.567   1.190   3.516  0.6586  0.0278  0.0324
17635TIP3    H174396   6.510   1.164   3.588 -0.4381 -0.4858 -0.9877
17635TIP3    H274397   6.631   1.120   3.508  0.6941  0.0169  0.4040
17636TIP3   OH274398   1.620   4.012  12.459 -0.6903 -0.0933 -0.3297
17636TIP3    H174399   1.595   4.095  12.420 -2.1717 -1.2085 -1.8065
17636TIP3    H274400   1.554   3.996  12.526  2.0386  1.9866  3.0248
17637TIP3   OH274401   0.219   5.087  12.299  0.3669  0.5031 -0.1773
17637TIP3    H174402   0.143   5.110  12.352  0.9250  1.6280  0.1476
17637TIP3    H274403   0.281   5.046  12.360 -0.0206 -0.5491 -0.4703
17638TIP3   OH274404   6.064   1.325  16.214  1.0285 -0.2144  0.0444
17638TIP3    H174405   6.080   1.369  16.297 -1.0693  2.8529 -1.0936
17638TIP3    H274406   6.097   1.385  16.148  2.1020 -2.3336 -1.4270
17639TIP3   OH274407   2.765   1.408   0.446 -0.2292 -0.2632  0.3831
17639TIP3    H174408   2.764   1.381   0.354 -0.1738 -1.0790  0.6215
17639TIP3    H274409   2.690   1.467   0.454  0.2837  0.5000 -0.3926
17640TIP3   OH274410   2.168   3.275  13.619 -0.1849 -0.8703  0.3709
17640TIP3    H174411   2.118   3.356  13.612  0.8930 -0.1943  0.5455
17640TIP3    H274412   2.133   3.232  13.697  0.5378  0.3118  1.3568
17641TIP3   OH274413   4.074   4.791  12.787 -0.2025 -0.4120  0.4378
17641TIP3    H174414   4.126   4.732  12.732  1.8986  1.8340 -0.0840
17641TIP3    H274415   4.063   4.870  12.733 -0.3465  0.8146  2.2335
17642TIP3   OH274416   4.304   1.388  12.788 -0.1171 -0.1203  0.3388
17642TIP3    H174417   4.318   1.480  12.809  1.1187 -0.1207 -0.4395
17642TIP3    H274418   4.208   1.378  12.785 -0.2486  1.1233  0.4514
17643TIP3   OH274419   4.509   2.764   1.214 -0.0695 -0.3352 -0.1539
17643TIP3    H174420   4.423   2.806   1.216  0.0170 -0.1276 -0.8458
17643TIP3    H274421   4.506   2.705   1.140 -0.1456 -1.4790  0.7473
17644TIP3   OH274422   3.022   0.921  16.194  0.3355  0.1579  0.0888
17644TIP3    H174423   2.998   0.831  16.217 -2.4549  0.4822 -1.3562
17644TIP3    H274424   3.079   0.912  16.118 -0.6765 -0.3654 -0.6180
17645TIP3   OH274425   2.890   0.400   5.726  0.6253 -0.7080 -0.4902
17645TIP3    H174426   2.979   0.410   5.760  0.2621 -2.1973  0.9680
17645TIP3    H274427   2.837   0.454   5.783  0.5003 -0.3842 -0.9157
17646TIP3   OH274428   2.575   0.257  11.009 -0.2669 -0.3022  0.2150
17646TIP3    H174429   2.611   0.261  10.921 -1.7297 -3.0500 -0.5676
17646TIP3    H274430   2.651   0.261  11.067  0.7788  0.4682 -1.1750
17647TIP3   OH274431   6.735   2.634  12.308 -0.0888  0.7893 -0.0732
17647TIP3    H174432   6.718   2.556  12.255  1.2872  1.5013 -1.5967
17647TIP3    H274433   6.651   2.681  12.308 -1.0519 -0.8813  1.2160
17648TIP3   OH274434   0.813   1.421   4.885 -0.4657 -0.5875 -0.7031
17648TIP3    H174435   0.815   1.386   4.974 -0.7981  1.0310 -0.0369
17648TIP3    H274436   0.905   1.423   4.858 -0.1580  0.7690  0.3741
17649TIP3   OH274437   4.057   6.324  16.105 -0.0453  0.5187  0.4294
17649TIP3    H174438   3.980   6.281  16.070 -0.1081 -0.4185  1.6896
17649TIP3    H274439   4.128   6.296  16.047 -0.4819  0.6619 -0.1857
17650TIP3   OH274440   6.603   4.132  15.892  0.6947 -0.1419  0.3719
17650TIP3    H174441   6.568   4.139  15.981 -0.6203  0.6859 -0.2014
17650TIP3    H274442   6.660   4.208  15.882  0.9075 -0.2794  0.5308
17651TIP3   OH274443   5.520   5.547   5.635  0.5989  0.0070 -0.1376
17651TIP3    H174444   5.534   5.476   5.573 -0.3891  0.8730 -1.4072
17651TIP3    H274445   5.596   5.604   5.624  0.5691  0.0070 -0.3502
17652TIP3   OH274446   4.496   5.801   3.713  0.0877  0.2714  0.8108
17652TIP3    H174447   4.423   5.811   3.652  0.5612  1.4625  0.4332
17652TIP3    H274448   4.455   5.803   3.800 -0.0650  3.8726  0.7253
17653TIP3   OH274449   6.068   0.421   1.564  0.1300  0.5812 -0.2733
17653TIP3    H174450   6.056   0.328   1.545 -0.1996  0.5710 -0.0243
17653TIP3    H274451   6.029   0.433   1.651  2.1494  0.5268  0.6447
17654TIP3   OH274452   4.945   4.305  14.724 -0.7545 -0.0770 -0.5281
17654TIP3    H174453   4.923   4.231  14.780 -2.3459 -1.2195 -2.5845
17654TIP3    H274454   5.034   4.287  14.695 -0.4114 -0.1640  0.5618
17655TIP3   OH274455   1.849   6.216  12.094  0.1314 -0.1250  0.1952
17655TIP3    H174456   1.790   6.193  12.166 -1.3578 -0.2934 -1.0459
17655TIP3    H274457   1.823   6.305  12.071  2.3685  0.9268  1.5554
17656TIP3   OH274458   6.485   3.809  16.209  0.5265  0.3329 -0.6153
17656TIP3    H174459   6.452   3.748  16.144 -0.0822  0.2785 -0.2651
17656TIP3    H274460   6.410   3.826  16.266  1.0923  0.2346  0.1802
17657TIP3   OH274461   4.900   0.861  16.064  1.1007 -0.1845  0.2618
17657TIP3    H174462   4.936   0.773  16.058  0.2199 -0.6070  1.0838
17657TIP3    H274463   4.920   0.901  15.980 -1.7930 -2.4189 -1.5779
17658TIP3   OH274464   1.391   1.354  10.863  0.2743  0.0484 -0.1177
17658TIP3    H174465   1.330   1.304  10.917 -0.7184  0.8481 -0.4794
17658TIP3    H274466   1.436   1.287  10.811 -0.9020 -0.5041 -0.4607
17659TIP3   OH274467   5.616   0.298  15.504 -0.0587  0.8177 -0.0695
17659TIP3    H174468   5.661   0.220  15.472 -3.5720 -1.1046 -0.5304
17659TIP3    H274469   5.614   0.287  15.599 -3.7663 -1.5827 -0.3513
17660TIP3   OH274470   6.362   0.524  10.843  0.7764  0.0873 -0.0485
17660TIP3    H174471   6.430   0.540  10.778  0.3886 -1.0992 -0.7644
17660TIP3    H274472   6.322   0.610  10.857  0.7939  0.3404 -1.4602
17661TIP3   OH274473   5.816   1.998   3.612 -0.1116 -0.4077  0.2659
17661TIP3    H174474   5.911   2.005   3.610 -0.0454 -0.7524  1.9958
17661TIP3    H274475   5.790   2.002   3.519  1.6770 -1.7968 -0.3279
17662TIP3   OH274476   2.658   5.002   3.119  0.2149 -0.0004 -0.1343
17662TIP3    H174477   2.717   5.004   3.045  2.3996  0.2037  1.5639
17662TIP3    H274478   2.689   5.072   3.177  0.1035 -1.7569  2.1087
17663TIP3   OH274479   5.588   3.885   2.730  0.3468 -0.2495 -0.4282
17663TIP3    H174480   5.610   3.806   2.778  0.6087 -0.4456 -0.8691
17663TIP3    H274481   5.501   3.909   2.761 -0.3218 -1.4974 -1.3082
17664TIP3   OH274482   6.242   4.532   6.403  0.4806 -0.2971  0.0035
17664TIP3    H174483   6.263   4.621   6.374  1.3886 -0.8858 -1.2104
17664TIP3    H274484   6.323   4.500   6.441  0.4640 -0.9779 -0.5326
17665TIP3   OH274485   2.845   6.655   1.940  0.2100 -0.8794 -0.0127
17665TIP3    H174486   2.751   6.644   1.953 -0.0865  0.1550 -1.2372
17665TIP3    H274487   2.863   6.743   1.971  0.7690 -1.0430  0.1317
17666TIP3   OH274488   0.387   2.364   0.059 -0.1358  0.4148 -0.0271
17666TIP3    H174489   0.417   2.274   0.074  1.0778  1.1202  1.9633
17666TIP3    H274490   0.461   2.418   0.084 -1.2892  2.0306 -0.0512
17667TIP3   OH274491   1.675   3.221   3.111  0.2255  0.1398 -0.3738
17667TIP3    H174492   1.736   3.288   3.142 -0.5210  0.0799  1.2395
17667TIP3    H274493   1.630   3.261   3.037 -0.8449  1.7567  1.1184
17668TIP3   OH274494   2.385   4.185  12.334 -0.1117 -0.1274 -0.1229
17668TIP3    H174495   2.326   4.141  12.396  0.1820  1.5658  1.4149
17668TIP3    H274496   2.468   4.193  12.381 -0.0703  1.7698 -0.4493
17669TIP3   OH274497   0.003   5.634  17.196  0.2925  0.2127 -0.0336
17669TIP3    H174498  -0.037   5.548  17.189  0.4310  0.2416 -1.3503
17669TIP3    H274499   0.094   5.617  17.219 -0.2661  0.1166  2.1952
17670TIP3   OH274500   3.472   0.352  11.681 -0.0002 -0.1784  0.2555
17670TIP3    H174501   3.386   0.312  11.690 -0.6799  1.3125  0.6198
17670TIP3    H274502   3.476   0.416  11.753  2.2000 -1.6087  1.4438
17671TIP3   OH274503   5.119   2.004   2.719 -0.7841  0.6899 -0.5652
17671TIP3    H174504   5.130   1.962   2.804  0.1126  1.4954 -0.2700
17671TIP3    H274505   5.071   2.085   2.738  0.2470  1.3362 -0.6860
17672TIP3   OH274506   1.043   4.701  12.709 -0.1433  0.0621  0.1914
17672TIP3    H174507   1.040   4.795  12.695 -1.0872 -0.1966 -1.4341
17672TIP3    H274508   1.136   4.681  12.720 -0.0077  1.2845  1.3476
17673TIP3   OH274509   1.507   5.044   0.749  0.0397 -0.2648 -0.1538
17673TIP3    H174510   1.570   4.975   0.728 -0.8286 -0.5478 -1.9187
17673TIP3    H274511   1.521   5.063   0.842  2.2845 -0.7583 -0.3798
17674TIP3   OH274512   0.891   3.176  14.741 -0.6223  0.2697  0.0453
17674TIP3    H174513   0.815   3.229  14.763 -0.7129 -0.0334  0.4675
17674TIP3    H274514   0.893   3.108  14.808  0.0044  0.2569  0.0144
17675TIP3   OH274515   1.356   2.949  11.750  0.4992  0.0120 -0.0445
17675TIP3    H174516   1.429   3.010  11.761 -2.0027  3.4577 -1.8176
17675TIP3    H274517   1.384   2.890  11.680  1.4591  1.4688 -0.9093
17676TIP3   OH274518   3.928   1.220   1.297 -0.3279 -0.4928 -0.1265
17676TIP3    H174519   4.012   1.263   1.312 -0.8952 -0.2116  2.5864
17676TIP3    H274520   3.917   1.162   1.372 -2.9255  0.1158  0.0362
17677TIP3   OH274521   0.840   0.246   5.987 -0.3905 -0.3930  0.1723
17677TIP3    H174522   0.889   0.197   5.921 -0.0926  0.7672 -0.4865
17677TIP3    H274523   0.903   0.261   6.058 -0.6676 -1.5086  0.6602
17678TIP3   OH274524   3.801   6.539   3.004  0.4081 -0.2837  0.2263
17678TIP3    H174525   3.834   6.626   3.023 -1.2523  0.0946  1.4556
17678TIP3    H274526   3.850   6.481   3.063  2.1021 -0.3087 -1.1728
17679TIP3   OH274527   2.689   1.816   5.511 -0.1165  0.3209 -0.3281
17679TIP3    H174528   2.774   1.808   5.554  0.3843  0.8927 -1.1945
17679TIP3    H274529   2.708   1.805   5.417 -1.3221 -1.8678 -0.3468
17680TIP3   OH274530   2.778   6.086   4.232 -0.2103  0.7644  0.6795
17680TIP3    H174531   2.811   6.118   4.148  0.4610 -1.1265  0.1948
17680TIP3    H274532   2.710   6.148   4.256 -3.1330 -0.7734 -3.1777
17681TIP3   OH274533   1.854   5.536   0.702 -0.9520 -0.1207 -0.1196
17681TIP3    H174534   1.944   5.528   0.672 -1.3122  0.1831 -1.2938
17681TIP3    H274535   1.801   5.499   0.631 -1.6765 -1.5157  1.1246
17682TIP3   OH274536   5.436   0.315  13.138  0.2628 -0.4790  0.0658
17682TIP3    H174537   5.515   0.370  13.141  1.2297 -1.8529  0.5337
17682TIP3    H274538   5.470   0.226  13.131 -1.2796 -1.0360 -0.4989
17683TIP3   OH274539   0.264   2.551   3.180 -0.4830  0.3667  0.2058
17683TIP3    H174540   0.223   2.479   3.228  1.9362 -1.5393 -0.4977
17683TIP3    H274541   0.309   2.603   3.247  0.6338 -0.7338  0.3042
17684TIP3   OH274542   3.617   0.898  15.098 -0.2215  0.3351 -0.6542
17684TIP3    H174543   3.649   0.833  15.035 -1.6437  0.0972 -1.1460
17684TIP3    H274544   3.532   0.926  15.063  0.2241  2.2369 -0.2945
17685TIP3   OH274545   2.903   5.538  14.715  0.3314 -0.3928  0.2787
17685TIP3    H174546   2.898   5.490  14.797  2.9581 -1.5065 -0.1513
17685TIP3    H274547   2.914   5.471  14.648  2.0687  0.6497 -0.5414
17686TIP3   OH274548   3.507   4.283  16.356 -0.3078  0.0657 -0.1606
17686TIP3    H174549   3.422   4.296  16.315 -0.8904 -1.7613  0.4158
17686TIP3    H274550   3.510   4.347  16.427 -0.7815  0.7942 -0.7946
17687TIP3   OH274551   5.053   2.796   4.504  0.3264 -0.1010 -0.3721
17687TIP3    H174552   4.980   2.827   4.450  1.7590  1.0115 -1.6938
17687TIP3    H274553   5.129   2.847   4.474  1.4441 -0.5036  1.6916
17688TIP3   OH274554   2.605   3.714  15.872  0.2656  0.1445  1.0192
17688TIP3    H174555   2.655   3.674  15.943  0.9832  1.5024  1.2902
17688TIP3    H274556   2.672   3.747  15.812 -0.2837  1.8516  1.3140
17689TIP3   OH274557   3.720   0.772   0.402  0.2790  0.3907 -0.2524
17689TIP3    H174558   3.662   0.847   0.396 -0.7027 -0.4391 -1.7082
17689TIP3    H274559   3.808   0.808   0.398 -0.1951  1.4114 -1.7123
17690TIP3   OH274560   0.898   3.983   4.946  0.2171 -0.6436  0.3668
17690TIP3    H174561   0.988   4.013   4.931  0.0883 -1.0370 -1.3353
17690TIP3    H274562   0.844   4.047   4.899 -0.3002 -1.2049  0.1989
17691TIP3   OH274563   0.522   5.375  13.705  0.4583 -0.0729 -0.0758
17691TIP3    H174564   0.442   5.323  13.714 -0.2980  1.1005  0.2310
17691TIP3    H274565   0.537   5.410  13.793  0.6190  0.6839 -0.4011
17692TIP3   OH274566   5.133   2.365  13.622 -0.1859  0.2291  0.8309
17692TIP3    H174567   5.130   2.270  13.622 -1.1649  0.2285 -1.3643
17692TIP3    H274568   5.223   2.386  13.598 -1.0468 -0.2398 -3.3063
17693TIP3   OH274569   1.334   3.926   2.309 -0.3232 -0.1076 -0.2047
17693TIP3    H174570   1.278   3.868   2.361 -0.4770 -0.5531 -0.8691
17693TIP3    H274571   1.333   4.009   2.358 -0.3382 -0.5641  0.5852
17694TIP3   OH274572   1.031   0.460  13.690  0.4256  0.0226 -0.0350
17694TIP3    H174573   0.936   0.449  13.701  0.4759 -1.0456 -0.5495
17694TIP3    H274574   1.050   0.547  13.726 -0.2571 -1.0039  2.9707
17695TIP3   OH274575   5.012   3.220   2.197  0.4486 -0.1481  0.0989
17695TIP3    H174576   5.033   3.221   2.104  0.6849 -0.1119  0.1515
17695TIP3    H274577   4.916   3.221   2.201  0.4431  1.4421 -0.1212
17696TIP3   OH274578   2.364   4.904  11.931 -0.0914 -0.1691  0.3539
17696TIP3    H174579   2.391   4.840  11.866 -0.4873  1.2778 -1.2765
17696TIP3    H274580   2.281   4.871  11.965 -0.4457 -0.3825 -0.6973
17697TIP3   OH274581   5.990   4.748  11.423 -0.6640 -0.3349  0.4847
17697TIP3    H174582   5.933   4.712  11.354 -0.6262  0.7687 -0.1302
17697TIP3    H274583   6.029   4.825  11.383  0.7063 -0.6711  1.1651
17698TIP3   OH274584   4.788   6.540   0.453  0.3474  0.4281 -0.3488
17698TIP3    H174585   4.820   6.630   0.465  2.0588 -0.1524 -0.3777
17698TIP3    H274586   4.795   6.500   0.540 -1.3478  0.6020 -0.1201
17699TIP3   OH274587   1.523   2.904  15.233 -0.0753 -0.4648  0.1909
17699TIP3    H174588   1.576   2.984  15.225  0.0768 -0.6980 -1.2110
17699TIP3    H274589   1.446   2.921  15.179 -1.9800  0.2653  2.9668
17700TIP3   OH274590   3.316   1.618  15.836  0.5377  0.2177  0.5571
17700TIP3    H174591   3.393   1.645  15.785  1.1272 -0.0182  1.3117
17700TIP3    H274592   3.248   1.680  15.811  1.5085  1.6193  1.2944
17701TIP3   OH274593   1.187   6.350   3.444 -0.4444 -0.4834 -0.2550
17701TIP3    H174594   1.247   6.280   3.468 -0.6708 -0.7325 -0.4200
17701TIP3    H274595   1.122   6.351   3.514 -0.5595 -0.5779 -0.3594
17702TIP3   OH274596   5.417   1.969   5.401  0.4220 -0.6589  0.0233
17702TIP3    H174597   5.350   1.963   5.470  0.4075 -2.8638 -0.1388
17702TIP3    H274598   5.405   1.889   5.350  2.0229 -0.2035 -1.0790
17703TIP3   OH274599   0.373   6.603   4.705 -0.0552  0.0631  0.3054
17703TIP3    H174600   0.379   6.612   4.610 -0.6542  0.7927  0.3315
17703TIP3    H274601   0.464   6.607   4.736  0.0360  1.3022 -0.1111
17704TIP3   OH274602   5.504   6.806   0.495  0.4842 -0.6661  0.5968
17704TIP3    H174603   5.525   6.824   0.404  2.0229 -2.6838  0.5184
17704TIP3    H274604   5.585   6.824   0.543 -0.5513  1.1877  1.6997
17705TIP3   OH274605   2.281   2.155  11.713  0.4512  0.3568 -0.1615
17705TIP3    H174606   2.200   2.153  11.763  1.2162  0.3467  1.1131
17705TIP3    H274607   2.347   2.185  11.775  2.0676 -2.7757 -0.2064
17706TIP3   OH274608   1.749   5.544  15.736 -0.3728 -0.3390 -0.2273
17706TIP3    H174609   1.823   5.482  15.742 -3.1750 -3.7359  0.7790
17706TIP3    H274610   1.732   5.551  15.642 -0.1117 -1.2052 -0.3471
17707TIP3   OH274611   2.333   3.891   2.712 -0.2724 -0.1447  0.0111
17707TIP3    H174612   2.296   3.867   2.627  0.3874 -0.4032 -0.2018
17707TIP3    H274613   2.397   3.959   2.692  0.5561 -0.8674  0.1965
17708TIP3   OH274614   6.039   0.637  11.265  0.1835 -0.1849  0.4712
17708TIP3    H174615   6.049   0.590  11.182 -0.0688  0.4563  0.0790
17708TIP3    H274616   5.990   0.576  11.321 -0.3887 -0.2796 -0.1306
17709TIP3   OH274617   3.199   1.092   2.166 -0.1688  0.7160 -0.1949
17709TIP3    H174618   3.174   1.142   2.244 -0.8716  1.3964 -0.8440
17709TIP3    H274619   3.157   1.007   2.176 -1.0702  1.1433 -0.2921
17710TIP3   OH274620   0.978   6.353  13.558 -0.4332  0.4949  0.5031
17710TIP3    H174621   0.913   6.359  13.629 -0.3925  1.6466  0.4592
17710TIP3    H274622   0.943   6.410  13.489 -0.5402 -0.7344 -0.4623
17711TIP3   OH274623   3.426   0.011   0.269  0.0023  0.7467  0.5232
17711TIP3    H174624   3.364   0.084   0.266  0.5203  1.1128 -1.8482
17711TIP3    H274625   3.510   0.052   0.294 -0.6536  0.2489  3.7499
17712TIP3   OH274626   5.737   4.980   1.789  0.5269 -0.5689 -1.0048
17712TIP3    H174627   5.736   4.897   1.836 -1.7160  0.5996  1.1068
17712TIP3    H274628   5.645   4.995   1.765  0.5467  2.2914  0.4774
17713TIP3   OH274629   0.128   4.637   3.237 -0.1276  0.3688 -0.5787
17713TIP3    H174630   0.209   4.686   3.225 -0.4515  0.7787 -1.1895
17713TIP3    H274631   0.134   4.565   3.175  1.3095 -1.6696  1.8549
17714TIP3   OH274632   0.217   6.298   1.126 -0.5472 -0.0634 -0.2288
17714TIP3    H174633   0.217   6.255   1.040 -0.0170 -0.9574  0.2211
17714TIP3    H274634   0.135   6.268   1.167  0.2623 -1.3816  0.4482
17715TIP3   OH274635   1.379   1.723  14.455 -0.1528 -0.1836  0.2607
17715TIP3    H174636   1.393   1.731  14.549  1.1302  1.5498 -0.0457
17715TIP3    H274637   1.445   1.661  14.425 -0.3737 -0.5149  0.4620
17716TIP3   OH274638   4.787   5.983   5.541 -0.1869 -0.6033  0.5862
17716TIP3    H174639   4.703   5.959   5.503 -0.7068 -0.9306  1.8943
17716TIP3    H274640   4.765   6.046   5.610  0.6357 -0.6217  0.8735
17717TIP3   OH274641   2.375   3.338  15.910 -0.1888  0.7154  0.2725
17717TIP3    H174642   2.348   3.269  15.849 -0.7660  0.3671  0.9202
17717TIP3    H274643   2.372   3.418  15.859  1.0195  0.1983 -0.6485
17718TIP3   OH274644   3.654   1.218  15.997 -0.2253 -0.4369  0.0859
17718TIP3    H174645   3.738   1.251  15.968  0.0278  0.3185  1.6820
17718TIP3    H274646   3.621   1.284  16.057 -1.4025 -1.3156  0.4241
17719TIP3   OH274647   1.631   3.548   5.948 -0.2180 -0.3556  0.5677
17719TIP3    H174648   1.647   3.541   6.042  1.7025 -2.3809  0.1318
17719TIP3    H274649   1.541   3.518   5.938  0.5036 -2.9397  1.4613
17720TIP3   OH274650   0.381   0.041   2.016 -1.0769  0.4417 -0.0117
17720TIP3    H174651   0.420  -0.046   2.022  0.2534  1.0220 -0.1977
17720TIP3    H274652   0.438   0.090   1.956  0.7328  2.7993  3.4756
17721TIP3   OH274653   4.403   4.776  12.833  0.3852 -0.6732  0.0895
17721TIP3    H174654   4.421   4.682  12.828 -1.6133 -1.1177  1.0649
17721TIP3    H274655   4.403   4.796  12.926  2.4099  0.6503 -0.1532
17722TIP3   OH274656   3.373   6.772  16.856  0.0205 -0.2293  0.5245
17722TIP3    H174657   3.451   6.719  16.873 -0.6785 -1.5699 -0.3366
17722TIP3    H274658   3.375   6.788  16.762 -1.7841 -1.9861  0.1576
17723TIP3   OH274659   0.512   0.726  16.424  0.0993  0.0579  0.3646
17723TIP3    H174660   0.514   0.771  16.340  1.7121  1.1495  0.9646
17723TIP3    H274661   0.565   0.647  16.412 -0.1412 -0.0795  0.2031
17724TIP3   OH274662   5.279   0.539   4.715  0.4503 -0.4348  0.5804
17724TIP3    H174663   5.349   0.504   4.659  0.2775 -0.1172  0.1613
17724TIP3    H274664   5.290   0.634   4.709 -0.6419 -0.3591 -0.2846
17725TIP3   OH274665   6.093   4.689  15.312  0.0352  0.0465 -0.3837
17725TIP3    H174666   6.013   4.739  15.330  1.9215  3.4801 -1.1238
17725TIP3    H274667   6.139   4.687  15.396  0.5679  0.7320 -0.6519
17726TIP3   OH274668   3.301   5.745  15.245 -0.2758 -0.2363 -0.0546
17726TIP3    H174669   3.396   5.751  15.232  0.1190 -1.9487  1.7768
17726TIP3    H274670   3.268   5.706  15.164  0.5899  0.2517 -0.6577
17727TIP3   OH274671   3.369   5.986   1.935  0.3956  0.0532 -0.0517
17727TIP3    H174672   3.409   6.069   1.962 -0.7853  0.8245 -0.6270
17727TIP3    H274673   3.343   5.944   2.017 -0.1312  0.8394  0.1880
17728TIP3   OH274674   6.328   0.735  11.835 -0.0464 -0.2032  0.1202
17728TIP3    H174675   6.282   0.812  11.801 -1.1283 -0.5550  0.7594
17728TIP3    H274676   6.336   0.677  11.759  0.5635  0.4289 -0.3087
17729TIP3   OH274677   6.011   1.144  12.747  0.3438 -0.1102  0.0993
17729TIP3    H174678   6.006   1.156  12.652  0.3773  0.4122  0.1671
17729TIP3    H274679   6.105   1.149  12.766  0.2082  1.3521  0.3753
17730TIP3   OH274680   5.294   5.477  14.591  0.5651  0.5023  0.3362
17730TIP3    H174681   5.274   5.542  14.523  0.1218  0.8589  0.8151
17730TIP3    H274682   5.255   5.396  14.558 -2.1309  1.2791  1.4887
17731TIP3   OH274683   3.990   4.414  13.117  0.2239  0.3339 -0.2720
17731TIP3    H174684   3.924   4.476  13.147  0.5561  1.7254 -2.3291
17731TIP3    H274685   3.946   4.362  13.050  0.3977 -0.6798  0.3791
17732TIP3   OH274686   1.260   5.358   1.313 -0.2766 -0.3007 -0.3524
17732TIP3    H174687   1.340   5.392   1.273  0.4357  0.5896  1.7297
17732TIP3    H274688   1.189   5.408   1.272  0.3695 -0.0094 -1.1065
17733TIP3   OH274689   1.683   5.615   1.801 -0.6988 -0.6284 -0.2361
17733TIP3    H174690   1.634   5.553   1.747 -1.6289  0.1367 -0.2635
17733TIP3    H274691   1.658   5.701   1.768 -0.3900 -0.1951  0.6625
17734TIP3   OH274692   0.052   4.386  17.179 -0.6001  0.5727 -0.7273
17734TIP3    H174693  -0.031   4.356  17.143 -0.3062  1.5632 -2.2666
17734TIP3    H274694   0.055   4.480  17.159  0.0221  0.9333  1.0136
17735TIP3   OH274695   5.069   6.391   1.290 -0.3830 -0.4728  0.1611
17735TIP3    H174696   5.051   6.297   1.294 -2.0469 -0.2009 -0.8627
17735TIP3    H274697   4.985   6.433   1.309 -0.6724  0.8055 -3.6372
17736TIP3   OH274698   3.816   6.353   3.717  0.5935  0.4892  0.5222
17736TIP3    H174699   3.724   6.372   3.703  0.6549  1.1756  1.0294
17736TIP3    H274700   3.843   6.414   3.786  1.2603 -0.1478  0.8324
17737TIP3   OH274701   4.515   0.968   4.979 -0.3410 -0.1433 -0.0955
17737TIP3    H174702   4.538   0.876   4.962  1.3516 -0.0261  1.3667
17737TIP3    H274703   4.428   0.964   5.018 -1.3984 -0.9019 -2.4175
17738TIP3   OH274704   4.136   5.997   2.563  0.0051 -0.1335 -0.1258
17738TIP3    H174705   4.098   6.063   2.505  0.5856 -1.6398 -2.2753
17738TIP3    H274706   4.062   5.945   2.592 -0.5541  1.8426  2.1560
17739TIP3   OH274707   0.384   3.298  11.085 -0.1103 -0.1977  0.0408
17739TIP3    H174708   0.465   3.304  11.035  0.1877 -1.9092  0.2923
17739TIP3    H274709   0.413   3.293  11.176 -0.5332 -0.1159  0.1818
17740TIP3   OH274710   1.093   6.707  16.678 -0.0016 -0.6378 -0.2026
17740TIP3    H174711   1.117   6.768  16.747 -1.0169  0.0783 -0.4716
17740TIP3    H274712   1.175   6.689  16.632  0.2142  1.0322 -0.5201
17741TIP3   OH274713   0.805   5.189  16.902 -0.2671  0.1757 -0.0694
17741TIP3    H174714   0.848   5.181  16.986 -1.6289  0.6699  0.6939
17741TIP3    H274715   0.797   5.284  16.888 -1.1306  0.0891 -0.1877
17742TIP3   OH274716   5.577   5.769   5.403 -0.2904  0.8596 -0.2353
17742TIP3    H174717   5.575   5.864   5.412  2.9668  1.1234 -1.5463
17742TIP3    H274718   5.638   5.740   5.470 -2.5017 -0.5075  1.2338
17743TIP3   OH274719   1.497   6.291  12.142  1.1953  0.5720 -0.6166
17743TIP3    H174720   1.463   6.212  12.182  3.1297  0.0946  0.1333
17743TIP3    H274721   1.498   6.272  12.048 -0.2333  0.4622 -0.6096
17744TIP3   OH274722   4.514   4.082  17.046  0.1565 -0.0747 -0.2669
17744TIP3    H174723   4.480   4.134  16.973  0.4855  0.2224 -0.2151
17744TIP3    H274724   4.498   4.136  17.124  0.1856 -0.2022 -0.1724
17745TIP3   OH274725   4.537   0.695  13.134 -0.6375  0.4798 -0.0601
17745TIP3    H174726   4.527   0.603  13.109 -0.0122  0.2985  0.3328
17745TIP3    H274727   4.477   0.742  13.077 -1.3473 -0.2277  0.0893
17746TIP3   OH274728   1.379   5.276   5.079  0.2639 -0.0064 -0.3762
17746TIP3    H174729   1.432   5.314   5.149 -0.4406  2.2771 -1.0379
17746TIP3    H274730   1.329   5.206   5.121  1.0952  0.2197  1.0267
17747TIP3   OH274731   5.398   5.812  15.932 -0.2295  0.3034  0.1797
17747TIP3    H174732   5.316   5.853  15.906 -0.6781  0.5132  1.8489
17747TIP3    H274733   5.372   5.724  15.960 -0.1497  0.8985  2.2204
17748TIP3   OH274734   5.875   6.598  13.448 -0.4084 -0.8254  0.2402
17748TIP3    H174735   5.780   6.586  13.445 -0.2747 -1.8848  0.2324
17748TIP3    H274736   5.909   6.515  13.481  0.7244 -1.4682 -2.4220
17749TIP3   OH274737   1.078   2.368   4.744  0.3470 -0.1294 -0.2953
17749TIP3    H174738   1.044   2.351   4.656 -1.2969 -0.4314  0.3723
17749TIP3    H274739   1.093   2.463   4.745  0.1230 -0.0854 -0.8205
17750TIP3   OH274740   4.056   5.449  11.923 -0.0172  0.1037 -0.0373
17750TIP3    H174741   4.142   5.408  11.934  0.5910  1.3835  0.1843
17750TIP3    H274742   4.072   5.542  11.943 -1.5204  0.2964  0.3011
17751TIP3   OH274743   5.273   1.915  11.481 -0.6777 -0.3035 -0.4459
17751TIP3    H174744   5.315   1.999  11.463 -1.1069  0.2794  1.1604
17751TIP3    H274745   5.234   1.889  11.397  0.8513  0.2916 -1.3551
17752TIP3   OH274746   3.596   2.002   5.231  0.1671 -0.3597 -0.1474
17752TIP3    H174747   3.559   2.017   5.318 -1.4779 -1.3537 -0.6416
17752TIP3    H274748   3.677   2.053   5.230 -0.3860  0.5976  1.5512
17753TIP3   OH274749   1.191   5.281   6.784 -0.0545 -0.3350 -0.3136
17753TIP3    H174750   1.184   5.359   6.838 -0.7028  0.1447 -1.0776
17753TIP3    H274751   1.243   5.220   6.836  0.8145  0.7556  0.1072
17754TIP3   OH274752   6.025   5.818  14.416 -0.3372  0.1527 -0.0641
17754TIP3    H174753   6.074   5.860  14.345 -1.7339 -0.3949 -1.3675
17754TIP3    H274754   6.040   5.724  14.403  1.0591  0.1137  1.5926
17755TIP3   OH274755   0.411   6.608  17.137  0.2896 -0.6020  0.4084
17755TIP3    H174756   0.435   6.557  17.059 -0.3057 -0.4046  0.0921
17755TIP3    H274757   0.364   6.684  17.102  1.0923  0.1200  0.8865
17756TIP3   OH274758   0.625   5.478   4.193 -0.2493 -0.2792 -0.8887
17756TIP3    H174759   0.633   5.537   4.118 -1.7206  0.9753 -0.0786
17756TIP3    H274760   0.647   5.533   4.268 -2.8095 -0.4293 -0.0053
17757TIP3   OH274761   0.024   5.390   2.631 -0.1659 -0.1950 -0.2909
17757TIP3    H174762   0.083   5.464   2.646  0.5649 -1.0803  1.3706
17757TIP3    H274763  -0.033   5.418   2.560  0.2054  1.9095  0.2209
17758TIP3   OH274764   3.327   1.181   5.188  0.6742 -0.6602  0.6011
17758TIP3    H174765   3.269   1.244   5.230 -0.2917 -0.1329 -1.4541
17758TIP3    H274766   3.379   1.144   5.260 -0.0117  1.1401  2.0525
17759TIP3   OH274767   1.346   5.594  13.326 -0.1182 -0.3580  0.0416
17759TIP3    H174768   1.271   5.610  13.384 -0.6339 -0.2315 -0.6407
17759TIP3    H274769   1.319   5.519  13.273  0.3516 -0.4843 -0.0136
17760TIP3   OH274770   3.766   2.377  11.873 -0.0525 -0.1144 -0.0853
17760TIP3    H174771   3.748   2.391  11.780 -1.7154  0.0132  0.2420
17760TIP3    H274772   3.808   2.291  11.877  2.5092  1.0439 -1.2207
17761TIP3   OH274773   0.517   6.341   3.039 -0.2826 -0.4531 -0.9515
17761TIP3    H174774   0.462   6.267   3.013 -0.9727 -0.1614 -0.3735
17761TIP3    H274775   0.471   6.418   3.004 -1.1441 -0.0679  0.9282
17762TIP3   OH274776   3.146   6.171  13.769 -0.3776 -0.5488 -0.2121
17762TIP3    H174777   3.087   6.105  13.804 -0.6328  0.7169  1.8961
17762TIP3    H274778   3.223   6.122  13.740 -0.3704 -1.7567  1.7355
17763TIP3   OH274779   3.453   3.821  14.919  0.4470 -0.1251  0.3173
17763TIP3    H174780   3.479   3.730  14.908  0.5775 -0.0575  0.0414
17763TIP3    H274781   3.505   3.853  14.992 -0.2454 -0.5155  0.9859
17764TIP3   OH274782   5.943   1.492  14.131  0.1479 -0.3783  0.6582
17764TIP3    H174783   5.893   1.557  14.081 -0.3925 -0.4167  1.1411
17764TIP3    H274784   5.946   1.415  14.074  0.1380 -0.1860  0.3968
17765TIP3   OH274785   4.692   2.049   5.633 -0.1066  0.4644 -0.4471
17765TIP3    H174786   4.642   2.039   5.714  0.3980  0.3787 -0.1455
17765TIP3    H274787   4.660   1.979   5.576  2.0576 -1.7232  0.9510
17766TIP3   OH274788   4.373   6.494  10.715 -0.5627 -0.2181 -0.5050
17766TIP3    H174789   4.346   6.417  10.764 -2.2793 -0.1305 -1.2532
17766TIP3    H274790   4.442   6.463  10.656 -1.1094 -1.1528 -0.6646
17767TIP3   OH274791   3.726   3.840   1.294 -0.5982  0.1843  0.4512
17767TIP3    H174792   3.689   3.913   1.244  0.9644  1.3792  1.0096
17767TIP3    H274793   3.703   3.860   1.385 -0.7760 -0.3830  0.5308
17768TIP3   OH274794   6.686   5.833  12.805 -0.0377  0.2834  0.4482
17768TIP3    H174795   6.759   5.865  12.752  1.0336 -0.3507  1.5211
17768TIP3    H274796   6.690   5.738  12.796 -1.4322  0.2802 -0.3831
17769TIP3   OH274797   4.951   0.238   2.841  0.2296 -0.0390 -0.4484
17769TIP3    H174798   4.944   0.243   2.936  1.8484 -0.9773 -0.2687
17769TIP3    H274799   4.944   0.145   2.820 -3.2597  0.3845 -1.5512
17770TIP3   OH274800   0.017   1.524  10.521 -0.1242 -0.2985  0.1752
17770TIP3    H174801   0.026   1.607  10.474  0.7400 -1.0355 -0.9749
17770TIP3    H274802  -0.032   1.467  10.462  1.8253 -1.5525 -0.2550
17771TIP3   OH274803   0.824   2.552  16.278  0.1090  0.3550 -0.1978
17771TIP3    H174804   0.867   2.593  16.204 -0.1510  0.6150 -0.2015
17771TIP3    H274805   0.734   2.539  16.250  0.4830 -1.3834 -0.6752
17772TIP3   OH274806   3.182   1.106  12.933 -0.3341  0.7203  0.0420
17772TIP3    H174807   3.214   1.193  12.953 -0.0662  0.4430  0.8286
17772TIP3    H274808   3.098   1.099  12.980 -0.2611  0.4891  0.1442
17773TIP3   OH274809   1.741   3.560  11.074 -0.1667 -0.3877 -0.0142
17773TIP3    H174810   1.812   3.552  11.137 -1.1361 -2.4928  0.8634
17773TIP3    H274811   1.784   3.554  10.988  0.7072 -1.7212  0.5069
17774TIP3   OH274812   3.252   5.960  11.509  0.3988 -0.1127 -0.0707
17774TIP3    H174813   3.165   5.979  11.472  0.6494 -0.2801 -0.7579
17774TIP3    H274814   3.271   6.036  11.564  0.0295  0.1565 -0.3065
17775TIP3   OH274815   4.843   5.911  10.792  0.3441  0.3566  0.1395
17775TIP3    H174816   4.840   5.997  10.750 -1.8365  0.6560  0.8729
17775TIP3    H274817   4.854   5.849  10.720  0.8268  1.1557 -0.4821
17776TIP3   OH274818   5.805   2.866   1.111  0.0638  0.0682  0.1008
17776TIP3    H174819   5.815   2.771   1.123  1.4273  0.4959  2.6688
17776TIP3    H274820   5.711   2.881   1.114 -0.2384 -1.3265 -1.5409
17777TIP3   OH274821   5.730   3.945   3.072 -0.1503  0.0403 -0.5982
17777TIP3    H174822   5.703   4.001   3.000  2.2995  1.5835 -0.3764
17777TIP3    H274823   5.825   3.941   3.066 -0.2296 -3.9194 -0.4189
17778TIP3   OH274824   3.651   4.555  11.286  0.4791  0.0372  0.1903
17778TIP3    H174825   3.713   4.485  11.308  0.0785 -0.2271  0.4990
17778TIP3    H274826   3.658   4.617  11.359  1.1711  0.5561 -0.3107
17779TIP3   OH274827   3.582   0.717   2.595  0.6050 -0.9102 -0.1531
17779TIP3    H174828   3.596   0.625   2.618  2.8424 -0.3483  0.8639
17779TIP3    H274829   3.665   0.760   2.616 -1.1668  1.7935  1.5627
17780TIP3   OH274830   0.190   3.753   0.324 -0.0576 -0.2844 -0.6181
17780TIP3    H174831   0.269   3.713   0.287 -0.7439  0.2637 -2.7554
17780TIP3    H274832   0.160   3.813   0.256  0.0221  2.6597  1.8132
17781TIP3   OH274833   2.961   5.418  15.003 -0.0359  0.4172 -0.8561
17781TIP3    H174834   2.866   5.410  15.001  0.0639 -1.1147  0.1209
17781TIP3    H274835   2.993   5.334  14.969  0.9634  1.1802 -1.8298
17782TIP3   OH274836   5.434   4.728   3.599 -0.3171 -0.0696 -0.0272
17782TIP3    H174837   5.453   4.681   3.680 -0.5713  0.5242  0.3827
17782TIP3    H274838   5.383   4.665   3.547  2.3262 -1.5201 -0.9722
17783TIP3   OH274839   1.637   0.791  12.157  0.6832  0.3072  0.2883
17783TIP3    H174840   1.638   0.825  12.067  0.4446  0.0802  0.1985
17783TIP3    H274841   1.705   0.724  12.158 -0.6374 -1.0682 -0.2720
17784TIP3   OH274842   3.608   2.698  11.166 -0.0168 -0.3089  0.4117
17784TIP3    H174843   3.527   2.681  11.117 -0.5758 -1.3374  1.6639
17784TIP3    H274844   3.663   2.621  11.148  0.1822 -0.2030  0.5693
17785TIP3   OH274845   2.685   5.471   3.464 -0.3784 -0.5130 -0.1600
17785TIP3    H174846   2.631   5.400   3.500 -0.0956 -0.3966  0.5135
17785TIP3    H274847   2.766   5.427   3.437 -0.6606 -0.6282 -0.8185
17786TIP3   OH274848   2.381   2.144  12.614 -0.3858  0.0147  0.4871
17786TIP3    H174849   2.473   2.155  12.589 -0.5370 -0.0354 -0.1078
17786TIP3    H274850   2.333   2.151  12.531 -1.0663  1.7310  0.9947
17787TIP3   OH274851   1.638   1.631   3.605 -0.7677 -0.4426  0.0705
17787TIP3    H174852   1.730   1.655   3.592 -1.1394  0.6884 -0.6251
17787TIP3    H274853   1.635   1.537   3.592  0.1424 -0.3529 -0.8571
17788TIP3   OH274854   3.922   0.697   2.292 -0.3046 -0.2005  0.4980
17788TIP3    H174855   3.859   0.632   2.262 -0.6949  0.9308 -1.1850
17788TIP3    H274856   3.870   0.762   2.339 -0.2970  0.2838 -0.1485
17789TIP3   OH274857   1.916   3.968   2.387 -0.8160 -0.2880  0.1027
17789TIP3    H174858   1.883   4.048   2.426  0.9760  0.6161 -0.1860
17789TIP3    H274859   1.896   3.976   2.294  0.4347  0.3779 -0.1124
17790TIP3   OH274860   4.104   1.560   1.329 -0.0232 -0.2173  0.1906
17790TIP3    H174861   4.181   1.613   1.308 -0.2868 -0.2159 -0.7846
17790TIP3    H274862   4.116   1.537   1.421 -0.4679  2.4479  0.9521
17791TIP3   OH274863   5.583   2.592   6.254  0.2144  0.0642 -0.2693
17791TIP3    H174864   5.586   2.665   6.192  0.5010  1.0530  0.8895
17791TIP3    H274865   5.674   2.563   6.262 -0.1417 -1.7662 -2.2572
17792TIP3   OH274866   3.737   2.697   4.461 -0.3319 -0.2365  0.1985
17792TIP3    H174867   3.812   2.718   4.516  0.3802 -0.6897 -0.5919
17792TIP3    H274868   3.769   2.630   4.400 -1.6423 -1.1546  0.4972
17793TIP3   OH274869   5.727   1.257  16.708 -0.0158 -0.8819  0.1505
17793TIP3    H174870   5.670   1.286  16.637  1.6004 -0.2065 -0.9160
17793TIP3    H274871   5.781   1.189  16.670  1.2592 -0.1246  0.5501
17794TIP3   OH274872   3.382   4.520  13.964 -0.7271  0.3676  0.2663
17794TIP3    H174873   3.336   4.583  14.019 -0.4409  0.5886  0.2490
17794TIP3    H274874   3.398   4.566  13.882 -1.7660 -0.1899 -0.2531
17795TIP3   OH274875   2.685   1.604  15.425 -0.5373 -0.0525  0.6553
17795TIP3    H174876   2.633   1.668  15.377  0.4651  0.2088 -0.1268
17795TIP3    H274877   2.644   1.520  15.406  1.6422 -0.3691 -3.3420
17796TIP3   OH274878   2.341   5.622  15.142 -0.3416  0.1291  0.4051
17796TIP3    H174879   2.435   5.604  15.136 -0.3396  0.3406 -0.1802
17796TIP3    H274880   2.324   5.686  15.073 -1.0679 -0.5083 -0.0135
17797TIP3   OH274881   6.786   2.586   5.085  0.0422 -0.3967 -0.5347
17797TIP3    H174882   6.806   2.498   5.116  3.0436  0.0343 -1.0891
17797TIP3    H274883   6.810   2.643   5.158  0.7080  0.1319 -1.1549
17798TIP3   OH274884   2.621   2.103   4.676 -0.3022 -0.0189  0.0129
17798TIP3    H174885   2.713   2.075   4.683  0.1452  1.1842 -0.8902
17798TIP3    H274886   2.590   2.104   4.767  0.7048 -0.0431  0.3727
17799TIP3   OH274887   6.611   0.619  15.983  0.3175  0.0145  0.2160
17799TIP3    H174888   6.680   0.553  15.985 -0.4257 -0.8152 -0.8692
17799TIP3    H274889   6.556   0.600  16.059  0.7709  0.1189  0.5697
17800TIP3   OH274890   4.770   0.942   4.789  0.3900  0.2058  0.3372
17800TIP3    H174891   4.706   0.888   4.744 -0.4092  0.2722  1.3726
17800TIP3    H274892   4.787   1.015   4.730  1.5107 -1.1801 -1.0908
17801TIP3   OH274893   4.501   3.348  15.780 -0.5069 -0.1203  0.6723
17801TIP3    H174894   4.539   3.422  15.827 -2.3888  0.8116  0.7670
17801TIP3    H274895   4.477   3.384  15.695  0.2452 -1.0972  0.0357
17802TIP3   OH274896   0.122   1.200   2.795 -0.0241  0.1789  0.0096
17802TIP3    H174897   0.179   1.126   2.777 -1.3357 -0.8133 -0.1458
17802TIP3    H274898   0.147   1.229   2.883  2.6594  1.5881 -1.1794
17803TIP3   OH274899   1.322   5.446   2.529 -0.6469 -0.6615 -0.0664
17803TIP3    H174900   1.230   5.457   2.553 -0.7477 -0.0450 -0.7243
17803TIP3    H274901   1.331   5.493   2.446  0.4889  0.0681  0.4573
17804TIP3   OH274902   6.723   2.274  13.956  0.1494 -0.4838  0.3113
17804TIP3    H174903   6.791   2.322  13.910  1.7209 -3.5320 -0.6812
17804TIP3    H274904   6.641   2.310  13.922  1.2783  1.0966 -0.7872
17805TIP3   OH274905   0.015   3.021   0.364 -0.0427  0.0193 -0.3704
17805TIP3    H174906   0.067   3.050   0.439  0.8494  0.7879 -1.2762
17805TIP3    H274907   0.008   2.926   0.375 -1.5730  0.3499  1.7164
17806TIP3   OH274908   5.801   1.751  11.953 -0.3381 -0.5998 -0.1325
17806TIP3    H174909   5.891   1.730  11.978  0.0971 -0.7275 -1.7045
17806TIP3    H274910   5.748   1.683  11.993  0.2529 -0.5005  0.8456
17807TIP3   OH274911   3.698   0.848   5.892 -0.0164  0.3602 -0.1574
17807TIP3    H174912   3.710   0.941   5.913 -1.4111  0.0602  2.1925
17807TIP3    H274913   3.773   0.826   5.838  0.6538  2.7108 -0.2644
17808TIP3   OH274914   1.466   5.918  15.569 -0.3595  0.1242  0.3246
17808TIP3    H174915   1.532   5.935  15.502 -0.9617  0.3318 -0.2238
17808TIP3    H274916   1.442   5.826  15.556  0.2159 -0.1048  0.8796
17809TIP3   OH274917   4.306   3.684   4.988  0.6147 -0.4414  0.1907
17809TIP3    H174918   4.239   3.618   4.968  0.7903 -0.2091 -1.2104
17809TIP3    H274919   4.272   3.765   4.950  1.0782 -0.0345  0.6379
17810TIP3   OH274920   5.196   6.720   5.257 -0.1038 -0.8507  0.0041
17810TIP3    H174921   5.263   6.702   5.190 -0.0935 -2.5250  0.4273
17810TIP3    H274922   5.245   6.724   5.339 -0.4052 -1.1831  0.2026
17811TIP3   OH274923   2.881   4.550   3.002 -0.1066  0.2798  0.0874
17811TIP3    H174924   2.792   4.564   2.969  0.1847  1.9446 -0.0667
17811TIP3    H274925   2.877   4.467   3.049 -1.3945 -0.3733 -1.1465
17812TIP3   OH274926   0.400   2.196   2.800  0.4853  0.3668  0.0293
17812TIP3    H174927   0.323   2.147   2.826  1.3797 -0.1149  1.8130
17812TIP3    H274928   0.423   2.248   2.877  0.8042  2.0024 -1.1278
17813TIP3   OH274929   6.345   2.540   4.896  0.5228 -0.4238  0.3523
17813TIP3    H174930   6.438   2.562   4.904  0.3594 -0.1488  1.4674
17813TIP3    H274931   6.300   2.624   4.896  0.1611 -0.6099  1.2695
17814TIP3   OH274932   2.952   5.657   3.320 -0.1126  0.5011  0.4575
17814TIP3    H174933   2.920   5.728   3.264 -1.3121  0.9980  1.7325
17814TIP3    H274934   3.030   5.625   3.276 -0.7302  1.2291 -1.2237
17815TIP3   OH274935   2.557   5.569  15.999 -0.6897  0.0766  0.7602
17815TIP3    H174936   2.518   5.605  16.079 -0.8550 -3.2491  2.2702
17815TIP3    H274937   2.482   5.542  15.946 -0.5303 -0.3202  0.7369
17816TIP3   OH274938   0.424   2.649   2.971  0.0470 -0.5694 -0.5030
17816TIP3    H174939   0.408   2.600   2.890 -0.6612  0.3014 -0.8915
17816TIP3    H274940   0.381   2.597   3.039 -0.4997 -0.6077 -0.8762
17817TIP3   OH274941   2.212   3.545   1.870 -0.4776 -0.7364  0.0793
17817TIP3    H174942   2.248   3.632   1.888 -1.3261 -0.4499  0.3986
17817TIP3    H274943   2.130   3.541   1.919 -1.6945 -0.7739 -1.8579
17818TIP3   OH274944   5.302   0.521  14.007 -0.2191  0.0792  0.2311
17818TIP3    H174945   5.266   0.439  13.974  1.1895  0.0304 -1.2216
17818TIP3    H274946   5.272   0.588  13.945 -2.8991  0.9889  2.4042
17819TIP3   OH274947   4.844   2.289  14.125 -0.3963  0.0641  0.3615
17819TIP3    H174948   4.810   2.267  14.212 -1.2104  0.1432  0.0690
17819TIP3    H274949   4.874   2.379  14.134 -0.6153  0.1227  0.5281
17820TIP3   OH274950   5.457   3.062  16.528 -1.1120  0.4198  0.6902
17820TIP3    H174951   5.383   3.002  16.522 -1.8790  1.6439 -5.1725
17820TIP3    H274952   5.417   3.149  16.534 -0.3178  1.0696 -2.2257
17821TIP3   OH274953   3.965   6.607   5.369 -0.4591 -0.3442 -0.3889
17821TIP3    H174954   3.994   6.519   5.346 -1.0922 -0.1544 -1.9250
17821TIP3    H274955   3.904   6.632   5.300 -1.8938  0.4864  1.1421
17822TIP3   OH274956   2.394   2.689  12.528 -0.6042  0.1524  0.0077
17822TIP3    H174957   2.469   2.675  12.469  0.7376 -0.6156  1.8544
17822TIP3    H274958   2.332   2.739  12.475  0.7645 -0.0856 -1.9080
17823TIP3   OH274959   2.453   5.564  11.919 -0.0416  0.2283  0.3056
17823TIP3    H174960   2.458   5.541  11.826 -0.7120 -2.1283  0.8053
17823TIP3    H274961   2.544   5.572  11.946  0.1628  0.8441 -0.5244
17824TIP3   OH274962   4.746   3.225   3.699 -0.1058  0.0328  0.6544
17824TIP3    H174963   4.652   3.219   3.716 -0.1458 -3.5564 -0.3528
17824TIP3    H274964   4.754   3.219   3.604  1.1765 -1.1901  0.8156
17825TIP3   OH274965   6.477   3.205   6.351 -0.0257 -0.4794 -0.9536
17825TIP3    H174966   6.465   3.270   6.420  0.3261  0.1118 -1.4358
17825TIP3    H274967   6.462   3.121   6.393 -3.2528  0.0456 -0.9547
17826TIP3   OH274968   2.633   3.250   5.769 -0.7354  0.2734  0.6995
17826TIP3    H174969   2.662   3.316   5.705 -1.0056  1.0016  1.3143
17826TIP3    H274970   2.685   3.173   5.749  1.8548  1.6400  1.9598
17827TIP3   OH274971   3.996   3.851   2.838 -0.0805 -0.5526  0.9275
17827TIP3    H174972   3.953   3.934   2.860  0.7438  0.2060 -0.2738
17827TIP3    H274973   4.072   3.876   2.785  0.9659 -1.9750  1.6929
17828TIP3   OH274974   4.864   2.022  13.672 -0.6429  0.0999 -0.5816
17828TIP3    H174975   4.865   2.056  13.761 -0.4817 -0.9243 -0.1910
17828TIP3    H274976   4.866   1.927  13.682  1.1736 -0.0163 -1.7007
17829TIP3   OH274977   6.431   4.879  15.475 -0.8171  0.0386 -0.1246
17829TIP3    H174978   6.337   4.873  15.495 -1.1774  0.0066 -1.7984
17829TIP3    H274979   6.448   4.973  15.469 -0.1425  0.1694  2.8146
17830TIP3   OH274980   6.124   4.329   5.118 -0.3402  0.4446  0.1674
17830TIP3    H174981   6.123   4.406   5.175 -0.0218  1.5966 -1.3438
17830TIP3    H274982   6.217   4.303   5.114 -0.5029 -0.2642  1.0022
17831TIP3   OH274983   1.055   0.079   5.760 -0.5472  0.0398 -0.7012
17831TIP3    H174984   1.105   0.160   5.778 -1.9414  1.1245 -1.5833
17831TIP3    H274985   1.093   0.014   5.819  0.1796  1.4992  0.4868
17832TIP3   OH274986   1.478   4.655  15.871 -0.6461  0.5468  0.0355
17832TIP3    H174987   1.476   4.672  15.777  0.0739 -0.7476 -0.2241
17832TIP3    H274988   1.392   4.619  15.891 -0.3901 -0.2767 -0.3419
17833TIP3   OH274989   4.814   0.951  13.460  0.5015  0.1191 -0.0008
17833TIP3    H174990   4.762   0.997  13.526  1.4703  1.3653 -0.0996
17833TIP3    H274991   4.866   0.888  13.510  0.9868  0.8282  0.3843
17834TIP3   OH274992   2.497   6.581   3.091  0.0424  0.5549 -0.5232
17834TIP3    H174993   2.575   6.574   3.037 -1.1665  2.6394 -2.6274
17834TIP3    H274994   2.464   6.491   3.098  2.2240 -0.2408 -0.1600
17835TIP3   OH274995   4.358   5.588  14.977 -0.1610  0.5253  0.3951
17835TIP3    H174996   4.394   5.590  14.888  0.4289 -1.5030  0.5540
17835TIP3    H274997   4.300   5.512  14.977  1.6058 -0.8886  2.3723
17836TIP3   OH274998   6.442   5.646   6.306 -0.5250  0.7597 -0.4776
17836TIP3    H174999   6.497   5.613   6.377  0.3528 -1.3434 -2.0832
17836TIP3    H275000   6.446   5.741   6.314  0.2033  0.5598  1.7812
17837TIP3   OH275001   3.765   6.777  16.780  0.3617  0.1930 -0.1979
17837TIP3    H175002   3.707   6.715  16.735 -0.3193  1.6733 -1.3893
17837TIP3    H275003   3.848   6.729  16.789 -0.3436 -1.1236 -0.5356
17838TIP3   OH275004   0.783   3.036   1.296 -0.2228 -0.0236  0.2038
17838TIP3    H175005   0.864   3.066   1.336  0.0505  0.4712 -0.7115
17838TIP3    H275006   0.783   3.076   1.208  0.0502 -2.5207 -0.9738
17839TIP3   OH275007   2.583   0.025   2.865 -0.1197 -0.4442 -0.6785
17839TIP3    H175008   2.636   0.030   2.785  0.8840  1.4569  0.0914
17839TIP3    H275009   2.643  -0.007   2.932 -0.5992 -0.6719 -0.3566
17840TIP3   OH275010   0.808   0.719   0.210 -0.6958  0.3762 -0.0810
17840TIP3    H175011   0.812   0.739   0.116 -2.3219  1.5472  0.0783
17840TIP3    H275012   0.891   0.751   0.245 -0.5399  0.9214 -0.9351
17841TIP3   OH275013   1.499   6.813   1.089 -0.2551  0.6323 -0.2344
17841TIP3    H175014   1.546   6.867   1.153 -1.3772  1.6169 -0.2125
17841TIP3    H275015   1.445   6.876   1.040  0.7305 -0.0840 -2.2844
17842TIP3   OH275016   3.234   5.817  12.764 -0.1452  0.1901 -0.3278
17842TIP3    H175017   3.158   5.821  12.821  0.0007  0.2100 -0.1306
17842TIP3    H275018   3.285   5.743  12.797  0.6952  1.1332  0.5396
17843TIP3   OH275019   3.903   5.576  15.738  0.5902  0.2908  0.3943
17843TIP3    H175020   3.846   5.547  15.810  0.5863 -0.3172  0.1434
17843TIP3    H275021   3.863   5.658  15.708 -0.1300 -0.1074  0.2535
17844TIP3   OH275022   1.331   3.156   0.684 -0.2024  0.7205  0.4894
17844TIP3    H175023   1.371   3.243   0.675  0.0780  0.5534  0.1101
17844TIP3    H275024   1.357   3.128   0.773 -0.1728  0.9642  0.5586
17845TIP3   OH275025   6.232   3.936  16.916 -0.7003 -0.0662 -0.2592
17845TIP3    H175026   6.157   3.969  16.869 -2.7727 -1.2906  2.0396
17845TIP3    H275027   6.236   3.843  16.893 -0.3491 -0.1624  0.1656
17846TIP3   OH275028   4.847   2.698   2.678 -0.0175 -0.0502  0.1281
17846TIP3    H175029   4.929   2.705   2.628  0.4261  0.7813  0.9326
17846TIP3    H275030   4.782   2.667   2.615  1.1155 -1.5999 -0.3101
17847TIP3   OH275031   0.178   3.247  13.068  0.0623 -0.5107  0.1365
17847TIP3    H175032   0.151   3.159  13.094 -0.9120  0.1938  1.5765
17847TIP3    H275033   0.204   3.290  13.150  1.5850  0.2047 -0.6838
17848TIP3   OH275034   0.297   1.869  11.623  0.3256  0.1181 -0.0031
17848TIP3    H175035   0.209   1.907  11.626 -0.4792 -1.6379 -0.7049
17848TIP3    H275036   0.288   1.791  11.568  1.6644 -1.7478  2.3265
17849TIP3   OH275037   4.619   2.041  14.034 -0.3014 -0.1067 -0.6702
17849TIP3    H175038   4.570   2.075  13.959 -0.2192 -0.8832 -1.0807
17849TIP3    H275039   4.673   1.971  13.998  1.5085  1.0790 -0.3099
17850TIP3   OH275040   1.690   6.529  13.097 -0.1457 -0.3152 -0.2323
17850TIP3    H175041   1.676   6.442  13.134  0.6733  0.0347  0.9503
17850TIP3    H275042   1.671   6.589  13.170 -1.1577  0.5095 -1.1685
17851TIP3   OH275043   2.416   0.646   5.628 -0.1702 -0.1878  0.7376
17851TIP3    H175044   2.402   0.601   5.545 -1.2692  0.3026  0.6420
17851TIP3    H275045   2.508   0.673   5.627 -0.6115  1.3485 -1.0821
17852TIP3   OH275046   5.774   4.731  11.256  0.5762  0.2532  0.6130
17852TIP3    H175047   5.784   4.667  11.186  1.1615 -0.5538  1.4244
17852TIP3    H275048   5.699   4.699  11.307  1.4283 -0.2908  1.5416
17853TIP3   OH275049   3.192   5.662   3.801 -1.3204 -0.0421 -0.3614
17853TIP3    H175050   3.230   5.639   3.886 -1.4848  1.0677  0.0106
17853TIP3    H275051   3.257   5.719   3.760 -1.4952 -0.1163 -0.7457
17854TIP3   OH275052   0.485   6.315  15.521  0.0487  0.0853 -0.0853
17854TIP3    H175053   0.554   6.251  15.538 -0.6390  0.0868  2.9537
17854TIP3    H275054   0.405   6.263  15.513 -0.3763  0.4756  1.5130
17855TIP3   OH275055   3.699   3.441   2.629  0.4165 -0.2366 -0.4367
17855TIP3    H175056   3.701   3.348   2.606 -0.5846 -0.4540  0.3108
17855TIP3    H275057   3.788   3.461   2.655 -0.1028 -1.9281  2.9290
17856TIP3   OH275058   0.679   1.539   4.041 -0.4254  0.4843 -0.0263
17856TIP3    H175059   0.598   1.583   4.016  0.0585  1.3505 -0.0921
17856TIP3    H275060   0.715   1.593   4.111 -3.3244 -3.5371  4.9536
17857TIP3   OH275061   2.366   3.018  15.215  0.0740  0.2129 -0.0369
17857TIP3    H175062   2.281   2.981  15.238 -0.5351  0.3376 -1.9813
17857TIP3    H275063   2.414   2.945  15.175  0.4230  0.4585 -0.0718
17858TIP3   OH275064   5.834   2.120   0.632  0.2277  0.2549  0.2402
17858TIP3    H175065   5.894   2.194   0.638 -1.2452  1.4087  1.0787
17858TIP3    H275066   5.844   2.075   0.716 -1.2445  1.3936  1.0562
17859TIP3   OH275067   0.241   5.511   5.610 -0.0569  0.3359 -0.2946
17859TIP3    H175068   0.166   5.570   5.621 -0.6565 -0.4990  0.1804
17859TIP3    H275069   0.209   5.427   5.642  1.4852  0.2398  1.0256
17860TIP3   OH275070   4.996   5.418  12.756 -0.4302  0.0134 -0.1111
17860TIP3    H175071   4.921   5.390  12.704 -1.1330  0.0824  0.8436
17860TIP3    H275072   4.957   5.462  12.832  0.5901  3.2752 -1.3611
17861TIP3   OH275073   3.343   3.943   2.006 -0.1043  0.2191  0.6712
17861TIP3    H175074   3.311   4.027   2.039 -0.9855  1.1818 -2.4605
17861TIP3    H275075   3.396   3.966   1.929  0.0568 -2.0651  0.0618
17862TIP3   OH275076   0.025   1.643   1.972 -0.2536  0.3896  0.4127
17862TIP3    H175077   0.052   1.649   1.881  0.0990  2.8692  0.6561
17862TIP3    H275078  -0.051   1.701   1.978 -1.4330 -1.2173  1.2810
17863TIP3   OH275079   3.010   5.402   1.337  0.4148  0.2503 -0.4227
17863TIP3    H175080   2.925   5.362   1.318 -1.2021  3.8969 -1.3957
17863TIP3    H275081   3.005   5.426   1.429  1.7788 -2.5512  0.4342
17864TIP3   OH275082   2.464   3.562   4.811 -0.1160 -0.4833 -0.0414
17864TIP3    H175083   2.541   3.505   4.802  0.4871  0.3638 -0.3882
17864TIP3    H275084   2.418   3.553   4.727 -1.8544 -3.0227  1.1170
17865TIP3   OH275085   3.795   5.582   1.006  0.2904 -0.0829 -0.4418
17865TIP3    H175086   3.768   5.673   1.000 -1.0346 -0.5020 -0.8592
17865TIP3    H275087   3.891   5.586   1.009  0.2105  1.3923  0.9173
17866TIP3   OH275088   3.692   0.805  11.781  0.4852  0.1771 -0.4092
17866TIP3    H175089   3.661   0.768  11.698 -1.9281 -1.1520  1.0036
17866TIP3    H275090   3.728   0.891  11.757 -0.8258  0.1361 -2.7260
17867TIP3   OH275091   3.861   3.021  12.936 -0.3727 -0.1850 -0.0828
17867TIP3    H175092   3.932   2.980  12.888 -0.0788  2.1564 -1.7362
17867TIP3    H275093   3.903   3.060  13.013 -0.5057 -2.1172  0.9872
17868TIP3   OH275094   5.007   0.243   0.315  0.1829  0.7268  0.3025
17868TIP3    H175095   5.092   0.265   0.278  0.2612  1.7369  1.0495
17868TIP3    H275096   4.994   0.308   0.385 -0.8848  0.1531  0.6464
17869TIP3   OH275097   6.588   4.157   3.748  0.1091 -0.0259 -0.5454
17869TIP3    H175098   6.549   4.198   3.671 -0.5754  1.0613  0.3724
17869TIP3    H275099   6.658   4.102   3.712  0.1389  0.8643 -1.9051
17870TIP3   OH275100   0.477   3.588   1.010 -0.5792  0.0507 -0.0950
17870TIP3    H175101   0.389   3.551   1.019 -1.4124  1.6624 -1.3381
17870TIP3    H275102   0.511   3.549   0.930 -0.9548  0.9435 -0.7001
17871TIP3   OH275103   0.074   0.166   5.856  0.0480 -0.1481  0.1615
17871TIP3    H175104   0.108   0.079   5.875 -0.5409 -0.3761  0.1734
17871TIP3    H275105   0.117   0.223   5.921  0.2723 -0.4605  0.2887
17872TIP3   OH275106   0.426   3.356   3.597  0.2104 -0.6819  0.1021
17872TIP3    H175107   0.448   3.300   3.672  0.3349  1.0644  1.4057
17872TIP3    H275108   0.504   3.355   3.542  1.3861  0.6393  1.6773
17873TIP3   OH275109   5.758   3.912   0.407 -0.5529 -0.4539  0.0593
17873TIP3    H175110   5.828   3.938   0.346  0.7799 -1.3718  1.1915
17873TIP3    H275111   5.762   3.977   0.477  0.1796 -1.3901  0.8963
17874TIP3   OH275112   2.823   4.512   5.392 -0.5548  0.1278  0.0641
17874TIP3    H175113   2.873   4.465   5.459 -0.0488 -0.4283 -0.7007
17874TIP3    H275114   2.747   4.455   5.376 -0.8510  0.4259  0.4094
17875TIP3   OH275115   3.788   1.470   3.284 -0.6999  0.5098 -0.3049
17875TIP3    H175116   3.812   1.516   3.364 -0.7930  0.5803 -0.3173
17875TIP3    H275117   3.716   1.413   3.310 -1.5567  1.4352 -0.6080
17876TIP3   OH275118   6.496   4.820  13.315  0.1514 -0.0408 -0.4358
17876TIP3    H175119   6.462   4.749  13.369  2.8479 -0.8533  0.2944
17876TIP3    H275120   6.511   4.893  13.375  0.3497  0.0694 -0.6137
17877TIP3   OH275121   4.379   3.990   0.091  0.4105  0.3395 -0.4160
17877TIP3    H175122   4.290   4.009   0.121  0.1054 -2.2177  0.4808
17877TIP3    H275123   4.398   4.057   0.026 -1.5968  1.8383  0.5031
17878TIP3   OH275124   3.075   2.195   4.662  0.5832  0.3968 -0.3122
17878TIP3    H175125   3.104   2.240   4.741 -2.0054 -1.3086  1.6722
17878TIP3    H275126   3.001   2.247   4.631  0.1334 -0.2186 -0.2841
17879TIP3   OH275127   2.156   0.749   5.711 -0.2435  0.1366  0.3368
17879TIP3    H175128   2.244   0.732   5.678 -0.1753  0.1946  0.4858
17879TIP3    H275129   2.151   0.844   5.720 -0.9182  0.2619 -1.2851
17880TIP3   OH275130   2.327   6.275   2.998 -0.1308 -0.1914 -0.2539
17880TIP3    H175131   2.378   6.302   2.921  3.3977 -3.3826  0.8612
17880TIP3    H275132   2.349   6.184   3.012  0.7393  0.7125  5.6276
17881TIP3   OH275133   6.441   3.726  11.459 -0.2492 -0.1557  0.5155
17881TIP3    H175134   6.431   3.631  11.471  0.4048 -0.2714  0.2202
17881TIP3    H275135   6.479   3.757  11.541  0.1527 -0.2594  0.3729
17882TIP3   OH275136   1.138   0.320   3.299 -0.4387 -0.1595  0.6929
17882TIP3    H175137   1.076   0.352   3.364 -1.1334 -0.3183  0.1133
17882TIP3    H275138   1.167   0.236   3.332 -0.5697 -0.1062  0.9413
17883TIP3   OH275139   5.529   3.941  13.344  0.0662  0.7125  0.2187
17883TIP3    H175140   5.529   3.855  13.386  3.6062  1.0104  0.9328
17883TIP3    H275141   5.470   3.993  13.399  1.4760 -0.0230  2.5246
17884TIP3   OH275142   0.150   5.221   4.527 -0.5954  0.3197  0.2728
17884TIP3    H175143   0.114   5.306   4.550  0.4757  0.8137  0.1722
17884TIP3    H275144   0.204   5.196   4.602  1.9132  1.3690 -1.1006
17885TIP3   OH275145   1.393   0.231   6.199  0.0934  0.2543 -0.3354
17885TIP3    H175146   1.334   0.158   6.182  0.4530  0.6183 -3.5214
17885TIP3    H275147   1.340   0.297   6.243 -0.4168 -1.6111  1.8863
17886TIP3   OH275148   4.302   1.892  12.334 -0.5013  0.3894  0.5815
17886TIP3    H175149   4.357   1.951  12.386 -2.0788  1.1166  1.4878
17886TIP3    H275150   4.318   1.805  12.371  1.1232  0.3851 -0.1281
17887TIP3   OH275151   4.631   1.080  12.160 -0.3297 -0.4328 -0.4782
17887TIP3    H175152   4.643   1.160  12.211 -0.4535  0.0026 -1.1162
17887TIP3    H275153   4.641   1.009  12.223  2.2130  0.0076 -0.3223
17888TIP3   OH275154   5.572   6.266  13.530  0.1773 -0.2389  0.1028
17888TIP3    H175155   5.569   6.295  13.621  0.2307  0.2652 -0.0552
17888TIP3    H275156   5.498   6.205  13.523 -1.0811  1.2781 -0.0371
17889TIP3   OH275157   5.805   1.385  14.734  0.0155 -0.1762 -0.3388
17889TIP3    H175158   5.870   1.372  14.664  1.2207 -0.1441  0.7511
17889TIP3    H275159   5.804   1.301  14.781 -0.7142 -0.1615 -0.3313
17890TIP3   OH275160   0.357   5.265  12.134  0.0572  0.9873  0.9030
17890TIP3    H175161   0.289   5.218  12.183  0.3373  0.4423  0.7786
17890TIP3    H275162   0.315   5.346  12.106 -0.8528  0.2245  0.0042
17891TIP3   OH275163   1.908   1.856   4.669  0.1153  0.0686 -0.6188
17891TIP3    H175164   1.944   1.856   4.758 -0.2070  0.3836 -0.4850
17891TIP3    H275165   1.828   1.909   4.676  0.2244  0.3084 -1.1528
17892TIP3   OH275166   6.029   4.878  14.520  0.1933 -0.0035 -0.2812
17892TIP3    H175167   5.960   4.943  14.536 -0.9910 -0.9799 -1.3157
17892TIP3    H275168   6.080   4.916  14.448  0.1803  0.2866 -0.1406
17893TIP3   OH275169   1.807   3.536  12.172  0.2452  0.2650 -0.5473
17893TIP3    H175170   1.823   3.445  12.195 -0.0160  0.6032  1.0483
17893TIP3    H275171   1.872   3.586  12.224 -0.5787  1.0694 -0.2710
17894TIP3   OH275172   6.420   1.706  14.431  0.0712  0.2800 -0.5001
17894TIP3    H175173   6.334   1.679  14.460  0.0765  1.1658  0.3582
17894TIP3    H275174   6.480   1.672  14.497  0.2930  0.4334 -0.6210
17895TIP3   OH275175   0.849   3.264  17.107  0.6071 -0.1338  0.2979
17895TIP3    H175176   0.808   3.180  17.127  2.8971 -1.6754 -1.2581
17895TIP3    H275177   0.777   3.318  17.074 -0.9966 -1.2761  1.8004
17896TIP3   OH275178   3.202   4.213  16.841 -0.2580  0.2086  0.2057
17896TIP3    H175179   3.246   4.235  16.758  0.3460 -0.7574  0.2676
17896TIP3    H275180   3.156   4.131  16.823 -0.7061  0.3682  0.6195
17897TIP3   OH275181   4.671   3.986  11.764 -0.2087  0.4298  0.2623
17897TIP3    H175182   4.612   3.974  11.689 -0.5354 -1.0104  0.7270
17897TIP3    H275183   4.730   4.056  11.737  0.3506 -0.7803 -1.7576
17898TIP3   OH275184   1.751   4.284   5.804 -0.2600  0.0902 -0.0695
17898TIP3    H175185   1.778   4.192   5.800  0.1567  0.2859 -2.8876
17898TIP3    H275186   1.699   4.291   5.884  1.6777 -2.0434  1.4376
17899TIP3   OH275187   0.644   4.913  13.896 -0.4136 -0.8608  0.3153
17899TIP3    H175188   0.625   4.825  13.928 -1.6324 -0.5377  0.5062
17899TIP3    H275189   0.610   4.914  13.806 -1.3253 -0.2764  0.6602
17900TIP3   OH275190   4.200   2.675  13.377 -0.4744 -0.1899 -0.0697
17900TIP3    H175191   4.292   2.666  13.352 -0.4605 -0.3238  0.0260
17900TIP3    H275192   4.167   2.585  13.379 -1.2263  0.0101 -2.4391
17901TIP3   OH275193   1.491   6.160   1.920  0.1341 -0.3395 -0.0545
17901TIP3    H175194   1.459   6.164   2.010 -1.9586  1.2714 -0.8376
17901TIP3    H275195   1.478   6.248   1.886  1.5572 -0.7559 -1.7253
17902TIP3   OH275196   1.417   3.395   5.018  0.4561  0.5263 -0.0726
17902TIP3    H175197   1.423   3.448   5.097 -0.4184 -0.1746  0.4675
17902TIP3    H275198   1.474   3.320   5.035  1.0371  0.8639 -0.5042
17903TIP3   OH275199   4.133   1.707   5.453 -0.7604  0.0885  0.0654
17903TIP3    H175200   4.042   1.684   5.469 -0.2126 -0.9235  1.9256
17903TIP3    H275201   4.180   1.624   5.453  0.1415  0.5779 -1.1074
17904TIP3   OH275202   3.235   1.913  11.392 -0.4942  0.5056 -0.0988
17904TIP3    H175203   3.148   1.878  11.372 -0.7439 -0.3524  2.3150
17904TIP3    H275204   3.271   1.852  11.456  2.0193  0.7181 -1.2527
17905TIP3   OH275205   1.137   4.154   6.261  0.3014  0.5543  0.7745
17905TIP3    H175206   1.195   4.115   6.196  0.2493  1.4751  0.1585
17905TIP3    H275207   1.072   4.087   6.280  0.0660  0.4294 -0.4498
17906TIP3   OH275208   1.495   0.435   0.243  0.4339  0.6400 -0.0931
17906TIP3    H175209   1.445   0.514   0.263  0.0849  0.4947 -0.3909
17906TIP3    H275210   1.442   0.364   0.278  1.4391  0.6442  1.4654
17907TIP3   OH275211   4.459   1.693   3.256  0.5494  0.1772 -0.3257
17907TIP3    H175212   4.446   1.774   3.305 -0.7973 -1.2108  1.6651
17907TIP3    H275213   4.397   1.700   3.183 -0.0121  0.6558  0.1924
17908TIP3   OH275214   1.894   3.735   3.882  0.1957  0.3489 -0.2421
17908TIP3    H175215   1.984   3.767   3.873  0.7842 -1.6014 -1.8391
17908TIP3    H275216   1.840   3.805   3.845  1.0389  1.5045  0.6575
17909TIP3   OH275217   0.789   4.183   2.049  0.3863 -0.7365 -0.1939
17909TIP3    H175218   0.725   4.254   2.043  0.4146 -0.6158  0.9067
17909TIP3    H275219   0.806   4.158   1.958  0.1043  0.4168 -0.5607
17910TIP3   OH275220   0.052   3.930   0.167 -0.3096  0.1930  0.0937
17910TIP3    H175221   0.018   4.005   0.216 -0.5916 -0.1770  0.4660
17910TIP3    H275222   0.035   3.951   0.076 -0.5230  0.5169  0.2084
17911TIP3   OH275223   1.251   6.149   6.468 -0.1879  0.0561  0.2531
17911TIP3    H175224   1.284   6.160   6.378 -0.4561 -0.2020  0.1230
17911TIP3    H275225   1.271   6.058   6.489  1.8080  0.6902  1.2407
17912TIP3   OH275226   4.623   4.604  11.161  0.3590  0.4635  0.4709
17912TIP3    H175227   4.582   4.690  11.146  0.6802  0.5143 -0.1260
17912TIP3    H275228   4.715   4.623  11.174  0.1985  0.3402  1.7790
17913TIP3   OH275229   2.661   4.997   5.685  0.2228 -0.1021 -0.0778
17913TIP3    H175230   2.718   5.034   5.617 -0.7455  0.7680 -0.4281
17913TIP3    H275231   2.640   4.910   5.653  1.4615 -0.4972  0.1260
17914TIP3   OH275232   3.914   4.915   0.444 -0.1612  0.1151 -0.1612
17914TIP3    H175233   3.890   4.826   0.418 -1.8048  0.5165 -0.1136
17914TIP3    H275234   3.999   4.906   0.486  0.7046 -1.1131 -2.1205
17915TIP3   OH275235   4.604   4.735   6.318  0.1867  0.9407  0.0632
17915TIP3    H175236   4.579   4.684   6.396  2.4913  0.0101  0.2355
17915TIP3    H275237   4.692   4.703   6.296 -0.7785  0.5857 -3.4426
17916TIP3   OH275238   1.433   5.274  14.877 -0.6977 -0.6332  0.3076
17916TIP3    H175239   1.368   5.208  14.900 -0.9401 -0.7512 -0.6721
17916TIP3    H275240   1.444   5.265  14.782  0.2966 -0.2048  0.3704
17917TIP3   OH275241   2.423   2.708   2.726  0.0028  0.1664 -0.3594
17917TIP3    H175242   2.346   2.765   2.722  2.6421  4.0162  0.8846
17917TIP3    H275243   2.412   2.659   2.808 -2.1607 -0.9921 -1.2928
17918TIP3   OH275244   4.959   6.351   4.977  0.0994 -0.2269  0.0690
17918TIP3    H175245   5.011   6.374   5.054 -1.3629  0.5513  0.8401
17918TIP3    H275246   4.955   6.256   4.979 -0.4607 -0.1810  1.3120
17919TIP3   OH275247   1.216   1.923   2.529 -0.3722  0.0565 -0.3638
17919TIP3    H175248   1.178   1.864   2.464 -1.2707  0.8485 -0.5594
17919TIP3    H275249   1.148   1.988   2.546  0.3187  0.5827  0.4414
17920TIP3   OH275250   1.017   0.717   1.699 -0.1943  0.2773 -0.6651
17920TIP3    H175251   0.939   0.663   1.707 -0.0902  0.3390  0.7815
17920TIP3    H275252   1.090   0.655   1.701 -0.1280  0.3680 -0.3567
17921TIP3   OH275253   0.764   0.698   4.744  0.5947 -0.1178 -0.2206
17921TIP3    H175254   0.705   0.676   4.816  0.5070  1.1659  0.1232
17921TIP3    H275255   0.759   0.624   4.684 -0.6014 -0.4558  0.2981
17922TIP3   OH275256   5.177   5.284   6.176 -0.1643 -0.1556  0.6970
17922TIP3    H175257   5.235   5.255   6.105 -3.1024  1.4508 -2.4901
17922TIP3    H275258   5.196   5.225   6.248  2.6286 -2.1454 -1.5681
17923TIP3   OH275259   3.931   3.944  16.221  0.0029 -0.3324  0.8208
17923TIP3    H175260   3.977   3.994  16.288  0.8342  0.0228 -0.0084
17923TIP3    H275261   3.846   3.987  16.213  0.2810  0.2349  0.9211
17924TIP3   OH275262   6.406   5.158   4.694 -0.2026  0.2024 -0.0980
17924TIP3    H175263   6.447   5.079   4.658 -0.8347  0.2161 -0.8611
17924TIP3    H275264   6.474   5.197   4.748  0.1407 -0.8330  0.2329
17925TIP3   OH275265   0.126   5.094   2.648 -0.5743  0.1093  0.6255
17925TIP3    H175266   0.033   5.071   2.653 -0.8408  0.7611 -0.9886
17925TIP3    H275267   0.167   5.018   2.608 -0.4940  0.0586  0.8018
17926TIP3   OH275268   3.109   1.502  15.987  0.4881 -0.2163  0.0701
17926TIP3    H175269   3.169   1.476  15.917 -0.5681 -0.4089 -0.7853
17926TIP3    H275270   3.144   1.585  16.020  0.7503  0.1011 -0.9918
17927TIP3   OH275271   4.825   5.602  14.588 -0.4710 -0.3221 -0.0181
17927TIP3    H175272   4.758   5.630  14.525  1.0087  0.5319 -1.2163
17927TIP3    H275273   4.839   5.509  14.567  1.5413  0.4738 -2.3863
17928TIP3   OH275274   0.433   1.120  12.822  0.0496 -0.1082  0.3873
17928TIP3    H175275   0.408   1.113  12.914 -0.7156  1.2790  0.2958
17928TIP3    H275276   0.452   1.213  12.808  0.9201 -0.4257 -0.6630
17929TIP3   OH275277   2.539   6.210  13.621 -0.0982  0.1128  0.7787
17929TIP3    H175278   2.472   6.240  13.682 -1.1644  0.4331 -0.5322
17929TIP3    H275279   2.498   6.138  13.573 -0.1930  1.4881 -1.3069
17930TIP3   OH275280   1.765   2.243   2.743 -0.4170  0.5196  0.0897
17930TIP3    H175281   1.795   2.299   2.814  2.2385  1.8083 -1.9702
17930TIP3    H275282   1.841   2.190   2.719 -1.6765 -0.9388 -0.8477
17931TIP3   OH275283   0.692   6.356  11.578 -0.0284  0.3338 -0.2904
17931TIP3    H175284   0.704   6.364  11.673 -0.6589 -0.7696 -0.0954
17931TIP3    H275285   0.680   6.262  11.564  2.1630  0.2376 -1.7387
17932TIP3   OH275286   1.693   5.092  13.533 -0.1692 -0.3148 -0.4667
17932TIP3    H175287   1.777   5.049  13.515 -1.0405 -1.3295 -2.2433
17932TIP3    H275288   1.648   5.033  13.593  0.8936  0.8635  1.5339
17933TIP3   OH275289   1.904   3.026  16.058  0.2665  0.2501  0.1592
17933TIP3    H175290   1.895   3.033  16.153  0.5499 -3.2268  0.5112
17933TIP3    H275291   1.998   3.016  16.044 -0.0772 -2.8763 -0.1431
17934TIP3   OH275292   1.440   3.825   3.429 -0.2183  0.7964 -0.0064
17934TIP3    H175293   1.461   3.916   3.446  0.2661  0.9650 -1.5054
17934TIP3    H275294   1.506   3.775   3.478  0.2252  1.2594 -0.1383
17935TIP3   OH275295   5.904   3.192  16.552 -0.0338 -0.1355 -0.2627
17935TIP3    H175296   5.999   3.190  16.568 -0.3442 -3.0084  1.6764
17935TIP3    H275297   5.865   3.175  16.638 -2.2045 -2.4925 -1.6352
17936TIP3   OH275298   2.726   6.785  13.652  0.2357  0.2020 -0.0672
17936TIP3    H175299   2.762   6.818  13.734  0.1782  0.0999  0.0002
17936TIP3    H275300   2.749   6.850  13.586  1.8562 -0.5842 -0.3045
17937TIP3   OH275301   4.081   3.030  14.677  0.1718  0.2210 -0.0769
17937TIP3    H175302   4.147   3.071  14.621  1.8401 -2.8670 -0.4559
17937TIP3    H275303   4.070   2.942  14.642 -0.6861 -0.9041  2.8721
17938TIP3   OH275304   0.759   2.761   5.295 -0.5113  0.8076  0.2494
17938TIP3    H175305   0.735   2.774   5.204 -1.4894  3.0257  0.7833
17938TIP3    H275306   0.713   2.831   5.342  1.3558  0.7684  2.2192
17939TIP3   OH275307   1.359   6.585   0.513  0.2645  0.1662 -0.8022
17939TIP3    H175308   1.441   6.629   0.534 -0.0759  1.0886 -1.3783
17939TIP3    H275309   1.379   6.492   0.518  0.2191  0.2953  3.6286
17940TIP3   OH275310   5.922   3.801  16.163  0.7731 -0.3502 -0.2831
17940TIP3    H175311   5.887   3.882  16.127  1.9501  0.0585 -0.5577
17940TIP3    H275312   5.936   3.821  16.256 -1.8073 -1.2474  0.3337
17941TIP3   OH275313   5.802   1.994  13.417 -0.2665 -0.0109 -0.4843
17941TIP3    H175314   5.897   1.991  13.405 -0.2007 -0.3883  0.0988
17941TIP3    H275315   5.789   2.062  13.483 -0.2633 -1.1232  0.6898
17942TIP3   OH275316   3.727   5.852   1.056 -0.5801  0.3152  0.1205
17942TIP3    H175317   3.682   5.920   1.006 -0.8941 -0.5635 -0.8108
17942TIP3    H275318   3.713   5.876   1.147 -0.8604  1.3886 -0.1983
17943TIP3   OH275319   5.416   5.312  12.850  0.1240 -0.0300 -0.4125
17943TIP3    H175320   5.415   5.216  12.847 -0.7242  0.0204 -1.9480
17943TIP3    H275321   5.360   5.339  12.778 -1.7173  1.6241  1.5685
17944TIP3   OH275322   2.401   3.874  13.517 -0.3199  0.0845  0.5799
17944TIP3    H175323   2.479   3.850  13.467 -0.4974  0.7306 -0.0125
17944TIP3    H275324   2.414   3.833  13.602  0.3501 -0.3814  0.2576
17945TIP3   OH275325   0.740   1.762  13.986  0.5317 -0.1752 -0.6149
17945TIP3    H175326   0.784   1.832  13.937 -0.0896 -0.8147 -2.1033
17945TIP3    H275327   0.808   1.696  14.000  0.5640 -0.2555 -1.1411
17946TIP3   OH275328   2.254   3.018   3.385 -0.3737 -0.2771 -0.5078
17946TIP3    H175329   2.185   3.003   3.450  1.3053  0.2671  1.4439
17946TIP3    H275330   2.238   2.952   3.318 -4.0040  1.1032 -1.1456
17947TIP3   OH275331   4.102   6.365   5.349  0.4478  0.1051  0.2208
17947TIP3    H175332   4.178   6.347   5.404 -0.6849 -1.5583  1.2965
17947TIP3    H275333   4.121   6.320   5.267  0.0276 -1.5480  0.9969
17948TIP3   OH275334   0.115   2.935  16.221  0.3114  0.1131 -0.3431
17948TIP3    H175335   0.096   2.864  16.160  0.3038 -0.6258  0.5199
17948TIP3    H275336   0.206   2.920  16.248  0.6506  1.0151 -0.9286
17949TIP3   OH275337   0.536   1.986   2.700  0.0178  0.0526  0.0733
17949TIP3    H175338   0.490   2.064   2.730  1.2479  0.4477  0.9467
17949TIP3    H275339   0.531   1.992   2.604 -0.4845  0.8330  0.1382
17950TIP3   OH275340   1.931   2.092  10.602 -0.0929 -0.5662  0.8675
17950TIP3    H175341   1.964   2.015  10.649  0.0038 -0.3787  1.1080
17950TIP3    H275342   1.885   2.056  10.527  0.4826 -0.8399  0.6448
17951TIP3   OH275343   2.362   1.777   4.843 -0.5093 -0.0872  0.0415
17951TIP3    H175344   2.390   1.692   4.876 -0.8794  0.2009  1.1156
17951TIP3    H275345   2.297   1.755   4.775 -1.7091 -0.6523  1.3328
17952TIP3   OH275346   3.424   1.273   4.161  0.2107  0.1553  0.4059
17952TIP3    H175347   3.412   1.178   4.165  0.3511  0.0729 -0.9800
17952TIP3    H275348   3.346   1.305   4.116  0.3605  0.6604  0.5059
17953TIP3   OH275349   1.800   4.884   1.982  0.1842  0.3764  0.1809
17953TIP3    H175350   1.822   4.865   2.073 -0.9510  0.4986  0.4985
17953TIP3    H275351   1.706   4.905   1.984 -0.0089 -0.2783 -1.1090
17954TIP3   OH275352   5.866   5.792   4.917 -0.4780  0.2481  0.0586
17954TIP3    H175353   5.842   5.703   4.945  1.4647 -0.3611 -0.1289
17954TIP3    H275354   5.933   5.778   4.850  0.3111  1.8585  0.4935
17955TIP3   OH275355   4.092   1.674  11.424  0.3044 -0.0741 -0.4648
17955TIP3    H175356   4.067   1.581  11.423 -0.7350  0.2024 -1.0314
17955TIP3    H275357   4.036   1.713  11.492  2.4508 -0.3048  1.5121
17956TIP3   OH275358   1.825   2.851   0.425 -0.3764  0.4093 -0.6444
17956TIP3    H175359   1.860   2.926   0.377 -0.7860  1.9403  1.3850
17956TIP3    H275360   1.763   2.889   0.488 -2.7523 -1.9020 -1.5033
17957TIP3   OH275361   0.893   6.120  16.313  0.7241 -0.2797  0.0673
17957TIP3    H175362   0.932   6.199  16.274 -0.7135  0.9409  1.0498
17957TIP3    H275363   0.806   6.115  16.274  0.4393 -0.8203  0.7649
17958TIP3   OH275364   0.767   0.272  11.425 -0.5380  0.7930  0.3545
17958TIP3    H175365   0.847   0.266  11.373 -1.5369  0.1493 -1.1427
17958TIP3    H275366   0.769   0.196  11.483 -0.2620  0.5536  0.0280
17959TIP3   OH275367   2.981   5.859   3.897 -0.2337  0.2948  0.1720
17959TIP3    H175368   3.014   5.845   3.808  1.2598  0.8428  0.6309
17959TIP3    H275369   2.892   5.891   3.884  0.3188  1.3682 -1.1565
17960TIP3   OH275370   5.805   2.964  12.875 -0.3559 -0.4957 -1.1829
17960TIP3    H175371   5.747   2.913  12.931 -0.4673 -0.6539 -1.4373
17960TIP3    H275372   5.890   2.963  12.919 -0.2840 -1.1516 -1.3313
17961TIP3   OH275373   2.011   2.623   0.083  0.0437 -0.1428  0.1685
17961TIP3    H175374   2.062   2.696   0.047  1.3401 -0.7872  0.6715
17961TIP3    H275375   2.047   2.609   0.170  0.1021 -1.6570 -0.0812
17962TIP3   OH275376   2.038   5.896  12.049  0.0332  0.3147 -0.6640
17962TIP3    H175377   2.126   5.863  12.030  0.6448  1.1639  0.6477
17962TIP3    H275378   2.011   5.847  12.126 -0.1687  0.8991 -0.3627
17963TIP3   OH275379   2.723   6.718   6.748  0.4610  0.0208  0.1915
17963TIP3    H175380   2.800   6.705   6.803  0.1353 -1.4806  0.3189
17963TIP3    H275381   2.724   6.811   6.727  1.2239  0.3994  1.8057
17964TIP3   OH275382   4.186   0.728  11.639  0.0895  0.3800 -0.2217
17964TIP3    H175383   4.153   0.794  11.699 -2.0457 -0.4712 -0.4378
17964TIP3    H275384   4.280   0.747  11.632 -0.2606  2.5671  0.7164
17965TIP3   OH275385   2.880   1.986   4.734  0.7008 -0.0967 -0.3111
17965TIP3    H175386   2.870   2.028   4.819  0.3145 -1.6017  0.4147
17965TIP3    H275387   2.969   2.007   4.706  0.7796  0.5096  0.4027
17966TIP3   OH275388   1.588   0.275   1.833 -0.4649  0.2360 -0.1268
17966TIP3    H175389   1.532   0.348   1.861  0.5717  0.7251  0.7097
17966TIP3    H275390   1.661   0.276   1.894 -1.3670 -2.6956  1.0860
17967TIP3   OH275391   0.633   2.087  14.175  0.0157  0.0552  0.2499
17967TIP3    H175392   0.541   2.079  14.150  0.6187 -3.4112 -1.1419
17967TIP3    H275393   0.645   2.021  14.243  1.1224  1.5537  1.5244
17968TIP3   OH275394   3.392   5.589  11.113  0.3363  0.8370  0.6146
17968TIP3    H175395   3.362   5.661  11.059 -0.7297  0.5714  0.8411
17968TIP3    H275396   3.329   5.519  11.098  1.1684  0.0666  0.6533
17969TIP3   OH275397   3.372   3.960  15.297 -0.0506 -0.6341 -0.4625
17969TIP3    H175398   3.464   3.981  15.311 -0.5992  0.4559  1.7956
17969TIP3    H275399   3.341   4.026  15.236 -0.0270  0.8116  1.0545
17970TIP3   OH275400   0.230   1.728   5.813  0.5862 -0.1139 -0.0145
17970TIP3    H175401   0.195   1.647   5.777  3.2650 -1.8732  1.1483
17970TIP3    H275402   0.191   1.735   5.900  1.5460 -0.9993  0.4936
17971TIP3   OH275403   3.169   0.716   4.271 -0.8638 -0.2843 -0.4769
17971TIP3    H175404   3.105   0.696   4.339  0.6766  0.9817  1.4103
17971TIP3    H275405   3.124   0.777   4.212 -1.6163  0.1082  0.4926
17972TIP3   OH275406   2.654   2.868  11.061  0.1181  0.3890  0.1085
17972TIP3    H175407   2.640   2.863  10.966  0.1540  0.9356  0.0696
17972TIP3    H275408   2.736   2.822  11.076 -0.5798 -0.8904  0.0467
17973TIP3   OH275409   4.601   1.222  14.876  0.1861  0.2546  0.0944
17973TIP3    H175410   4.581   1.302  14.926  0.4464  1.3636 -1.5537
17973TIP3    H275411   4.686   1.239  14.836  0.3600 -0.9650 -0.0860
17974TIP3   OH275412   2.219   4.163   0.067 -0.0057 -0.3469 -0.2612
17974TIP3    H175413   2.262   4.240   0.032 -1.0403 -0.2279 -1.2848
17974TIP3    H275414   2.186   4.190   0.153  0.1487  0.1627 -0.3661
17975TIP3   OH275415   4.679   5.322  17.285 -0.7146 -0.5899 -0.2099
17975TIP3    H175416   4.592   5.347  17.315 -0.2816  0.0217  0.5513
17975TIP3    H275417   4.664   5.275  17.203 -1.7953 -0.9683  0.2002
17976TIP3   OH275418   5.953   4.462   3.074  0.0572 -0.0896 -0.8907
17976TIP3    H175419   5.948   4.528   3.005  1.4113  0.2025 -0.7215
17976TIP3    H275420   6.032   4.484   3.123  0.3524 -1.6366 -0.6290
17977TIP3   OH275421   4.029   4.232  16.260 -0.2365 -0.7741 -0.4664
17977TIP3    H175422   4.123   4.248  16.251 -0.4808  0.8130 -0.3636
17977TIP3    H275423   4.017   4.207  16.352 -0.1220  0.5679 -0.0790
17978TIP3   OH275424   5.209   1.621   0.246  0.0585  0.3192 -0.1693
17978TIP3    H175425   5.121   1.588   0.229  0.5346 -0.1076 -1.9067
17978TIP3    H275426   5.229   1.676   0.170  1.0071  1.0030  0.5627
17979TIP3   OH275427   6.765   1.222  12.452 -0.7220  0.1254 -0.1172
17979TIP3    H175428   6.840   1.234  12.393  0.5555 -0.3090  1.3940
17979TIP3    H275429   6.751   1.128  12.454 -1.0854  0.1779 -0.0957
17980TIP3   OH275430   2.144   0.081  14.687 -0.2281 -0.4440  0.2957
17980TIP3    H175431   2.204   0.154  14.670 -1.1060 -0.2054 -1.9036
17980TIP3    H275432   2.185   0.005  14.645  0.2526 -1.0526  1.8307
17981TIP3   OH275433   4.225   1.410   4.578 -0.2859  0.2287 -0.2767
17981TIP3    H175434   4.177   1.462   4.643  0.5643  1.1357 -0.3536
17981TIP3    H275435   4.217   1.320   4.608 -1.8994  0.3881 -0.2110
17982TIP3   OH275436   6.664   6.198  17.281  0.2056 -0.3675 -0.2506
17982TIP3    H175437   6.668   6.283  17.326 -1.8735 -0.3912  0.0375
17982TIP3    H275438   6.695   6.217  17.192 -0.5512  0.7692 -0.2769
17983TIP3   OH275439   1.280   1.857   5.484 -0.5064  0.0499  0.1503
17983TIP3    H175440   1.294   1.847   5.390 -0.2129 -1.4363  0.3344
17983TIP3    H275441   1.221   1.931   5.492  0.9201  1.3632 -1.0957
17984TIP3   OH275442   0.061   1.697   3.893 -1.0907  0.0884  0.8870
17984TIP3    H175443   0.124   1.769   3.896 -1.2478  0.3012 -0.6483
17984TIP3    H275444  -0.021   1.737   3.865 -0.9790 -0.8139 -0.7711
17985TIP3   OH275445   5.236   5.255  15.134 -0.6173 -0.0563 -0.1218
17985TIP3    H175446   5.290   5.251  15.055 -1.7646 -0.5396 -0.8936
17985TIP3    H275447   5.156   5.300  15.107 -0.5467  0.8237  1.0574
17986TIP3   OH275448   6.648   5.165  11.032 -0.2546  0.3151  0.6953
17986TIP3    H175449   6.600   5.247  11.043  1.6125  1.0035  5.0582
17986TIP3    H275450   6.580   5.099  11.019 -2.0198  2.0575  0.8027
17987TIP3   OH275451   3.313   3.287  11.498 -0.6729 -0.3132  0.2554
17987TIP3    H175452   3.339   3.329  11.416 -1.4234  1.6408  1.0147
17987TIP3    H275453   3.284   3.199  11.471 -1.7545  0.6067 -1.6815
17988TIP3   OH275454   5.979   3.185   3.054 -0.1813  0.8728  0.5026
17988TIP3    H175455   5.895   3.230   3.044 -0.3058  0.7539  1.0036
17988TIP3    H275456   5.969   3.133   3.133 -0.7830 -1.6429 -1.1520
17989TIP3   OH275457   6.797   5.681   5.156 -0.6969 -0.0398 -0.2238
17989TIP3    H175458   6.758   5.639   5.232  1.5690 -0.3387  0.8212
17989TIP3    H275459   6.810   5.609   5.093  1.2651 -0.5685  0.7539
17990TIP3   OH275460   2.350   2.294  11.233 -0.5313  0.2829  0.0010
17990TIP3    H175461   2.366   2.206  11.267  1.0488  1.2487  1.8897
17990TIP3    H275462   2.256   2.309  11.250 -0.8059 -1.0362 -0.3376
17991TIP3   OH275463   4.826   1.272   0.094  0.2690  0.0151 -0.1352
17991TIP3    H175464   4.763   1.303   0.158  2.3400  1.2808  1.3564
17991TIP3    H275465   4.789   1.296   0.009 -2.4563 -1.5847  0.5535
17992TIP3   OH275466   6.181   5.613   5.378 -0.2585 -0.3158 -0.1588
17992TIP3    H175467   6.107   5.583   5.325 -0.8493  1.5144 -0.4224
17992TIP3    H275468   6.245   5.645   5.314 -0.6689  1.2304  0.1774
17993TIP3   OH275469   6.394   3.216   3.328  0.7938  0.1685  0.2298
17993TIP3    H175470   6.423   3.125   3.327  1.3495  0.3453 -2.0894
17993TIP3    H275471   6.298   3.211   3.323  0.8309 -0.2913 -0.0624
17994TIP3   OH275472   3.823   4.626   0.506 -0.1084 -0.3380 -0.1715
17994TIP3    H175473   3.758   4.634   0.576  2.5959 -0.4561  2.4745
17994TIP3    H275474   3.868   4.544   0.525  0.2642 -0.6884 -2.4521
17995TIP3   OH275475   4.350   2.550  15.265 -0.0097 -0.2554  0.3497
17995TIP3    H175476   4.434   2.533  15.307  0.5037 -0.9307 -0.9342
17995TIP3    H275477   4.366   2.626  15.209  0.2746 -1.6115 -1.4207
17996TIP3   OH275478   6.192   0.534   1.313 -0.0242 -0.0124  0.2636
17996TIP3    H175479   6.189   0.624   1.345 -2.6817 -0.2443  0.7630
17996TIP3    H275480   6.184   0.480   1.392 -0.3523 -0.6599 -0.2044
17997TIP3   OH275481   5.051   4.426   1.080 -0.3233  0.6448  0.6813
17997TIP3    H175482   5.083   4.341   1.108 -1.2466 -0.2542 -0.8979
17997TIP3    H275483   4.969   4.438   1.127 -0.3831  0.4869  0.6170
17998TIP3   OH275484   0.521   0.694  13.413 -0.0892  0.7348 -0.4380
17998TIP3    H175485   0.453   0.646  13.366  1.9732 -1.6180 -1.1181
17998TIP3    H275486   0.582   0.724  13.346  1.1336  0.2127  0.4066
17999TIP3   OH275487   5.747   1.950   1.497  0.0175 -0.0741  0.5318
17999TIP3    H175488   5.748   2.017   1.565  1.1212  1.7533 -1.2161
17999TIP3    H275489   5.794   1.990   1.424 -1.1045 -1.9905 -1.2880
18000TIP3   OH275490   0.724   4.157   0.742  0.0883 -0.1686  0.0110
18000TIP3    H175491   0.700   4.204   0.662  1.4894 -0.0223 -0.3307
18000TIP3    H275492   0.764   4.224   0.798  2.9989 -1.0968 -0.8673
18001TIP3   OH275493   3.188   6.423  16.742 -0.0100  0.3509 -0.5408
18001TIP3    H175494   3.280   6.445  16.730  1.0400 -2.7861  1.0851
18001TIP3    H275495   3.180   6.404  16.835 -2.1049 -0.2244 -0.8050
18002TIP3   OH275496   6.242   2.064  13.193 -0.1131  0.2094  0.4718
18002TIP3    H175497   6.185   2.097  13.123 -0.0230 -0.1478  0.2323
18002TIP3    H275498   6.198   1.986  13.226  1.4174 -1.4994 -1.3597
18003TIP3   OH275499   4.556   4.260  10.734 -0.3584 -0.0579 -0.2262
18003TIP3    H175500   4.545   4.222  10.821 -3.0042 -1.9988 -1.3787
18003TIP3    H275501   4.536   4.353  10.747  1.8423  0.2207  1.7031
18004TIP3   OH275502   1.477   4.881  15.356 -0.7347  0.4462  0.0995
18004TIP3    H175503   1.480   4.830  15.275 -1.0313 -1.0377  1.0092
18004TIP3    H275504   1.518   4.965  15.333 -1.2716  0.2321 -1.7125
18005TIP3   OH275505   1.370   2.529  14.273 -0.3944  0.3752  0.3398
18005TIP3    H175506   1.307   2.471  14.229 -1.8122  3.6504 -2.0944
18005TIP3    H275507   1.445   2.532  14.214 -0.7094  1.7210 -0.0067
18006TIP3   OH275508   5.211   4.416  15.915  0.3441 -0.3023 -0.2817
18006TIP3    H175509   5.216   4.487  15.850  2.5085 -0.1594 -0.0031
18006TIP3    H275510   5.217   4.460  15.999  3.8763 -0.9302 -0.1455
18007TIP3   OH275511   3.883   5.028  16.136  0.2546 -0.0673 -0.3861
18007TIP3    H175512   3.925   5.102  16.092  0.3979 -0.5908 -1.1506
18007TIP3    H275513   3.944   4.956  16.124  1.0003  0.1390  1.9994
18008TIP3   OH275514   1.354   2.100  13.919 -0.2975 -0.1325 -0.6746
18008TIP3    H175515   1.325   2.023  13.968 -0.9090  0.3178 -0.3252
18008TIP3    H275516   1.450   2.096  13.924 -0.2961 -1.3769 -1.4615
18009TIP3   OH275517   4.147   0.735  12.613 -0.3103  0.6144 -0.0843
18009TIP3    H175518   4.126   0.751  12.705  1.8021 -0.1308  0.5526
18009TIP3    H275519   4.127   0.642  12.600  1.3765  0.2032  0.1980
18010TIP3   OH275520   3.594   6.284   2.343  0.6051 -0.2212 -0.4261
18010TIP3    H175521   3.537   6.352   2.377  1.9983  0.3057  0.8897
18010TIP3    H275522   3.683   6.315   2.361  1.4212 -0.0160 -4.3400
18011TIP3   OH275523   5.840   5.611   0.803 -0.1436  0.1099  0.1150
18011TIP3    H175524   5.898   5.669   0.754 -0.0617 -0.4967 -0.5132
18011TIP3    H275525   5.767   5.668   0.829  0.9452  0.9768  1.3021
18012TIP3   OH275526   2.286   4.339  16.267  0.0974  0.1257  0.1615
18012TIP3    H175527   2.295   4.434  16.256  2.6054  0.0784  1.4309
18012TIP3    H275528   2.266   4.328  16.360  0.5688 -0.5973  0.1852
18013TIP3   OH275529   1.888   0.389   1.252 -0.5014  0.0370  0.3995
18013TIP3    H175530   1.925   0.318   1.197 -0.0644 -0.2939  1.1113
18013TIP3    H275531   1.794   0.383   1.238 -0.4478 -0.5165  0.2466
18014TIP3   OH275532   5.501   0.729  10.917  0.7026  0.6875 -0.2087
18014TIP3    H175533   5.597   0.721  10.915  0.7577  1.1149  0.3460
18014TIP3    H275534   5.481   0.799  10.855  0.8660  1.4820  0.6119
18015TIP3   OH275535   3.480   1.908   3.413  0.2930  0.0331 -1.1489
18015TIP3    H175536   3.398   1.858   3.414  0.3489 -0.0471 -0.3088
18015TIP3    H275537   3.508   1.906   3.321  1.9691 -4.2111 -0.6728
18016TIP3   OH275538   4.828   4.157  11.181 -0.1767 -0.2089 -0.2787
18016TIP3    H175539   4.848   4.093  11.113 -1.2277  0.3362 -1.1272
18016TIP3    H275540   4.734   4.146  11.197  0.2889 -1.0790  1.8774
18017TIP3   OH275541   0.402   3.038   1.592  0.5568 -0.0356  0.2291
18017TIP3    H175542   0.401   2.943   1.603 -0.0662 -0.2395 -1.4488
18017TIP3    H275543   0.329   3.070   1.645 -0.1234 -0.6299 -0.3446
18018TIP3   OH275544   0.604   1.751   5.228 -0.2015 -0.1343 -0.5717
18018TIP3    H175545   0.631   1.839   5.256  0.0797 -0.3228 -0.2399
18018TIP3    H275546   0.526   1.766   5.175 -0.0989  0.3257 -0.6000
18019TIP3   OH275547   3.842   2.659  17.124  0.5449  0.1071  0.2571
18019TIP3    H175548   3.831   2.574  17.079 -0.8996 -0.1888  1.1508
18019TIP3    H275549   3.825   2.724  17.055 -1.4743 -0.3453  0.2889
18020TIP3   OH275550   3.605   1.600   0.232 -0.0990 -0.3271  0.4760
18020TIP3    H175551   3.689   1.643   0.246  0.0925 -0.8890  1.1038
18020TIP3    H275552   3.613   1.557   0.147  0.0052  0.1768  0.2312
18021TIP3   OH275553   2.416   0.602  14.438 -0.3815 -0.2935  0.0621
18021TIP3    H175554   2.412   0.698  14.436  0.8008 -0.2422 -2.8317
18021TIP3    H275555   2.450   0.581  14.525 -0.9159  1.8874  0.8293
18022TIP3   OH275556   0.689   1.725   0.860  0.2978 -0.5326  0.0196
18022TIP3    H175557   0.730   1.731   0.946 -0.4310 -1.3539  0.4222
18022TIP3    H275558   0.702   1.812   0.822  1.0663 -0.3158  0.7493
18023TIP3   OH275559   6.472   0.972  14.674  0.0390 -0.0137 -0.0790
18023TIP3    H175560   6.448   0.960  14.766 -1.2131 -0.1349 -0.4176
18023TIP3    H275561   6.540   0.906  14.659  0.9017  0.6106  0.9909
18024TIP3   OH275562   1.220   4.409  13.568 -0.0021 -0.1106 -0.1760
18024TIP3    H175563   1.134   4.439  13.597 -0.5113 -0.5164 -1.2637
18024TIP3    H275564   1.262   4.488  13.533  0.1390  0.1173  0.4840
18025TIP3   OH275565   0.610   4.553  13.701 -0.8478  0.4946 -0.0968
18025TIP3    H175566   0.693   4.597  13.719 -0.6828 -0.8099  2.5575
18025TIP3    H275567   0.635   4.462  13.682 -1.6391  0.1637  0.4248
18026TIP3   OH275568   6.443   6.296   1.975 -0.3121 -0.0087 -0.2683
18026TIP3    H175569   6.483   6.381   1.958 -0.7510  0.3946  0.6387
18026TIP3    H275570   6.368   6.293   1.916 -0.0873  0.0813 -0.5583
18027TIP3   OH275571   3.372   1.741  13.697  0.3036  0.5726 -0.4876
18027TIP3    H175572   3.316   1.818  13.691  1.0728  1.1685 -0.1259
18027TIP3    H275573   3.452   1.766  13.652  1.0219  0.4170  0.6964
18028TIP3   OH275574   2.121   0.891   0.427 -0.2574  0.3330 -0.4360
18028TIP3    H175575   2.193   0.906   0.365  0.6595 -1.0686  0.2632
18028TIP3    H275576   2.139   0.951   0.499 -0.9999  1.5418 -1.2390
18029TIP3   OH275577   2.151   2.507   0.308 -0.2786 -0.3117  0.7199
18029TIP3    H175578   2.136   2.579   0.369  0.5715  0.9865 -0.5570
18029TIP3    H275579   2.210   2.447   0.354 -0.3843  0.1899  1.5053
18030TIP3   OH275580   0.790   0.896  12.818 -0.2458 -0.9147  0.1470
18030TIP3    H175581   0.821   0.822  12.871  1.5858 -0.7591 -0.6600
18030TIP3    H275582   0.790   0.862  12.729 -1.1597 -0.4884 -0.0141
18031TIP3   OH275583   6.600   5.842  12.400  0.4092  0.1443  0.2118
18031TIP3    H175584   6.612   5.748  12.387 -1.0389  0.2219 -1.8630
18031TIP3    H275585   6.615   5.881  12.314 -0.3033  1.6740  0.7491
18032TIP3   OH275586   2.137   5.903   0.464 -0.4479 -0.1314 -0.5523
18032TIP3    H175587   2.152   5.930   0.555 -0.8403  0.1965 -0.5846
18032TIP3    H275588   2.221   5.866   0.436 -1.0324 -2.6251  0.7718
18033TIP3   OH275589   6.088   2.748  12.794  0.0423 -0.3538  0.4386
18033TIP3    H175590   6.102   2.653  12.790 -0.6684 -0.3772 -2.1971
18033TIP3    H275591   6.151   2.779  12.859  0.7728 -2.5389  0.8127
18034TIP3   OH275592   0.687   2.346  16.480 -0.5643  0.1808  0.0002
18034TIP3    H175593   0.773   2.385  16.462  0.1175 -1.1905  0.2305
18034TIP3    H275594   0.639   2.415  16.527  0.6525  0.7015  0.5004
18035TIP3   OH275595   5.806   5.540  11.465 -0.2008 -0.1643  0.5427
18035TIP3    H175596   5.753   5.556  11.543 -0.9517  0.1723 -0.0280
18035TIP3    H275597   5.891   5.511  11.499 -0.4826  0.0962  1.4813
18036TIP3   OH275598   4.766   4.473  13.437 -0.6481  0.3810 -0.2338
18036TIP3    H175599   4.780   4.567  13.426 -0.5028  0.3362 -0.4375
18036TIP3    H275600   4.740   4.463  13.528  1.3862  0.3810  0.3599
18037TIP3   OH275601   4.332   0.841  17.091 -0.2155  0.3740  0.3168
18037TIP3    H175602   4.408   0.787  17.114 -0.7494 -0.4978  0.0418
18037TIP3    H275603   4.352   0.874  17.003  0.0810  0.5851  0.4614
18038TIP3   OH275604   3.740   0.519   4.947 -0.6518  0.1003 -0.3843
18038TIP3    H175605   3.734   0.437   4.897 -2.0499 -0.5676  0.8460
18038TIP3    H275606   3.819   0.561   4.913  0.2437 -1.8757 -0.8626
18039TIP3   OH275607   0.092   3.829  15.924 -0.4112 -0.0415  0.3198
18039TIP3    H175608   0.078   3.863  16.012 -1.0059  1.1727 -0.2171
18039TIP3    H275609   0.133   3.744  15.936 -0.1541  0.2837  1.7536
18040TIP3   OH275610   6.010   6.339  14.140 -0.3671  0.1667 -0.0309
18040TIP3    H175611   5.993   6.430  14.163  1.0767  0.7761 -1.2713
18040TIP3    H275612   6.102   6.326  14.162 -0.4940 -0.9157 -0.1204
18041TIP3   OH275613   4.740   5.969  13.408 -0.6511  0.3013 -0.3657
18041TIP3    H175614   4.652   5.932  13.405 -0.3198 -0.5854  0.8475
18041TIP3    H275615   4.727   6.061  13.382 -1.9219  0.1751 -0.2317
18042TIP3   OH275616   5.808   1.034   0.030 -0.1575  0.2181 -0.3786
18042TIP3    H175617   5.825   0.941   0.012 -1.0606  0.0832 -0.5538
18042TIP3    H275618   5.833   1.079  -0.051  0.4384  0.1457 -0.2372
18043TIP3   OH275619   5.482   3.763  15.864  0.3636 -0.2025  0.4993
18043TIP3    H175620   5.569   3.805  15.864  0.7579 -1.0224 -0.2136
18043TIP3    H275621   5.458   3.756  15.772 -1.6102  2.3570  0.7624
18044TIP3   OH275622   2.337   5.773  14.849 -0.0066 -0.2354 -0.3428
18044TIP3    H175623   2.330   5.867  14.868 -1.3214  0.0008 -1.8982
18044TIP3    H275624   2.407   5.767  14.785 -0.7541 -0.1585 -1.1816
18045TIP3   OH275625   1.305   0.939  11.549  0.2359  0.3783 -0.2725
18045TIP3    H175626   1.265   1.026  11.553 -0.3064  0.1613 -1.0351
18045TIP3    H275627   1.327   0.926  11.457  2.4856  0.6735  0.1783
18046TIP3   OH275628   1.399   4.931  12.407 -0.2780 -0.1826  0.1245
18046TIP3    H175629   1.317   4.977  12.425 -0.3223 -0.2099 -0.0020
18046TIP3    H275630   1.447   4.990  12.348 -1.0129 -0.9719 -1.3149
18047TIP3   OH275631   2.705   3.805  13.897  0.8824 -0.1694  0.0712
18047TIP3    H175632   2.763   3.837  13.828  0.4282  1.3066  0.3690
18047TIP3    H275633   2.735   3.715  13.913  2.1098  0.0629 -0.8265
18048TIP3   OH275634   4.772   3.128   1.877 -0.4770  0.2448 -0.7256
18048TIP3    H175635   4.733   3.152   1.793 -0.8879 -1.0727 -0.9291
18048TIP3    H275636   4.702   3.083   1.924  0.0860 -0.0244 -0.1287
18049TIP3   OH275637   2.747   1.349   5.591 -0.4475 -0.0803  0.3604
18049TIP3    H175638   2.774   1.265   5.555  3.0364  0.9986  0.3287
18049TIP3    H275639   2.730   1.331   5.683  0.6015 -0.7772  0.4239
18050TIP3   OH275640   4.960   4.339  13.798  0.3181 -0.5071 -0.3819
18050TIP3    H175641   4.899   4.294  13.856 -0.3471  0.2574 -0.4856
18050TIP3    H275642   4.909   4.410  13.759  0.6670 -1.2124 -2.1760
18051TIP3   OH275643   3.421   1.479   4.341 -0.4610 -0.4168  0.1308
18051TIP3    H175644   3.449   1.398   4.298  0.0453  0.3184 -0.9588
18051TIP3    H275645   3.492   1.500   4.402  0.4361  0.3188 -1.1177
18052TIP3   OH275646   6.101   4.860  16.321 -0.1804 -0.5014  0.1132
18052TIP3    H175647   6.132   4.851  16.411 -1.4291  1.6226  0.7898
18052TIP3    H275648   6.181   4.868  16.269  0.5244 -0.4838  1.1846
18053TIP3   OH275649   5.891   2.490  12.783 -0.4339 -0.2043  0.4014
18053TIP3    H175650   5.860   2.570  12.741  2.2741  0.9247  0.4805
18053TIP3    H275651   5.851   2.492  12.870 -0.2113  1.1662  0.4809
18054TIP3   OH275652   0.365   3.590  12.388 -0.1532  0.0919  0.0691
18054TIP3    H175653   0.331   3.678  12.400  0.4834  0.3120  0.2523
18054TIP3    H275654   0.287   3.535  12.379 -0.5429  0.6996 -0.2586
18055TIP3   OH275655   5.910   5.132  16.856  0.1336 -0.1331  1.1043
18055TIP3    H175656   6.000   5.164  16.855  0.3136 -0.6393  1.3863
18055TIP3    H275657   5.857   5.210  16.836  0.6745  0.0088  0.1726
18056TIP3   OH275658   6.297   0.090  13.038 -0.0338 -0.4479 -0.2188
18056TIP3    H175659   6.230   0.133  12.986 -1.6577 -1.0541  1.3051
18056TIP3    H275660   6.329   0.018  12.984 -1.7639 -1.1294 -0.3390
18057TIP3   OH275661   2.183   6.172   5.391 -0.1914 -0.3139  0.2052
18057TIP3    H175662   2.113   6.220   5.434 -0.4709 -1.3935  0.9659
18057TIP3    H275663   2.167   6.080   5.413  1.9385 -0.5089  1.1234
18058TIP3   OH275664   5.084   1.196  14.474  0.5353  0.0729 -0.2536
18058TIP3    H175665   5.047   1.280  14.499  1.0405  0.1699  0.1741
18058TIP3    H275666   5.030   1.131  14.518  0.1509  0.1730 -0.5765
18059TIP3   OH275667   3.145   6.183  15.849  0.2199 -0.0732  1.1846
18059TIP3    H175668   3.088   6.235  15.905  1.3992  0.4147  1.9450
18059TIP3    H275669   3.229   6.229  15.851  0.0798  0.3950 -1.5875
18060TIP3   OH275670   6.364   5.579  13.020  0.2004 -0.3774 -0.0307
18060TIP3    H175671   6.302   5.645  13.051  1.7220  0.5200  1.1209
18060TIP3    H275672   6.384   5.606  12.930  2.0720  1.6925  0.9725
18061TIP3   OH275673   4.005   4.418  11.726 -0.3566 -0.0272 -0.4424
18061TIP3    H175674   3.913   4.395  11.721 -0.5026  0.7477 -1.5010
18061TIP3    H275675   4.007   4.498  11.777 -0.2446 -0.1901 -0.1918
18062TIP3   OH275676   5.046   6.665   6.025  0.0028 -0.5755 -0.9038
18062TIP3    H175677   5.132   6.694   6.057 -0.3811  0.4319 -0.7834
18062TIP3    H275678   4.994   6.653   6.104 -0.7351  1.2506 -1.0765
18063TIP3   OH275679   3.752   6.134   4.155 -0.3665 -0.1277 -0.2455
18063TIP3    H175680   3.811   6.142   4.080  3.4176  1.1512  2.6971
18063TIP3    H275681   3.752   6.221   4.195 -1.8266 -0.9237  1.5735
18064TIP3   OH275682   0.212   2.258  13.182 -0.0734  0.0753 -0.2135
18064TIP3    H175683   0.190   2.169  13.209  0.2053 -0.2433 -1.0436
18064TIP3    H275684   0.276   2.248  13.112  0.6639  0.9473  0.3065
18065TIP3   OH275685   3.044   1.905  12.857  0.1750 -0.2653 -0.4164
18065TIP3    H175686   3.094   1.826  12.836 -0.5120 -0.5837 -0.8965
18065TIP3    H275687   3.065   1.924  12.948 -1.5420 -2.4149  0.4593
18066TIP3   OH275688   4.020   1.955   3.285  0.1520  0.2845  0.4888
18066TIP3    H175689   3.930   1.953   3.317  0.2942  0.7075  0.9120
18066TIP3    H275690   4.072   1.979   3.361  0.2882  3.2629 -0.4820
18067TIP3   OH275691   3.081   0.786   6.345  0.5424  0.0045 -0.0115
18067TIP3    H175692   3.000   0.737   6.328  0.5993 -0.4556  1.0200
18067TIP3    H275693   3.115   0.748   6.426  1.3237  0.8078  0.0380
18068TIP3   OH275694   2.162   2.391   2.632  0.0979  0.5993 -0.3003
18068TIP3    H175695   2.255   2.408   2.624  0.0688  1.8448  1.5197
18068TIP3    H275696   2.126   2.471   2.670 -1.7533  0.2382 -1.2326
18069TIP3   OH275697   1.121   1.556   0.742  0.0576 -0.1042 -0.1059
18069TIP3    H175698   1.051   1.534   0.680  0.3905  0.5516 -0.7405
18069TIP3    H275699   1.106   1.501   0.818 -1.0363 -0.1072 -0.3219
18070TIP3   OH275700   6.346   1.820  11.113 -0.4411 -0.2642 -0.5511
18070TIP3    H175701   6.389   1.767  11.047  0.5767  0.6820 -0.6701
18070TIP3    H275702   6.332   1.905  11.071 -0.6033  0.0626  0.1457
18071TIP3   OH275703   5.272   2.805  16.501  0.2289  0.2867 -0.1625
18071TIP3    H175704   5.348   2.766  16.457 -0.3650 -0.1728 -0.7881
18071TIP3    H275705   5.290   2.793  16.594 -0.5881 -2.7912 -0.3432
18072TIP3   OH275706   4.342   6.677  17.102  0.2321 -0.6063 -0.2584
18072TIP3    H175707   4.259   6.699  17.060  0.6600  2.8737  0.5740
18072TIP3    H275708   4.319   6.664  17.194  0.7129  1.2495  0.1384
18073TIP3   OH275709   5.169   0.269  16.709  0.0430 -0.2690 -0.0365
18073TIP3    H175710   5.260   0.256  16.736  0.3561 -0.1031 -0.9993
18073TIP3    H275711   5.139   0.344  16.759  0.4869 -0.2182  0.1527
18074TIP3   OH275712   3.157   1.083   3.462  0.4487  0.4625  0.5216
18074TIP3    H175713   3.210   1.077   3.541  1.2755 -1.7859 -0.1507
18074TIP3    H275714   3.218   1.108   3.393  0.4078 -0.9139 -0.0246
18075TIP3   OH275715   5.738   3.712  17.237  0.0819 -0.4865  0.3789
18075TIP3    H175716   5.711   3.770  17.308  2.1230  1.7120 -0.5638
18075TIP3    H275717   5.758   3.629  17.280 -4.5982 -1.1917  1.5455
18076TIP3   OH275718   6.282   3.734   2.091 -0.7708 -0.2465  0.3621
18076TIP3    H175719   6.189   3.727   2.068 -1.1250  1.5570  1.1609
18076TIP3    H275720   6.291   3.676   2.167 -1.5360  0.5332  1.0613
18077TIP3   OH275721   0.150   0.329  13.224  0.3081 -0.3408 -0.6927
18077TIP3    H175722   0.136   0.249  13.172  1.4605  0.2343 -1.8911
18077TIP3    H275723   0.245   0.335  13.235  0.0847 -0.4609  1.5148
18078TIP3   OH275724   2.248   3.238   5.245  0.4387 -0.1918 -0.3586
18078TIP3    H175725   2.195   3.164   5.277 -0.3576  0.6533  0.3001
18078TIP3    H275726   2.184   3.299   5.210  1.1579 -0.1267 -1.5633
18079TIP3   OH275727   2.120   3.582   6.171  0.3833 -0.3389  0.5299
18079TIP3    H175728   2.211   3.556   6.155  0.3840 -0.7178  1.1145
18079TIP3    H275729   2.068   3.522   6.117  0.4145 -1.1585  1.3953
18080TIP3   OH275730   5.610   2.233  17.212  0.0523  0.0718 -0.2154
18080TIP3    H175731   5.562   2.188  17.281 -0.0642  3.3977  1.9938
18080TIP3    H275732   5.692   2.184  17.204 -0.6276 -1.3175  1.1413
18081TIP3   OH275733   1.289   0.571   5.296  0.3405 -0.0233  0.1935
18081TIP3    H175734   1.207   0.571   5.247  0.0026 -0.7586  0.7473
18081TIP3    H275735   1.357   0.581   5.230 -0.1755  0.2113 -0.3040
18082TIP3   OH275736   3.314   1.960  12.256  0.1062 -0.1508  0.1291
18082TIP3    H175737   3.381   2.027  12.272 -0.4869  0.1999  1.1685
18082TIP3    H275738   3.245   2.007  12.209  0.0175 -0.2153  0.1954
18083TIP3   OH275739   1.804   4.419   0.626  0.7182 -0.2525  0.2282
18083TIP3    H175740   1.830   4.366   0.551  0.4186  0.1371 -0.1574
18083TIP3    H275741   1.782   4.504   0.588 -0.6522 -0.4309  0.5957
18084TIP3   OH275742   0.977   3.076  11.872  0.0712 -0.0709  0.1967
18084TIP3    H175743   1.042   3.145  11.888 -1.2992  0.7715  2.3605
18084TIP3    H275744   0.893   3.119  11.886 -0.9296 -1.5077 -1.1782
18085TIP3   OH275745   4.299   1.375   0.697  0.0890  0.5512 -0.0733
18085TIP3    H175746   4.392   1.357   0.685 -0.0679 -0.1330 -0.2828
18085TIP3    H275747   4.289   1.468   0.675 -0.0077 -0.3566 -4.1375
18086TIP3   OH275748   6.104   1.352   4.046 -0.0795 -0.5895 -0.1225
18086TIP3    H175749   6.128   1.377   4.136  0.1383 -0.0500 -0.3321
18086TIP3    H275750   6.067   1.431   4.008  0.4575 -0.6232 -0.7290
18087TIP3   OH275751   5.840   2.962  17.267  0.1282 -0.2245  0.4893
18087TIP3    H175752   5.781   2.898  17.226  1.0717 -0.2188 -0.9075
18087TIP3    H275753   5.893   2.910  17.327 -0.0694 -0.5198  0.4121
18088TIP3   OH275754   2.246   3.121  16.101 -0.0959 -0.3480  0.6040
18088TIP3    H175755   2.217   3.135  16.011  1.0450  1.7257  0.5260
18088TIP3    H275756   2.334   3.084  16.093  0.4036  0.7552  0.8422
18089TIP3   OH275757   1.974   3.024   2.877  0.0458  0.5345 -0.2667
18089TIP3    H175758   1.971   3.117   2.857 -0.4613  0.6628  0.4030
18089TIP3    H275759   1.896   3.008   2.930  1.7051  0.3303  2.2167
18090TIP3   OH275760   4.110   2.177  16.814  0.0255 -0.5142 -0.1296
18090TIP3    H175761   4.116   2.131  16.898  0.2781  1.8344  1.1747
18090TIP3    H275762   4.057   2.119  16.759 -0.3491 -1.9755  1.7224
18091TIP3   OH275763   5.359   1.830  16.250  0.1886  0.0427 -0.0729
18091TIP3    H175764   5.296   1.902  16.256  0.6105  0.4227 -0.2124
18091TIP3    H275765   5.311   1.753  16.283 -0.0294  0.5303  0.7566
18092TIP3   OH275766   5.700   0.612   0.955  0.0288 -0.7560 -0.2221
18092TIP3    H175767   5.793   0.598   0.975 -0.4271 -1.6184  1.4462
18092TIP3    H275768   5.668   0.526   0.929 -0.1808 -0.3334 -1.4016
18093TIP3   OH275769   6.660   4.103   5.001 -0.2267  0.8309 -0.1436
18093TIP3    H175770   6.600   4.028   4.998  0.0893  0.5432  0.5444
18093TIP3    H275771   6.737   4.073   4.953 -1.5509  2.0531 -3.1271
18094TIP3   OH275772   6.649   2.852   5.062  0.2564 -0.2538 -0.4504
18094TIP3    H175773   6.672   2.777   5.007 -1.1274 -0.4057 -0.8526
18094TIP3    H275774   6.602   2.911   5.003  2.6052  1.6445 -0.5272
18095TIP3   OH275775   3.435   2.179  16.841  0.2538  0.0879 -0.2361
18095TIP3    H175776   3.483   2.098  16.853 -1.2199 -0.8361 -0.4945
18095TIP3    H275777   3.489   2.246  16.884  0.5730 -1.3244  1.6026
18096TIP3   OH275778   3.220   6.323  14.335  0.7323  0.4249 -0.2904
18096TIP3    H175779   3.187   6.409  14.360  0.1221  0.8633 -2.5119
18096TIP3    H275780   3.157   6.291  14.270  1.3641 -1.3746 -0.0406
18097TIP3   OH275781   6.153   0.579   4.121 -0.1569 -0.0231 -0.3871
18097TIP3    H175782   6.084   0.570   4.186  1.1547  1.6726  1.2797
18097TIP3    H275783   6.114   0.631   4.051 -0.6518  0.6997  0.4189
18098TIP3   OH275784   0.371   0.897   1.281 -0.1142 -0.1407  0.3764
18098TIP3    H175785   0.394   0.805   1.267  1.6050  0.4547 -0.9929
18098TIP3    H275786   0.300   0.913   1.219  1.4966  0.1582 -1.4429
18099TIP3   OH275787   5.240   5.921   1.595  0.3736  0.7071  0.4522
18099TIP3    H175788   5.205   5.920   1.684 -0.9449 -0.3779 -0.0565
18099TIP3    H275789   5.164   5.904   1.539  1.5485 -0.7525 -0.7374
18100TIP3   OH275790   3.240   5.295  13.625 -0.7494  0.3266  0.0833
18100TIP3    H175791   3.215   5.204  13.641 -1.2189  0.5284  0.4881
18100TIP3    H275792   3.161   5.345  13.645 -1.1166  0.6581 -2.0125
18101TIP3   OH275793   5.517   1.129   3.893 -0.0745  0.1002 -0.2489
18101TIP3    H175794   5.604   1.167   3.902  0.2379 -0.6840 -0.0407
18101TIP3    H275795   5.462   1.203   3.864  0.4470  0.8153  0.5804
18102TIP3   OH275796   6.569   1.563  11.196 -0.1853 -0.0980  0.5609
18102TIP3    H175797   6.582   1.657  11.184 -2.3519 -0.0587 -1.9751
18102TIP3    H275798   6.477   1.554  11.218  0.5672 -1.4732  3.3734
18103TIP3   OH275799   2.402   2.535   5.857 -0.0025 -0.0256 -0.4611
18103TIP3    H175800   2.492   2.523   5.826  1.3710  2.0793  2.4435
18103TIP3    H275801   2.377   2.622   5.826 -0.8674 -0.3975 -0.8231
18104TIP3   OH275802   4.156   1.927  10.881 -0.6818  0.2421  0.0427
18104TIP3    H175803   4.142   2.020  10.896 -0.9870  0.1682  0.2070
18104TIP3    H275804   4.124   1.911  10.792 -0.6291  0.2924  0.0143
18105TIP3   OH275805   6.414   0.459   1.885  0.3074  0.1940 -0.6295
18105TIP3    H175806   6.498   0.438   1.926  0.0832  1.6063  0.6384
18105TIP3    H275807   6.365   0.377   1.888  0.5657  0.0658  1.3425
18106TIP3   OH275808   4.233   0.332  15.564  0.1043 -0.0453 -0.2502
18106TIP3    H175809   4.311   0.308  15.613  0.8391 -1.4856 -2.0769
18106TIP3    H275810   4.239   0.427  15.554  1.0439 -0.0097  0.5796
18107TIP3   OH275811   5.359   1.159   3.503  0.6377  0.7197  0.0830
18107TIP3    H175812   5.375   1.247   3.537  2.2037 -0.2472  1.9479
18107TIP3    H275813   5.286   1.126   3.555  1.5044  0.1097  0.9311
18108TIP3   OH275814   3.825   4.819   6.586  0.1056 -0.2767  0.0857
18108TIP3    H175815   3.741   4.855   6.615 -0.2293  0.0497 -1.3049
18108TIP3    H275816   3.855   4.767   6.661 -1.8253 -1.2250  0.2238
18109TIP3   OH275817   6.589   3.383  16.860  0.1576  0.3292 -0.3059
18109TIP3    H175818   6.523   3.314  16.865 -0.4465  1.0440  1.9860
18109TIP3    H275819   6.672   3.336  16.855 -0.3627 -0.5596 -0.6750
18110TIP3   OH275820   6.178   0.620  17.025 -0.2880 -0.4899 -0.4629
18110TIP3    H175821   6.234   0.550  16.991  1.6082  0.0614  1.4196
18110TIP3    H275822   6.173   0.602  17.119 -0.7113  1.2707 -0.1411
18111TIP3   OH275823   0.597   5.567  14.930  0.0098  0.0796 -0.2080
18111TIP3    H175824   0.599   5.605  14.842  1.5949  0.9718  0.2037
18111TIP3    H275825   0.669   5.505  14.931 -0.7361 -0.7980  0.0963
18112TIP3   OH275826   0.150   1.262   5.024  0.2037  0.0640 -0.6405
18112TIP3    H175827   0.170   1.304   4.940  0.0765  0.3807 -0.5132
18112TIP3    H275828   0.055   1.260   5.028  0.2030 -1.4970 -1.2660
18113TIP3   OH275829   5.411   5.702   1.235 -0.0287 -0.4535 -0.5827
18113TIP3    H175830   5.417   5.695   1.330 -1.3401 -2.5995 -0.6212
18113TIP3    H275831   5.459   5.782   1.213 -0.5093  0.5614  1.9548
18114TIP3   OH275832   0.462   6.101   4.008  0.4400 -0.2061 -0.0245
18114TIP3    H175833   0.483   6.029   4.068  1.2912 -0.0375 -0.1222
18114TIP3    H275834   0.499   6.178   4.049  1.4650 -0.1676 -1.0167
18115TIP3   OH275835   6.384   1.856  16.121 -0.4612  0.2052  0.2368
18115TIP3    H175836   6.336   1.932  16.154  0.3529  2.0699 -2.6634
18115TIP3    H275837   6.318   1.787  16.115 -1.7927  1.4291  0.5455
18116TIP3   OH275838   5.268   0.171  16.205  0.3227  0.9739 -0.0080
18116TIP3    H175839   5.242   0.156  16.296  0.0304  3.0591  0.2634
18116TIP3    H275840   5.329   0.100  16.186 -1.1962 -0.6929  1.1450
18117TIP3   OH275841   0.320   4.425   2.358 -0.7397  0.5167 -0.4192
18117TIP3    H175842   0.277   4.496   2.405 -1.5101 -0.3891  0.2711
18117TIP3    H275843   0.255   4.396   2.294 -0.2776  0.6927 -0.9731
18118TIP3   OH275844   5.457   0.180  17.027 -0.1647 -0.9358 -0.2368
18118TIP3    H175845   5.429   0.188  16.936 -0.8136 -1.4192 -0.0809
18118TIP3    H275846   5.395   0.234  17.076 -0.6183 -1.7354  0.0711
18119TIP3   OH275847   1.092   3.504   5.826 -0.3255  0.1939  0.5250
18119TIP3    H175848   1.002   3.501   5.856 -0.5458  0.2504 -0.1169
18119TIP3    H275849   1.087   3.546   5.740  0.3955  0.8788  0.8152
18120TIP3   OH275850   2.285   3.865   1.828 -0.5768  0.0382 -0.1859
18120TIP3    H175851   2.251   3.885   1.915 -1.1019  1.5900 -0.7223
18120TIP3    H275852   2.311   3.950   1.793 -0.2485 -0.5889 -1.4861
18121TIP3   OH275853   2.111   1.864   0.172 -0.0532 -0.3715  0.1312
18121TIP3    H175854   2.053   1.900   0.239  1.6561  0.7184  1.0724
18121TIP3    H275855   2.052   1.831   0.104 -1.8114 -1.3989  2.1005
18122TIP3   OH275856   5.769   0.602   1.747  0.0181  0.0657 -0.2549
18122TIP3    H175857   5.862   0.586   1.756  0.0263  0.5021  0.4865
18122TIP3    H275858   5.762   0.695   1.727 -0.3374  0.4120  1.3796
18123TIP3   OH275859   3.088   0.881  11.275 -0.1158  0.3656  0.0106
18123TIP3    H175860   3.158   0.923  11.224  0.0738  0.4012  0.2994
18123TIP3    H275861   3.012   0.884  11.217  0.8171 -2.2133 -1.4123
18124TIP3   OH275862   6.304   6.248  13.051  0.0543 -0.6917  0.6302
18124TIP3    H175863   6.291   6.221  13.142 -1.8150  1.0379  0.8870
18124TIP3    H275864   6.219   6.279  13.022  1.1476  0.9089 -1.0012
18125TIP3   OH275865   5.119   2.574   1.436 -0.1407 -0.4578  0.0396
18125TIP3    H175866   5.141   2.518   1.361  0.7542 -1.8803  1.3572
18125TIP3    H275867   5.202   2.588   1.481 -1.0237 -1.4341  2.0277
18126TIP3   OH275868   1.106   3.452   3.405  0.3057 -0.8055  0.4029
18126TIP3    H175869   1.159   3.426   3.480  2.3378  2.0653  0.0302
18126TIP3    H275870   1.055   3.527   3.437 -0.0176 -0.5868 -0.6291
18127TIP3   OH275871   2.256   5.326  12.769 -0.1785  0.5130 -0.3818
18127TIP3    H175872   2.191   5.363  12.710 -1.1843  0.5069  0.6915
18127TIP3    H275873   2.330   5.303  12.713  0.5623  4.3214 -1.0510
18128TIP3   OH275874   6.059   2.981   3.990 -0.3095  0.1172  0.3032
18128TIP3    H175875   6.131   2.918   3.981 -0.2672 -0.2078  2.6199
18128TIP3    H275876   6.040   3.009   3.900  2.4763 -0.0371 -0.3606
18129TIP3   OH275877   2.157   6.638  16.785 -0.0447  0.9313  0.1128
18129TIP3    H175878   2.149   6.658  16.691 -1.7696 -0.6153 -0.0947
18129TIP3    H275879   2.235   6.583  16.791 -1.7847 -1.7692 -0.9284
18130TIP3   OH275880   0.442   4.523  14.770 -0.2281 -0.5245  0.1952
18130TIP3    H175881   0.522   4.489  14.731 -0.7065  0.6456 -1.8940
18130TIP3    H275882   0.455   4.617  14.776 -1.7577 -0.1960 -1.0386
18131TIP3   OH275883   5.553   4.191   5.214 -0.1770  0.0248  0.3505
18131TIP3    H175884   5.649   4.191   5.218 -0.2177 -0.3550  1.2756
18131TIP3    H275885   5.532   4.125   5.148  0.1737 -0.3578  0.6208
18132TIP3   OH275886   6.152   2.266   2.404  0.4210 -0.0915 -0.5772
18132TIP3    H175887   6.219   2.199   2.411 -0.5421 -0.8250  2.1959
18132TIP3    H275888   6.200   2.345   2.378  2.2716 -0.7056  0.9049
18133TIP3   OH275889   4.183   1.065   5.602  0.2128 -0.2292  0.0232
18133TIP3    H175890   4.205   0.985   5.553  1.3957 -0.1010  0.3363
18133TIP3    H275891   4.198   1.042   5.693  3.0894  1.1325 -0.0645
18134TIP3   OH275892   1.588   1.127   3.888 -0.2856 -0.0057 -0.1349
18134TIP3    H175893   1.594   1.129   3.984 -1.0969  0.2010 -0.0868
18134TIP3    H275894   1.586   1.219   3.862 -1.5524 -0.0534 -0.2468
18135TIP3   OH275895   6.013   6.789   5.731  0.6996  0.0954  0.2241
18135TIP3    H175896   6.070   6.712   5.732  0.2102 -0.2707  1.3700
18135TIP3    H275897   5.925   6.753   5.742  0.1209  0.5864 -2.3689
18136TIP3   OH275898   1.914   5.750   0.021  0.0557 -0.0950 -0.2893
18136TIP3    H175899   1.990   5.707  -0.020  2.0377  1.5818  1.4912
18136TIP3    H275900   1.912   5.715   0.110 -0.1231  1.2174  0.2362
18137TIP3   OH275901   6.205   1.882   2.982  0.0315 -0.3109  0.2389
18137TIP3    H175902   6.244   1.920   2.904 -2.2616  1.8625  0.0759
18137TIP3    H275903   6.144   1.816   2.949  2.1089 -2.3550  0.4095
18138TIP3   OH275904   5.307   3.535  15.799  0.5079  0.0409 -0.5187
18138TIP3    H175905   5.383   3.579  15.837  0.7933  0.0143 -1.0582
18138TIP3    H275906   5.341   3.491  15.721 -0.1590  0.4726 -1.0616
18139TIP3   OH275907   1.855   1.485   1.129  0.6376  0.3647  0.0732
18139TIP3    H175908   1.906   1.525   1.059  0.7283 -0.8984 -0.6006
18139TIP3    H275909   1.790   1.551   1.152  1.0518  1.0596 -0.7277
18140TIP3   OH275910   3.107   3.444  13.422  0.4821  0.1564  0.2513
18140TIP3    H175911   3.051   3.521  13.410  1.4669  1.0741  1.4922
18140TIP3    H275912   3.151   3.458  13.505 -0.2668 -2.3616  1.1351
18141TIP3   OH275913   4.151   1.990   5.401  0.3052  0.3904  0.5374
18141TIP3    H175914   4.217   1.997   5.332  0.3430  0.2568  0.5592
18141TIP3    H275915   4.146   1.896   5.420 -0.4153  0.3290  0.0381
18142TIP3   OH275916   3.666   0.156  17.259  0.9147  0.6160 -0.0929
18142TIP3    H175917   3.723   0.233  17.268 -0.1586  1.3515  0.6837
18142TIP3    H275918   3.585   0.191  17.220  0.0162  0.0981  1.2516
18143TIP3   OH275919   2.240   2.093  17.269  0.6683 -0.1768 -0.2501
18143TIP3    H175920   2.307   2.142  17.317  0.3383 -1.7934  1.9374
18143TIP3    H275921   2.171   2.076  17.333 -0.8075 -0.5138 -1.8663
18144TIP3   OH275922   1.249   1.112   1.485  0.4981 -0.2845  0.2787
18144TIP3    H175923   1.313   1.159   1.538  0.6285 -0.1296 -0.0137
18144TIP3    H275924   1.165   1.129   1.529  0.3443  1.4230 -0.6264
18145TIP3   OH275925   2.374   0.126   1.552  0.5861 -0.1174 -0.5722
18145TIP3    H175926   2.468   0.141   1.547  0.1954  2.3640 -0.9604
18145TIP3    H275927   2.346   0.120   1.461  0.5940 -2.6513 -0.4529
18146TIP3   OH275928   0.260   4.058   6.722  0.7758  0.6367  0.2557
18146TIP3    H175929   0.225   4.032   6.807 -0.5131  0.5068 -0.3051
18146TIP3    H275930   0.186   4.096   6.675  1.1824 -0.3077 -1.2231
18147TIP3   OH275931   6.545   2.384  16.370  0.0100 -0.4092  0.5723
18147TIP3    H175932   6.515   2.299  16.400  0.1941 -0.0480  1.8285
18147TIP3    H275933   6.477   2.445  16.401  1.1857  0.2077  1.9770
18148TIP3   OH275934   2.638   2.995  15.808  0.0037  0.1835  0.0621
18148TIP3    H175935   2.728   3.007  15.839 -0.6092 -1.5761  2.6299
18148TIP3    H275936   2.646   2.938  15.732  0.9012 -1.5221  1.4203
18149TIP3   OH275937   0.331   1.193  16.406  0.3725  0.0752 -0.3740
18149TIP3    H175938   0.315   1.285  16.427 -1.6490 -0.4866  0.6236
18149TIP3    H275939   0.263   1.171  16.342  0.0507 -1.0655  0.3545
18150TIP3   OH275940   0.963   3.157   6.130  0.0977  0.2203 -0.3497
18150TIP3    H175941   1.037   3.097   6.138  0.6334  0.5212 -2.6980
18150TIP3    H275942   0.886   3.101   6.144  0.6493 -0.7033 -0.9041
18151TIP3   OH275943   0.919   4.665   4.457  0.1780  1.1051  0.1932
18151TIP3    H175944   0.866   4.594   4.495 -0.0813  1.9736  1.4719
18151TIP3    H275945   0.985   4.684   4.523  2.2751 -0.1062 -1.4707
18152TIP3   OH275946   3.218   2.556  13.392 -0.0569  0.8449 -0.2021
18152TIP3    H175947   3.280   2.623  13.418 -0.2396  1.1589 -0.5694
18152TIP3    H275948   3.235   2.482  13.451 -0.4155  1.5136  0.7399
18153TIP3   OH275949   4.913   0.930  14.331  0.0317 -0.7062 -0.3558
18153TIP3    H175950   4.913   1.015  14.288  1.9917  0.3600  1.6623
18153TIP3    H275951   5.005   0.902  14.329 -0.3656 -2.1190  0.2820
18154TIP3   OH275952   3.400   6.714   4.161  0.4532  0.0893 -0.8671
18154TIP3    H175953   3.480   6.721   4.214  1.6686 -1.3871 -2.4539
18154TIP3    H275954   3.385   6.620   4.152 -0.4750  0.3399 -2.0304
18155TIP3   OH275955   1.853   6.379   1.184 -0.3712 -0.0938  0.1398
18155TIP3    H175956   1.922   6.412   1.242 -0.0603  1.6173 -1.1415
18155TIP3    H275957   1.889   6.390   1.096 -1.2024 -1.7749 -0.4148
18156TIP3   OH275958   4.304   1.662  12.869  0.0830  0.0739  0.0763
18156TIP3    H175959   4.332   1.710  12.947  0.0470 -0.2280  0.2787
18156TIP3    H275960   4.255   1.726  12.817 -0.5770  0.0577  0.6828
18157TIP3   OH275961   5.599   5.427  15.111 -0.3838  0.0225  0.2833
18157TIP3    H175962   5.634   5.347  15.149  0.0953  0.4953  0.8660
18157TIP3    H275963   5.522   5.400  15.063 -0.9381 -0.6168  1.5202
18158TIP3   OH275964   0.090   6.573  15.489  0.3889  0.0964 -0.2736
18158TIP3    H175965   0.015   6.589  15.546  1.0480  1.8655  0.1127
18158TIP3    H275966   0.097   6.478  15.486 -0.9477 -0.0611  0.9046
18159TIP3   OH275967   1.893   2.271  11.614 -0.6154 -0.0304 -0.3082
18159TIP3    H175968   1.810   2.303  11.578 -1.4527 -0.4663  1.1647
18159TIP3    H275969   1.899   2.181  11.584  0.2780  0.5772 -1.9972
18160TIP3   OH275970   1.755   1.554  12.667  0.8784 -0.1199  0.1280
18160TIP3    H175971   1.755   1.624  12.602 -1.0966 -0.9173 -0.7617
18160TIP3    H275972   1.835   1.505  12.649  0.1191 -0.6211 -2.0461
18161TIP3   OH275973   4.215   0.426   2.405  0.4307 -0.2329  0.6126
18161TIP3    H175974   4.261   0.402   2.485  0.3108  0.0271  0.7610
18161TIP3    H275975   4.175   0.345   2.374  0.3223 -0.2917  0.9140
18162TIP3   OH275976   4.182   1.234  14.926 -0.2103  0.1959  0.1225
18162TIP3    H175977   4.217   1.231  14.837  1.5991  0.3098  0.8170
18162TIP3    H275978   4.232   1.169  14.975 -1.0299  0.2917  1.1175
18163TIP3   OH275979   6.261   1.114  12.978  0.6019  0.3073 -0.0865
18163TIP3    H175980   6.285   1.178  12.911 -1.1411 -0.1279 -1.1587
18163TIP3    H275981   6.331   1.049  12.976  1.1457  0.9007 -0.6514
18164TIP3   OH275982   1.291   2.508   0.099  0.4800  0.1237  0.2198
18164TIP3    H175983   1.322   2.586   0.053 -1.1788  0.8865  0.3519
18164TIP3    H275984   1.349   2.500   0.174 -0.4278  2.3133  1.2019
18165TIP3   OH275985   0.891   6.251  15.266 -0.9895  0.6606  0.3431
18165TIP3    H175986   0.931   6.186  15.207  1.6826 -1.5554  4.3668
18165TIP3    H275987   0.799   6.228  15.268 -1.0732  0.4747 -2.4912
18166TIP3   OH275988   0.190   2.931  13.385  0.2621  0.6029  0.2637
18166TIP3    H175989   0.193   2.857  13.445  0.3309  0.9153  0.6475
18166TIP3    H275990   0.241   3.000  13.429  0.0967  0.9174 -0.0334
18167TIP3   OH275991   3.228   4.558  14.708 -0.6140  0.3781 -0.1505
18167TIP3    H175992   3.155   4.536  14.765 -0.3468 -0.4607 -0.1205
18167TIP3    H275993   3.258   4.474  14.674  2.2055  0.3891  2.1322
18168TIP3   OH275994   2.944   2.142   0.782  0.8650 -1.4533 -0.0330
18168TIP3    H175995   2.890   2.220   0.773  0.9026 -1.3705  0.4383
18168TIP3    H275996   3.002   2.161   0.857  1.6092 -1.4999 -0.5909
18169TIP3   OH275997   1.127   3.979  17.174 -0.3913 -0.1026  0.3070
18169TIP3    H175998   1.137   4.040  17.248  0.4112  0.6104 -0.3673
18169TIP3    H275999   1.210   3.986  17.127 -0.6822 -0.9835 -0.3393
18170TIP3   OH276000   2.997   1.674  13.238 -0.2024 -0.2729  0.4078
18170TIP3    H176001   3.079   1.676  13.189 -0.1805 -1.7678  0.3450
18170TIP3    H276002   2.933   1.713  13.179  0.0032 -1.2540 -0.4873
18171TIP3   OH276003   5.182   3.540   1.647  0.6033  0.5343  0.0851
18171TIP3    H176004   5.177   3.633   1.670 -0.1959  0.6937 -0.6834
18171TIP3    H276005   5.091   3.515   1.628  0.8473 -0.3358  0.0372
18172TIP3   OH276006   3.555   2.798  11.465  0.7676  0.1772 -0.3492
18172TIP3    H176007   3.622   2.760  11.408  1.6313  2.0164 -0.6158
18172TIP3    H276008   3.531   2.880  11.422 -1.9132 -0.5959 -0.4202
18173TIP3   OH276009   6.323   3.254   2.702 -0.0636  0.4827 -0.1258
18173TIP3    H176010   6.273   3.335   2.685  0.1140  0.3924 -1.1201
18173TIP3    H276011   6.286   3.220   2.783 -2.3392 -0.1040 -1.3617
18174TIP3   OH276012   5.010   0.486   2.790  0.3519 -0.2574  0.4067
18174TIP3    H176013   4.975   0.398   2.803 -1.1836  0.4096  0.8740
18174TIP3    H276014   5.071   0.498   2.862 -1.6397  0.1513  2.0741
18175TIP3   OH276015   2.073   2.982   2.457 -0.3156  0.1095 -0.0856
18175TIP3    H176016   2.002   2.943   2.507 -1.1816  0.6706 -0.8565
18175TIP3    H276017   2.053   3.076   2.456 -0.5653  0.0535 -1.8505
18176TIP3   OH276018   2.334   6.687   3.629 -0.5549 -0.3584  0.4318
18176TIP3    H176019   2.371   6.737   3.556  0.4840 -2.1726 -0.3133
18176TIP3    H276020   2.239   6.702   3.622 -0.2337  1.9907  0.6187
18177TIP3   OH276021   2.925   0.055   3.814 -0.0507  0.3893 -0.0727
18177TIP3    H176022   2.889   0.066   3.903 -0.0948  0.5232 -0.1075
18177TIP3    H276023   2.963   0.140   3.793 -0.7750  0.6086 -0.5121
18178TIP3   OH276024   0.928   0.961   6.140  0.0745 -0.2573 -0.3909
18178TIP3    H176025   0.959   1.044   6.175  0.3236 -0.0724 -1.0366
18178TIP3    H276026   0.833   0.964   6.151  0.1663 -0.3084  0.4794
18179TIP3   OH276027   6.163   0.446  12.286  0.0326 -0.1551  0.0407
18179TIP3    H176028   6.092   0.385  12.308 -0.5173  0.9935  1.5451
18179TIP3    H276029   6.156   0.458  12.191 -1.3884 -0.5694  0.0792
18180TIP3   OH276030   4.568   2.169   2.795  0.0400  0.5834  0.0648
18180TIP3    H176031   4.500   2.188   2.731  0.5542  1.8118 -0.1340
18180TIP3    H276032   4.538   2.212   2.875 -0.3237 -0.4666  0.5002
18181TIP3   OH276033   2.214   2.892   2.722  0.6189 -0.2036  0.1815
18181TIP3    H176034   2.119   2.886   2.725  0.5618  0.4685 -0.3146
18181TIP3    H276035   2.234   2.980   2.754  1.1083 -0.5912  0.9566
18182TIP3   OH276036   4.480   3.019   5.209  0.0555  0.2104  0.0492
18182TIP3    H176037   4.431   2.984   5.283 -0.0642  0.3726  0.0457
18182TIP3    H276038   4.463   3.114   5.211  0.6297  0.3070  0.2397
18183TIP3   OH276039   1.678   4.027  16.937 -0.2484 -0.0139 -0.2146
18183TIP3    H176040   1.694   3.949  16.884 -0.7846 -1.0325  1.0718
18183TIP3    H276041   1.669   3.993  17.026 -2.2970  1.2994  0.1118
18184TIP3   OH276042   3.766   6.153  14.907 -0.2525  0.0779  0.1133
18184TIP3    H176043   3.860   6.149  14.920 -0.5615  0.5755  2.7832
18184TIP3    H276044   3.737   6.062  14.907 -0.2064  0.0395  2.9627
18185TIP3   OH276045   0.118   3.321  10.979  0.3636 -0.6063 -0.4262
18185TIP3    H176046   0.210   3.298  10.993  0.0909 -0.3272  1.9837
18185TIP3    H276047   0.117   3.417  10.979 -0.1187 -0.6029  1.0115
18186TIP3   OH276048   1.567   0.421   4.092  0.1770  0.4299  0.0201
18186TIP3    H176049   1.530   0.429   4.004  1.8593 -1.4726 -0.8937
18186TIP3    H276050   1.600   0.509   4.111  0.4163  0.7061 -1.5295
18187TIP3   OH276051   1.146   6.620   0.369  0.0873  0.4169 -0.1036
18187TIP3    H176052   1.079   6.559   0.397 -0.1123  0.5675 -0.2575
18187TIP3    H276053   1.214   6.613   0.436 -0.4131  0.8146  0.4537
18188TIP3   OH276054   0.809   3.968  17.271 -0.4023 -0.3111 -0.2893
18188TIP3    H176055   0.881   3.939  17.215 -0.5550 -0.8321 -0.2229
18188TIP3    H276056   0.805   3.901  17.340 -1.8327 -1.0469 -1.0581
18189TIP3   OH276057   0.032   6.239  14.981  0.3405  0.6603 -0.0511
18189TIP3    H176058  -0.042   6.292  15.010 -0.9893 -0.6815 -0.9796
18189TIP3    H276059   0.048   6.268  14.891  1.7085  1.7561  0.5135
18190TIP3   OH276060   1.796   5.428  13.470 -0.5651  0.5117 -0.7269
18190TIP3    H176061   1.751   5.355  13.429  1.3107 -0.8548 -0.4467
18190TIP3    H276062   1.732   5.499  13.471 -2.4562 -1.1474 -0.9034
18191TIP3   OH276063   3.170   2.036   5.085 -0.4468 -0.2786  0.4980
18191TIP3    H176064   3.161   2.108   5.023 -0.1130 -1.7462 -1.2981
18191TIP3    H276065   3.185   2.078   5.170  0.5191  1.7320 -0.6501
18192TIP3   OH276066   6.531   6.030  15.931 -0.4168  0.8021  0.3289
18192TIP3    H176067   6.473   6.024  15.854 -0.3824  1.5472  0.2421
18192TIP3    H276068   6.492   5.970  15.995  0.0077 -0.4435 -0.5538
18193TIP3   OH276069   1.487   4.715  13.255  0.2890 -0.5441  0.7271
18193TIP3    H176070   1.443   4.674  13.181 -0.4094  0.5673  0.5004
18193TIP3    H276071   1.511   4.643  13.313  1.7108 -1.5075 -1.0457
18194TIP3   OH276072   6.419   3.135  14.154 -0.0440 -0.0894  0.0103
18194TIP3    H176073   6.380   3.055  14.189 -1.3392  0.3438 -0.4135
18194TIP3    H276074   6.507   3.136  14.190 -0.1800 -1.4568  0.4193
18195TIP3   OH276075   6.591   5.171  17.103 -0.0743 -0.1173 -0.0314
18195TIP3    H176076   6.669   5.116  17.111  0.0030  0.0688  0.4700
18195TIP3    H276077   6.553   5.145  17.019  0.1321 -0.7098  0.0569
18196TIP3   OH276078   3.762   6.765   1.674  0.4542 -0.0668 -0.5391
18196TIP3    H176079   3.765   6.808   1.759  0.5029 -0.9772 -0.0833
18196TIP3    H276080   3.674   6.729   1.668  0.5664 -0.3123 -0.7240
18197TIP3   OH276081   6.400   5.149  15.508  0.1529  0.5477  0.1390
18197TIP3    H176082   6.454   5.228  15.504  0.7211  0.2164  1.4071
18197TIP3    H276083   6.313   5.181  15.531  0.1629  0.8991 -0.2944
18198TIP3   OH276084   6.585   5.826  16.394  0.2278 -0.1441  0.2938
18198TIP3    H176085   6.517   5.810  16.459 -0.7763 -2.9501 -1.3826
18198TIP3    H276086   6.650   5.757  16.410  0.4431 -0.2570 -1.0317
18199TIP3   OH276087   0.963   3.613  12.956 -0.0707  0.1128 -0.2748
18199TIP3    H176088   0.983   3.600  12.863  1.8256  2.4537 -0.2466
18199TIP3    H276089   0.902   3.687  12.957  0.3991  0.4982  0.3560
18200TIP3   OH276090   5.034   5.703   1.917  0.1937  0.1889 -0.1428
18200TIP3    H176091   5.050   5.611   1.940 -0.2897 -0.5941 -2.8369
18200TIP3    H276092   4.946   5.720   1.949  0.3369 -0.2241  0.4939
18201TIP3   OH276093   2.654   3.725  17.215  0.8327 -0.2161  0.2522
18201TIP3    H176094   2.632   3.681  17.133 -1.8537 -0.8266  1.2553
18201TIP3    H276095   2.669   3.654  17.277  2.5840  0.2497  0.3800
18202TIP3   OH276096   2.554   2.087  12.178 -0.0031 -0.0846  0.2969
18202TIP3    H176097   2.620   2.151  12.153 -0.4374  0.8816  1.5612
18202TIP3    H276098   2.603   2.006  12.191  0.4087 -0.3195 -2.3589
18203TIP3   OH276099   6.401   1.502   2.527 -0.1516 -0.1423 -0.5758
18203TIP3    H176100   6.383   1.543   2.611 -0.1892 -1.0071 -0.1533
18203TIP3    H276101   6.316   1.468   2.498 -0.5349  1.8437 -1.9033
18204TIP3   OH276102   5.535   0.785   2.747 -0.6348  0.1964  0.1862
18204TIP3    H176103   5.552   0.755   2.658 -0.9317 -0.5262  0.3714
18204TIP3    H276104   5.451   0.830   2.742 -0.0384  1.3220 -0.1566
18205TIP3   OH276105   5.250   0.610  10.882 -0.3248 -0.2438 -0.0429
18205TIP3    H176106   5.210   0.696  10.867 -2.7177 -1.4168 -0.5302
18205TIP3    H276107   5.344   0.629  10.887 -0.9276  2.7064  2.0456
18206TIP3   OH276108   2.268   1.285  16.509  0.3435  0.2847  0.5465
18206TIP3    H176109   2.232   1.298  16.597 -0.3708 -0.8139  0.4133
18206TIP3    H276110   2.191   1.281  16.452  0.7542 -0.1561  0.0196
18207TIP3   OH276111   1.193   1.388   2.337 -0.4984  0.2261  0.2935
18207TIP3    H176112   1.265   1.446   2.313 -0.5973  0.0626 -0.4224
18207TIP3    H276113   1.236   1.310   2.372 -0.3468  0.4500  0.6062
18208TIP3   OH276114   3.799   0.607  16.701  0.1037  0.0813  0.6851
18208TIP3    H176115   3.843   0.527  16.730  0.6602  0.0962 -0.1068
18208TIP3    H276116   3.862   0.649  16.642 -0.4001  0.8296  0.6720
18209TIP3   OH276117   6.289   6.501  16.473 -0.1780 -0.3400 -0.3239
18209TIP3    H176118   6.295   6.591  16.505  1.1251 -0.5648  0.1212
18209TIP3    H276119   6.270   6.509  16.380 -2.0102  0.3589  0.0875
18210TIP3   OH276120   6.615   0.117  13.781 -0.4806  0.0009 -0.2119
18210TIP3    H176121   6.588   0.176  13.710 -0.3895  1.3333  0.8349
18210TIP3    H276122   6.566   0.148  13.857 -0.3489 -1.2287  0.3870
18211TIP3   OH276123   0.611   0.308  13.437  0.0287 -0.1812  0.2626
18211TIP3    H176124   0.572   0.372  13.497 -1.0960 -1.5805  1.0387
18211TIP3    H276125   0.538   0.281  13.381  0.5157 -0.7461 -0.1002
18212TIP3   OH276126   6.541   0.717   3.058  0.3940 -0.5357 -0.3579
18212TIP3    H176127   6.534   0.625   3.082  0.4180 -0.7611 -1.2014
18212TIP3    H276128   6.474   0.761   3.111 -1.0544 -1.3378 -1.4855
18213TIP3   OH276129   5.331   6.378   0.346 -0.7158 -0.0391  0.2494
18213TIP3    H176130   5.366   6.464   0.322 -0.2095 -0.2187  0.3531
18213TIP3    H276131   5.392   6.315   0.308 -1.5039 -0.3701 -0.4836
18214TIP3   OH276132   3.376   0.611   0.724  0.2942  0.7550  0.2828
18214TIP3    H176133   3.382   0.517   0.742 -0.9813  0.7394  0.6114
18214TIP3    H276134   3.467   0.641   0.727  0.6114 -0.2751  1.2074
18215TIP3   OH276135   0.685   2.523  14.998  0.2916 -0.3936 -0.4162
18215TIP3    H176136   0.683   2.453  15.063  3.3492 -1.2083 -1.1195
18215TIP3    H276137   0.692   2.478  14.914  1.1809  0.7132 -0.9504
18216TIP3   OH276138   1.896   3.627   0.857  0.7703 -0.1672  0.0483
18216TIP3    H176139   1.866   3.536   0.855 -0.5321  0.2825 -0.9001
18216TIP3    H276140   1.869   3.659   0.943 -0.1667 -0.1981 -0.2373
18217TIP3   OH276141   5.188   5.174   2.615  0.3134 -0.6325 -0.5910
18217TIP3    H176142   5.194   5.228   2.536  0.3450 -1.4664 -1.1616
18217TIP3    H276143   5.121   5.217   2.668  1.8806  1.2070 -0.0688
18218TIP3   OH276144   6.018   6.187  16.352 -0.8697 -0.7288 -0.0842
18218TIP3    H176145   5.996   6.240  16.276  0.1916 -0.1464  0.0093
18218TIP3    H276146   5.974   6.103  16.336 -0.2193 -0.7992 -1.5991
18219TIP3   OH276147   2.141   2.422  15.663 -0.0027  0.2197  0.4637
18219TIP3    H176148   2.170   2.412  15.754  0.8421  0.2107  0.2012
18219TIP3    H276149   2.194   2.493  15.628  0.8919 -0.8960 -0.5177
18220TIP3   OH276150   4.862   5.862   3.194 -0.0279 -0.1521  0.1397
18220TIP3    H176151   4.915   5.837   3.270 -1.7435 -1.4343  0.9547
18220TIP3    H276152   4.831   5.950   3.215  0.0940 -0.2140  0.6072
18221TIP3   OH276153   5.009   5.842   1.432  0.4481 -0.1951 -0.6993
18221TIP3    H176154   5.036   5.825   1.342 -0.4888 -1.6639 -0.7153
18221TIP3    H276155   4.916   5.823   1.433  0.2465  0.8110  0.3490
18222TIP3   OH276156   5.617   0.144  11.345 -0.3666  0.1759  0.3343
18222TIP3    H176157   5.688   0.086  11.372 -1.7499 -1.1633  1.1574
18222TIP3    H276158   5.623   0.147  11.249  1.5283  1.0526  0.4554
18223TIP3   OH276159   3.423   0.078   3.251 -0.0049  0.1163 -0.4934
18223TIP3    H176160   3.411   0.150   3.314  3.7098  1.4675 -1.1325
18223TIP3    H276161   3.446   0.003   3.305 -0.3255  0.3524 -0.0237
18224TIP3   OH276162   6.477   4.255  11.612 -1.0292 -0.3659  0.1291
18224TIP3    H176163   6.537   4.203  11.559  0.9548  1.8722  0.0992
18224TIP3    H276164   6.417   4.191  11.650  0.4935 -2.5117 -0.9818
18225TIP3   OH276165   4.054   1.305   5.997  0.1344  0.2135  0.1997
18225TIP3    H176166   4.145   1.333   5.992 -0.1405  0.9767 -0.7459
18225TIP3    H276167   4.058   1.211   6.015  1.0842  0.6905  2.7477
18226TIP3   OH276168   1.377   1.832  12.567  0.1630 -0.3464 -0.5507
18226TIP3    H176169   1.320   1.849  12.492 -2.0405 -1.2296  0.8500
18226TIP3    H276170   1.371   1.912  12.620  0.2077 -0.4499 -0.3907
18227TIP3   OH276171   3.613   4.884  16.313  0.2121 -0.2339 -0.2418
18227TIP3    H176172   3.624   4.789  16.308 -0.5723 -0.3794  0.6690
18227TIP3    H276173   3.663   4.910  16.391  1.1098  0.2123 -0.9573
18228TIP3   OH276174   1.474   6.509  16.336  0.3324 -0.0368  0.5206
18228TIP3    H176175   1.404   6.489  16.398 -0.5346  1.2064 -0.0319
18228TIP3    H276176   1.542   6.445  16.356 -0.3393 -0.3052  2.0758
18229TIP3   OH276177   3.032   0.274  12.089  0.1922 -0.4334 -0.4099
18229TIP3    H176178   2.948   0.252  12.048  0.7595 -1.6236 -0.9862
18229TIP3    H276179   3.075   0.332  12.026 -0.2625  0.3027 -0.0440
18230TIP3   OH276180   6.737   0.588  13.725  0.2920 -0.1148 -0.2836
18230TIP3    H176181   6.779   0.599  13.810 -1.5313 -1.6927  0.8347
18230TIP3    H276182   6.643   0.595  13.743 -0.1397 -1.0395 -2.0791
18231TIP3   OH276183   6.364   5.587  10.903  0.3621  0.3991  0.3647
18231TIP3    H176184   6.388   5.662  10.958 -1.1044  0.9922  0.2321
18231TIP3    H276185   6.279   5.612  10.865  0.5428 -0.7284 -0.8061
18232TIP3   OH276186   4.071   3.767  12.902  0.6587 -0.5868 -0.3876
18232TIP3    H176187   4.156   3.808  12.887  0.6834 -0.4065  0.2178
18232TIP3    H276188   4.040   3.806  12.984 -0.7220  0.4970 -1.4112
18233TIP3   OH276189   3.773   5.482   2.564  0.4150 -0.2079  0.2046
18233TIP3    H176190   3.721   5.480   2.644 -0.0098 -2.8032 -0.0897
18233TIP3    H276191   3.709   5.479   2.493  0.8130  1.3442 -0.2407
18234TIP3   OH276192   4.533   2.523  14.362 -0.2369 -0.1251 -0.1844
18234TIP3    H176193   4.452   2.556  14.325  0.3183  3.7537  1.8387
18234TIP3    H276194   4.509   2.437  14.398 -2.5774 -0.5151 -2.5346
18235TIP3   OH276195   4.163   5.969   0.809 -0.4547 -0.0644  0.5764
18235TIP3    H176196   4.247   5.949   0.769 -0.2969 -0.3583  1.0581
18235TIP3    H276197   4.101   5.910   0.766 -0.9155  2.0467 -1.7711
18236TIP3   OH276198   2.587   1.438   3.403  0.0369 -0.2585 -0.2704
18236TIP3    H176199   2.529   1.514   3.414  0.2852  0.0302 -0.9084
18236TIP3    H276200   2.538   1.365   3.441  0.3558  0.4596  1.5588
18237TIP3   OH276201   4.905   3.657  13.341  0.1338 -0.5900 -0.2276
18237TIP3    H176202   4.983   3.712  13.351  0.4093 -0.9617 -0.3427
18237TIP3    H276203   4.934   3.569  13.365  0.1146 -0.9872 -1.6421
18238TIP3   OH276204   3.554   0.299   2.904  0.9159 -0.1563 -0.2200
18238TIP3    H176205   3.526   0.314   2.813 -1.2733 -0.2652  0.4141
18238TIP3    H276206   3.537   0.383   2.948 -0.5631 -0.9292  0.7009
18239TIP3   OH276207   1.075   3.752  15.552  0.3289 -0.5650 -0.6889
18239TIP3    H176208   1.151   3.785  15.504  0.2182 -1.9557 -1.8539
18239TIP3    H276209   1.000   3.776  15.497 -0.0414  0.2299  0.1413
18240TIP3   OH276210   0.529   6.297  13.953 -0.1662  0.4896 -0.2810
18240TIP3    H176211   0.523   6.387  13.922  1.2464  1.0724  1.0722
18240TIP3    H276212   0.441   6.261  13.937 -0.8346  2.1786 -0.5813
18241TIP3   OH276213   3.385   4.572  12.871  0.0757 -0.1267 -0.1152
18241TIP3    H176214   3.317   4.553  12.806  1.2250  1.8750 -1.9579
18241TIP3    H276215   3.458   4.515  12.847  0.3820  0.3765 -0.3862
18242TIP3   OH276216   5.333   4.978   5.508  0.1681  0.5778 -0.0257
18242TIP3    H176217   5.290   4.984   5.594 -3.3034 -2.2892 -1.4522
18242TIP3    H276218   5.302   5.055   5.460  0.1714  0.8689  0.4354
18243TIP3   OH276219   3.612   1.260   3.328  0.4233  0.4180  0.7115
18243TIP3    H176220   3.608   1.216   3.413  0.5927 -0.2582  0.3714
18243TIP3    H276221   3.674   1.208   3.277  0.8024  1.1919  0.3830
18244TIP3   OH276222   2.708   2.919   2.004 -0.1767 -0.2734  0.4772
18244TIP3    H176223   2.660   2.965   1.935 -0.3344 -1.1321  0.0084
18244TIP3    H276224   2.656   2.933   2.083  0.6470  1.7519  0.6895
18245TIP3   OH276225   2.585   5.998  13.432 -0.1484 -0.2937 -0.0945
18245TIP3    H176226   2.536   5.945  13.495 -0.2648  0.8287  0.7517
18245TIP3    H276227   2.608   5.935  13.363 -0.0428 -1.5178  1.0253
18246TIP3   OH276228   5.085   4.145  15.038  0.3483 -0.1471  0.2876
18246TIP3    H176229   5.009   4.170  15.091  0.2089 -1.9454  0.9546
18246TIP3    H276230   5.159   4.189  15.081 -0.1612  0.8350  0.1879
18247TIP3   OH276231   4.271   6.155  13.199 -0.5822 -0.1010 -0.1890
18247TIP3    H176232   4.325   6.090  13.155  0.3395 -0.0462  0.8498
18247TIP3    H276233   4.238   6.211  13.128 -0.8285 -1.2764 -1.0122
18248TIP3   OH276234   6.609   3.855  15.774 -0.4990 -0.1072  0.1357
18248TIP3    H176235   6.686   3.799  15.765  0.6506  1.3292  0.7609
18248TIP3    H276236   6.624   3.903  15.856 -2.5438 -0.5356  0.7884
18249TIP3   OH276237   0.397   3.063   5.359  0.6816  0.4638 -0.0957
18249TIP3    H176238   0.469   3.050   5.297  0.6062  0.7338 -0.2396
18249TIP3    H276239   0.322   3.020   5.318  0.6971  0.4056 -0.0639
18250TIP3   OH276240   3.280   3.218  10.303  0.0704 -0.5503 -0.0696
18250TIP3    H176241   3.257   3.192  10.214 -1.1766 -0.3098  0.1660
18250TIP3    H276242   3.235   3.153  10.359  0.3927 -0.3743  0.3929
18251TIP3   OH276243   2.111   3.852   0.376  0.5078 -0.2602 -0.0743
18251TIP3    H176244   2.047   3.879   0.442  0.0056  0.0954 -0.7097
18251TIP3    H276245   2.186   3.910   0.389 -0.0977  0.6462 -0.6609
18252TIP3   OH276246   0.221   1.095  15.459 -0.0146  0.1347  0.1444
18252TIP3    H176247   0.197   1.095  15.366  2.7105  0.2149 -0.6055
18252TIP3    H276248   0.279   1.170  15.469 -1.4384  0.9774  2.2568
18253TIP3   OH276249   0.858   4.432  11.496  0.4355  0.2370  0.6388
18253TIP3    H176250   0.809   4.351  11.481 -1.8131  1.6751 -0.0729
18253TIP3    H276251   0.883   4.460  11.408 -0.2686  1.1902  0.7403
18254TIP3   OH276252   3.436   4.683   4.744  0.4587 -0.4063  0.0562
18254TIP3    H176253   3.484   4.636   4.813  0.9871 -0.0576 -0.0674
18254TIP3    H276254   3.482   4.766   4.736 -1.4680  0.8473  1.4395
18255TIP3   OH276255   1.182   0.482   2.718 -0.7258 -0.5462 -0.3263
18255TIP3    H176256   1.203   0.432   2.639  1.0631 -1.8479  0.9229
18255TIP3    H276257   1.241   0.557   2.715 -2.1436  0.5524 -1.2795
18256TIP3   OH276258   6.207   2.699   5.199 -0.1458 -0.1095  0.3926
18256TIP3    H176259   6.229   2.786   5.164  0.6687  0.0449  1.2676
18256TIP3    H276260   6.292   2.659   5.217 -0.4628 -1.6491 -1.3242
18257TIP3   OH276261   2.875   0.833  11.024 -0.0124 -0.3414  0.0462
18257TIP3    H176262   2.828   0.914  11.043 -2.1780 -1.8744  1.4709
18257TIP3    H276263   2.841   0.804  10.940  1.0042  0.3785 -0.6228
18258TIP3   OH276264   3.017   5.995   3.612 -0.0365 -0.0016  0.1164
18258TIP3    H176265   2.926   5.990   3.642  0.6158  1.5553  2.5719
18258TIP3    H276266   3.030   5.916   3.560 -3.4781  0.9597 -2.3327
18259TIP3   OH276267   5.647   6.557  11.483 -0.2137  0.0515 -0.2383
18259TIP3    H176268   5.639   6.472  11.440  2.0996  0.3133 -1.3024
18259TIP3    H276269   5.735   6.556  11.521 -0.6410  1.4929  0.8454
18260TIP3   OH276270   4.150   3.895  13.979 -0.2947 -0.0423  0.2600
18260TIP3    H176271   4.173   3.988  13.973 -0.1034 -0.0034  1.5027
18260TIP3    H276272   4.067   3.893  14.025  0.3048 -0.5426  1.3585
18261TIP3   OH276273   2.722   1.692   0.251  0.1033 -0.3143  0.4194
18261TIP3    H176274   2.804   1.679   0.298  0.6684  0.0786 -0.4369
18261TIP3    H276275   2.665   1.736   0.314  1.4547  1.8542  0.1993
18262TIP3   OH276276   4.459   0.991  11.955  0.2512  0.5089 -0.3448
18262TIP3    H176277   4.540   1.005  12.004 -0.2875  1.5974  0.2477
18262TIP3    H276278   4.429   0.904  11.982  1.1734  0.1346 -0.5105
18263TIP3   OH276279   1.022   5.923   0.560  0.0041  0.1234 -0.1284
18263TIP3    H176280   0.928   5.916   0.574  0.2496 -0.9401  0.9965
18263TIP3    H276281   1.038   5.874   0.479  0.1147 -2.9746  1.7079
18264TIP3   OH276282   1.745   4.624   2.523  0.3245 -0.0814  0.1566
18264TIP3    H176283   1.700   4.708   2.533  1.4272  0.7508 -1.6020
18264TIP3    H276284   1.692   4.562   2.575 -1.5298  1.3311  0.0126
18265TIP3   OH276285   2.236   4.510  17.036  0.1879 -0.1290 -0.2167
18265TIP3    H176286   2.294   4.584  17.017  1.2228 -0.9050 -0.0968
18265TIP3    H276287   2.197   4.532  17.120  0.3112  0.3846 -0.2849
18266TIP3   OH276288   4.103   1.257   2.600 -0.0767  0.1033  0.5833
18266TIP3    H176289   4.102   1.163   2.617 -0.0963  0.2413  1.3304
18266TIP3    H276290   4.070   1.297   2.680  2.8610  0.9389  1.4327
18267TIP3   OH276291   5.112   4.425   2.354 -0.3944  0.5383 -0.4726
18267TIP3    H176292   5.198   4.455   2.383  0.0891 -0.6182 -0.6726
18267TIP3    H276293   5.124   4.332   2.336 -1.4600  0.5695 -1.4056
18268TIP3   OH276294   1.286   1.717   2.947 -0.0156  0.6331  0.6816
18268TIP3    H176295   1.316   1.638   2.992 -0.4335  0.3705  0.5089
18268TIP3    H276296   1.366   1.764   2.924  0.3198 -0.5517 -0.6561
18269TIP3   OH276297   5.260   6.173  14.503 -0.7423 -0.5955 -0.3656
18269TIP3    H176298   5.256   6.085  14.466  0.7305 -0.7199 -0.2820
18269TIP3    H276299   5.253   6.159  14.597 -0.9226 -0.5882 -0.3782
18270TIP3   OH276300   5.530   1.535  13.387  0.5193 -0.0099 -0.2304
18270TIP3    H176301   5.549   1.469  13.320 -0.7149 -0.4150 -0.1832
18270TIP3    H276302   5.513   1.615  13.338  1.1267  0.0620 -0.3286
18271TIP3   OH276303   3.025   2.817   3.264  0.0867 -0.6180  0.5812
18271TIP3    H176304   3.107   2.841   3.221  0.5718 -1.7969  0.8435
18271TIP3    H276305   2.972   2.897   3.260  1.5911  0.4303  1.2375
18272TIP3   OH276306   3.213   2.524  16.123  0.1439  0.0574  0.5227
18272TIP3    H176307   3.154   2.574  16.179 -0.4599  0.2362 -0.2838
18272TIP3    H276308   3.177   2.435  16.124  0.4052 -0.0490  0.7918
18273TIP3   OH276309   3.408   3.449  14.331 -0.3868  0.7703  0.4931
18273TIP3    H176310   3.422   3.361  14.367 -1.9677  0.0960 -0.5110
18273TIP3    H276311   3.469   3.504  14.380  0.6712 -0.8851  1.1024
18274TIP3   OH276312   0.949   4.469  13.177 -0.1203 -0.4463  0.1930
18274TIP3    H176313   0.866   4.464  13.225  0.0415 -2.1067  0.3235
18274TIP3    H276314   1.016   4.460  13.244  0.1699  0.3375  0.0165
18275TIP3   OH276315   4.184   3.361   4.725  0.3327  0.0313 -0.3753
18275TIP3    H176316   4.159   3.412   4.802 -1.7925 -2.4935  0.6578
18275TIP3    H276317   4.119   3.386   4.658  0.3222 -0.0462 -0.3942
18276TIP3   OH276318   0.212   4.652   4.400 -0.4065  0.2671 -0.2247
18276TIP3    H176319   0.305   4.663   4.382 -0.2449 -1.6586 -0.6241
18276TIP3    H276320   0.168   4.693   4.325  0.1356  0.1862 -0.5871
18277TIP3   OH276321   4.652   4.580   5.503  0.3458  0.4174  0.2324
18277TIP3    H176322   4.570   4.629   5.490  0.9949  1.2997 -0.6540
18277TIP3    H276323   4.628   4.509   5.561 -1.0313  0.7572  0.1120
18278TIP3   OH276324   4.550   1.314   5.586  0.2673 -0.3573  0.2134
18278TIP3    H176325   4.571   1.346   5.673 -2.4279 -2.2916  1.6516
18278TIP3    H276326   4.514   1.390   5.540 -1.3294 -0.0804  1.8803
18279TIP3   OH276327   2.914   1.777  11.084  0.1897  0.1788 -0.0474
18279TIP3    H176328   2.945   1.830  11.011 -0.7156 -0.9090 -1.2374
18279TIP3    H276329   2.834   1.735  11.051 -0.6161  0.2231  1.7973
18280TIP3   OH276330   2.236   2.900   0.408 -0.5932 -0.3348  0.2036
18280TIP3    H176331   2.318   2.853   0.390 -0.2224  0.2975  0.2334
18280TIP3    H276332   2.173   2.831   0.428 -0.2535 -0.8683 -0.5562
18281TIP3   OH276333   4.899   2.096  13.930 -0.0284  0.2601 -0.0418
18281TIP3    H176334   4.956   2.033  13.975  0.1943  0.4708 -0.0288
18281TIP3    H276335   4.874   2.159  13.998 -1.4043 -0.6104  0.2725
18282TIP3   OH276336   0.905   2.783   1.384  0.2984 -0.3587  0.2548
18282TIP3    H176337   0.874   2.856   1.331  2.5110  1.9751  1.9912
18282TIP3    H276338   0.979   2.747   1.335  0.1017 -0.5153  0.0729
18283TIP3   OH276339   1.084   6.348  12.786 -0.0064  0.3133 -0.2016
18283TIP3    H176340   1.114   6.322  12.873 -1.9334  0.4978  0.5343
18283TIP3    H276341   1.098   6.271  12.731 -0.9621 -0.5940  0.8110
18284TIP3   OH276342   4.683   0.251  11.750 -0.4492 -0.6091 -0.1408
18284TIP3    H176343   4.642   0.290  11.673 -0.4621  0.1628  0.2543
18284TIP3    H276344   4.772   0.228  11.721  0.6249  2.5388  0.4748
18285TIP3   OH276345   3.739   3.447  15.228 -0.0819 -0.2109  0.0013
18285TIP3    H176346   3.700   3.399  15.156  0.5892  0.7690 -1.0398
18285TIP3    H276347   3.708   3.403  15.307  0.6809 -2.4546 -0.9321
18286TIP3   OH276348   5.495   2.135  13.553  0.0691 -0.2884 -0.0392
18286TIP3    H176349   5.579   2.180  13.562 -0.2431  0.4713 -0.8306
18286TIP3    H276350   5.456   2.140  13.640 -1.0690  3.2277 -0.6824
18287TIP3   OH276351   3.015   4.626   3.829  0.3275 -0.2820  0.4273
18287TIP3    H176352   3.077   4.656   3.762  1.3965  0.2989  1.6612
18287TIP3    H276353   3.037   4.677   3.907 -0.2438 -1.6792  1.5229
18288TIP3   OH276354   2.970   0.797  14.527 -0.4881  0.2721 -0.1991
18288TIP3    H176355   2.962   0.702  14.518  1.0039 -0.3245  3.5149
18288TIP3    H276356   2.882   0.827  14.547 -0.4242 -0.8544  1.9579
18289TIP3   OH276357   5.817   2.292  11.891 -0.4931 -0.2851 -0.4703
18289TIP3    H176358   5.734   2.310  11.846 -1.0315 -1.7898 -0.1118
18289TIP3    H276359   5.814   2.198  11.910  0.8193 -0.1405  0.5160
18290TIP3   OH276360   4.549   5.926  14.207 -0.4595  0.0556  0.3064
18290TIP3    H176361   4.510   5.872  14.138  1.9679  1.0662 -1.9434
18290TIP3    H276362   4.565   5.865  14.279 -0.9383 -1.5126 -0.8734
18291TIP3   OH276363   2.524   3.881  16.619 -0.0428  0.4538 -0.0378
18291TIP3    H176364   2.447   3.825  16.608  0.8817 -0.7146 -0.7817
18291TIP3    H276365   2.594   3.821  16.644  1.6033  0.8125 -3.3996
18292TIP3   OH276366   4.203   5.875   1.425  0.5527  0.0944  0.2409
18292TIP3    H176367   4.260   5.938   1.469  1.5231 -0.7558  0.2431
18292TIP3    H276368   4.168   5.821   1.496 -1.8825  1.8809  0.4374
18293TIP3   OH276369   0.171   1.380   1.799 -0.4742  0.1494 -0.5450
18293TIP3    H176370   0.185   1.398   1.892  1.7444  3.7594 -1.4823
18293TIP3    H276371   0.244   1.322   1.775  1.0104  2.0788 -0.7806
18294TIP3   OH276372   5.923   3.218  16.248  0.4934  0.7582 -0.0010
18294TIP3    H176373   5.888   3.218  16.338  0.5742  1.2093  0.0296
18294TIP3    H276374   5.852   3.183  16.195  0.3642  0.6997  0.2086
18295TIP3   OH276375   1.924   2.568   6.267  0.2626 -0.1467  0.2874
18295TIP3    H176376   1.910   2.499   6.332  2.2056 -1.2589 -0.4115
18295TIP3    H276377   1.917   2.649   6.316 -2.0267 -0.8301  1.1392
18296TIP3   OH276378   1.325   6.404  11.398 -0.0164  0.2281 -0.2525
18296TIP3    H176379   1.363   6.419  11.484 -0.6504  0.8559 -0.0780
18296TIP3    H276380   1.376   6.331  11.362  0.4892  0.2017  0.5002
18297TIP3   OH276381   2.258   3.764  12.458 -0.7694  0.3124 -0.0980
18297TIP3    H176382   2.245   3.694  12.523 -3.3534  1.2274  0.4382
18297TIP3    H276383   2.286   3.839  12.510  2.2180 -0.3025 -0.7002
18298TIP3   OH276384   2.182   1.208  12.911 -0.1255  0.4039  0.0124
18298TIP3    H176385   2.116   1.276  12.904 -0.9267 -0.2182  1.4950
18298TIP3    H276386   2.193   1.194  13.005  0.9101 -0.6590 -0.2558
18299TIP3   OH276387   2.848   2.566  11.863  1.0575  0.0001  0.3353
18299TIP3    H176388   2.918   2.567  11.928  2.1127 -0.4200 -0.7768
18299TIP3    H276389   2.824   2.474  11.855  0.0619  0.1954  1.0432
18300TIP3   OH276390   5.960   3.404  10.923  0.1963 -0.6739  0.5073
18300TIP3    H176391   5.995   3.346  10.856  0.2846  1.3362 -1.2350
18300TIP3    H276392   5.867   3.382  10.927  0.3820 -1.5031  0.4710
18301TIP3   OH276393   4.606   0.024   6.166  0.2915  0.1439  0.4644
18301TIP3    H176394   4.643  -0.028   6.237 -0.0560  0.9761  1.2711
18301TIP3    H276395   4.538  -0.031   6.128 -1.3722  0.7221  2.5268
18302TIP3   OH276396   2.046   3.993  11.642  0.3802 -0.1137  0.2480
18302TIP3    H176397   2.089   3.910  11.622  1.0799  0.5772 -1.2384
18302TIP3    H276398   2.079   4.017  11.729  0.3873 -1.2567  0.5626
18303TIP3   OH276399   1.630   0.348   1.107  0.7385  0.0184 -0.3966
18303TIP3    H176400   1.660   0.334   1.017 -0.3458 -0.3822 -0.7070
18303TIP3    H276401   1.595   0.437   1.107 -0.5372 -0.4658 -0.7489
18304TIP3   OH276402   5.598   4.427   1.906 -0.2085  0.1778  0.5216
18304TIP3    H176403   5.675   4.399   1.856 -0.9145 -1.7166  0.4459
18304TIP3    H276404   5.545   4.476   1.844 -0.2404 -0.6567 -0.1148
18305TIP3   OH276405   0.858   5.467   4.728  0.1294  0.6207 -0.0548
18305TIP3    H176406   0.893   5.399   4.786 -0.2668  1.3335  1.0301
18305TIP3    H276407   0.894   5.549   4.763 -0.2209  1.0701 -0.7407
18306TIP3   OH276408   5.499   5.325  13.128  0.1811  0.3544  0.2712
18306TIP3    H176409   5.439   5.311  13.055 -0.0981  0.6283  0.4465
18306TIP3    H276410   5.532   5.414  13.115 -0.4215  0.6757  0.8730
18307TIP3   OH276411   2.576   4.979   2.557 -0.2002  0.2139 -0.3594
18307TIP3    H176412   2.487   4.954   2.534 -0.3062  1.2303 -1.1117
18307TIP3    H276413   2.572   5.075   2.566  0.2291  0.0199  2.1755
18308TIP3   OH276414   6.430   5.237  12.283  0.0232  0.5196 -0.3188
18308TIP3    H176415   6.422   5.152  12.326 -0.3617  0.4475 -0.5386
18308TIP3    H276416   6.353   5.244  12.227 -0.5072  1.4858  0.5175
18309TIP3   OH276417   4.617   0.879   5.269 -0.0792  0.0002  0.1609
18309TIP3    H176418   4.639   0.965   5.233 -2.7708 -0.1672 -2.0909
18309TIP3    H276419   4.648   0.817   5.202  0.4361 -0.6858  1.0345
18310TIP3   OH276420   3.818   4.380   4.943  0.0711 -0.2579  0.3135
18310TIP3    H176421   3.889   4.323   4.916  0.2152 -0.5216  1.2185
18310TIP3    H276422   3.826   4.457   4.886  1.4230 -0.0392  0.7719
18311TIP3   OH276423   4.274   1.417   2.974 -0.3808 -0.7826  0.0870
18311TIP3    H176424   4.268   1.512   2.988 -1.4481 -0.6460 -1.2557
18311TIP3    H276425   4.281   1.381   3.062  1.9859  0.6697  0.5287
18312TIP3   OH276426   6.382   5.590  12.268 -0.0374 -0.4933 -0.7839
18312TIP3    H176427   6.460   5.627  12.308 -0.7606  0.7874 -0.5081
18312TIP3    H276428   6.337   5.666  12.229 -1.4760 -1.0959 -0.3464
18313TIP3   OH276429   4.392   5.805  15.150  0.7524  0.1852 -0.0203
18313TIP3    H176430   4.457   5.867  15.118 -0.3533  0.9763 -0.7435
18313TIP3    H276431   4.379   5.744  15.078 -1.0188  1.4034 -0.7841
18314TIP3   OH276432   4.258   0.709   1.710  0.0650 -0.8006  0.1455
18314TIP3    H176433   4.211   0.714   1.793  2.5333  1.1357  1.4507
18314TIP3    H276434   4.226   0.784   1.660  1.5204  0.3740  0.9389
18315TIP3   OH276435   4.096   0.357  11.444 -0.2928  0.1715  0.9329
18315TIP3    H176436   4.096   0.284  11.506 -0.1758 -3.1996 -2.8591
18315TIP3    H276437   4.005   0.361  11.413 -0.2456  1.5360  0.9506
18316TIP3   OH276438   4.015   1.878  13.123  0.0798 -0.5262  0.0666
18316TIP3    H176439   4.015   1.877  13.218  0.6088 -0.0697  0.0761
18316TIP3    H276440   4.031   1.970  13.100 -3.1871 -0.0455 -0.4825
18317TIP3   OH276441   1.200   2.739  16.784  0.5006 -0.2431 -0.1611
18317TIP3    H176442   1.286   2.763  16.817 -0.2214  0.8378  0.9537
18317TIP3    H276443   1.154   2.704  16.860 -0.7922  1.2263 -0.2435
18318TIP3   OH276444   6.347   0.181  16.645 -1.0509  0.1099 -0.1752
18318TIP3    H176445   6.356   0.271  16.614 -1.4253 -0.1625 -1.1044
18318TIP3    H276446   6.353   0.187  16.740  0.1755  0.9684 -0.2924
18319TIP3   OH276447   5.605   1.284  16.455  0.3272  0.3519  0.3375
18319TIP3    H176448   5.692   1.249  16.434 -0.1098  0.2878 -1.5012
18319TIP3    H276449   5.552   1.207  16.474  0.3196  0.2866  0.0553
18320TIP3   OH276450   1.989   2.078  16.162 -0.1238 -0.6537  0.1949
18320TIP3    H176451   1.907   2.045  16.199 -0.1763  1.3312  1.9942
18320TIP3    H276452   1.973   2.171  16.147  1.6680 -0.3174  0.2278
18321TIP3   OH276453   5.823   5.199   0.615  0.1842  0.3430  0.5973
18321TIP3    H176454   5.775   5.264   0.564  0.8622  0.1416 -0.3021
18321TIP3    H276455   5.771   5.189   0.695 -0.8011  0.7683  0.0231
18322TIP3   OH276456   0.691   5.151   0.506  0.3121  0.4024 -0.6664
18322TIP3    H176457   0.772   5.142   0.557 -0.2420 -0.2176  0.1038
18322TIP3    H276458   0.626   5.182   0.569 -0.0429  0.9907 -1.3038
18323TIP3   OH276459   1.854   0.280   3.228  0.2146 -0.2544  0.0820
18323TIP3    H176460   1.918   0.336   3.184 -0.4003  0.3715 -0.0039
18323TIP3    H276461   1.901   0.197   3.241  0.7121 -0.1262 -0.8857
18324TIP3   OH276462   3.618   6.071   5.701  0.3947 -0.2855  0.2170
18324TIP3    H176463   3.653   6.011   5.767  0.8124 -1.6383 -1.2222
18324TIP3    H276464   3.681   6.068   5.629 -1.2710 -0.6806 -1.2687
18325TIP3   OH276465   2.331   0.645  14.905  0.7335  0.8715 -0.2739
18325TIP3    H176466   2.308   0.726  14.951 -1.8660 -0.2050  0.3871
18325TIP3    H276467   2.350   0.582  14.975  1.4880  0.5290 -0.7685
18326TIP3   OH276468   1.017   6.530  16.044 -0.6360  0.4538  0.5568
18326TIP3    H176469   1.067   6.611  16.052  0.5651 -0.4208  2.1856
18326TIP3    H276470   0.928   6.554  16.070 -0.6674  1.5733 -0.4942
18327TIP3   OH276471   5.343   5.411   1.732 -0.5195  0.1289 -0.1621
18327TIP3    H176472   5.286   5.477   1.692 -1.0938 -1.0782 -1.3768
18327TIP3    H276473   5.300   5.327   1.712  0.7563 -0.6845  0.4494
18328TIP3   OH276474   0.347   0.204  12.699  0.5354 -0.1477 -0.4421
18328TIP3    H176475   0.265   0.178  12.655  1.5169 -0.1008 -2.3738
18328TIP3    H276476   0.400   0.124  12.698 -0.6204 -1.0666  3.6232
18329TIP3   OH276477   1.379   3.246  14.539  0.0060 -0.2897 -0.3868
18329TIP3    H176478   1.415   3.160  14.518  0.4981 -0.4440  1.0038
18329TIP3    H276479   1.293   3.228  14.576 -0.3677 -0.1030 -1.1565
18330TIP3   OH276480   2.759   0.587  13.918  0.4985  0.5080  0.0997
18330TIP3    H176481   2.820   0.598  13.845 -0.1752  0.7539 -0.4276
18330TIP3    H276482   2.807   0.532  13.981  0.5402 -0.9446 -1.1605
18331TIP3   OH276483   5.662   4.351  14.233 -0.4601 -0.3391  0.2093
18331TIP3    H176484   5.741   4.300  14.256 -0.4062  0.3507  1.5588
18331TIP3    H276485   5.590   4.289  14.244 -0.1528 -0.8751 -0.6940
18332TIP3   OH276486   2.805   0.355  11.519  0.4150  0.0121 -0.0952
18332TIP3    H176487   2.767   0.427  11.569 -0.2609 -0.3244 -0.1081
18332TIP3    H276488   2.849   0.301  11.585  2.1193  1.1623 -0.2680
18333TIP3   OH276489   6.252   4.594  16.349 -0.1851  0.4543  0.1576
18333TIP3    H176490   6.321   4.547  16.397 -1.3213 -3.0089 -1.4411
18333TIP3    H276491   6.299   4.664  16.302  1.8074 -0.0399  1.3577
18334TIP3   OH276492   1.872   5.493   3.268 -0.4709  0.1642  0.4315
18334TIP3    H176493   1.814   5.418   3.283  0.4612 -0.6108  0.2015
18334TIP3    H276494   1.956   5.466   3.305  0.0978  0.7719 -0.3916
18335TIP3   OH276495   3.533   5.384   0.605 -0.8895 -0.8296 -0.4347
18335TIP3    H176496   3.562   5.313   0.662  1.5435 -0.8315 -1.6160
18335TIP3    H276497   3.522   5.459   0.663  1.9744 -0.7136  0.0411
18336TIP3   OH276498   5.023   2.392   5.801  0.2033 -0.4587  0.4510
18336TIP3    H176499   5.085   2.433   5.740 -0.8681  1.3411  0.5380
18336TIP3    H276500   4.951   2.362   5.746 -0.7913  1.2197  0.8237
18337TIP3   OH276501   0.285   3.110   5.714 -0.0195 -0.1782  1.0908
18337TIP3    H176502   0.277   3.166   5.792 -0.1601  2.4261 -0.7223
18337TIP3    H276503   0.375   3.079   5.715  0.6023  1.6095  1.1349
18338TIP3   OH276504   0.700   4.062  12.552 -0.2346  0.3431 -1.0212
18338TIP3    H176505   0.649   4.143  12.564 -0.8604 -0.2336  0.3097
18338TIP3    H276506   0.635   3.998  12.524 -0.5132 -0.6969  1.8137
18339TIP3   OH276507   2.356   0.867  16.938 -0.7481 -0.9157 -0.5859
18339TIP3    H176508   2.319   0.874  17.026 -0.5763  0.5943 -0.6200
18339TIP3    H276509   2.280   0.852  16.881 -0.9510 -1.0792 -0.2743
18340TIP3   OH276510   6.728   5.439   3.221 -0.0387  0.2674 -0.1283
18340TIP3    H176511   6.735   5.498   3.146 -0.9533  1.4218  0.6749
18340TIP3    H276512   6.784   5.477   3.288  1.4609 -1.2310 -0.4877
18341TIP3   OH276513   2.599   6.240  13.292  0.0113  0.3806 -0.3905
18341TIP3    H176514   2.577   6.157  13.335  1.9501  0.6609  1.2411
18341TIP3    H276515   2.673   6.274  13.343  1.2004  1.6410 -2.8574
18342TIP3   OH276516   0.384   4.257   1.049 -0.1747 -0.0022  0.3617
18342TIP3    H176517   0.342   4.179   1.014  1.5364 -0.2124 -1.2697
18342TIP3    H276518   0.349   4.329   0.997 -1.3681  0.2703  1.5282
18343TIP3   OH276519   5.886   4.535  17.021 -0.1406  0.8235  0.1364
18343TIP3    H176520   5.805   4.515  16.973  1.5144 -2.2042 -1.5141
18343TIP3    H276521   5.899   4.459  17.077  1.4621  1.3973  0.5576
18344TIP3   OH276522   0.182   5.475   1.975  0.1916  0.1653 -0.0452
18344TIP3    H176523   0.270   5.468   2.012 -0.7655  0.5758  2.3582
18344TIP3    H276524   0.167   5.570   1.967 -0.8482  0.1404  1.5558
18345TIP3   OH276525   3.494   0.815  12.003 -0.3581 -0.0843  0.2444
18345TIP3    H176526   3.574   0.809  11.951 -1.1667  0.6974 -1.1399
18345TIP3    H276527   3.430   0.852  11.943 -1.3403  0.8126  1.8085
18346TIP3   OH276528   4.931   1.890  15.420  1.2574 -0.7834  0.3899
18346TIP3    H176529   5.025   1.874  15.425  1.2773 -0.5889  0.6381
18346TIP3    H276530   4.906   1.858  15.333  1.6366 -0.4121  0.1422
18347TIP3   OH276531   3.323   5.421  14.784 -0.0252  0.1371  0.3075
18347TIP3    H176532   3.326   5.412  14.879  0.9984  0.1924  0.2841
18347TIP3    H276533   3.373   5.500  14.765  0.5053 -0.3379 -0.3315
18348TIP3   OH276534   5.288   1.995   1.272  0.1902 -0.1976 -0.1463
18348TIP3    H176535   5.346   2.006   1.347  0.1139  1.3061 -0.2981
18348TIP3    H276536   5.298   2.076   1.222 -2.8647  0.5629  0.4010
18349TIP3   OH276537   4.263   6.039   4.333 -0.0757  0.4164  0.2608
18349TIP3    H176538   4.332   6.089   4.291  0.1955 -0.7603 -0.7040
18349TIP3    H276539   4.307   5.991   4.403  0.3251 -1.2395 -1.0892
18350TIP3   OH276540   4.608   1.243  11.576  0.6200 -0.2692  0.3277
18350TIP3    H176541   4.638   1.158  11.543  0.2093 -0.5862  0.7735
18350TIP3    H276542   4.585   1.227  11.667 -3.0752 -0.5673 -0.5881
18351TIP3   OH276543   5.921   5.129   4.566  0.1593  0.0454  0.7026
18351TIP3    H176544   5.993   5.094   4.618  0.4432 -0.1618  0.1722
18351TIP3    H276545   5.934   5.093   4.478 -0.7742 -0.2626  0.6755
18352TIP3   OH276546   3.019   0.842  16.857 -0.0481 -0.3100  0.5058
18352TIP3    H176547   3.031   0.851  16.952 -0.1940  0.6086  0.4398
18352TIP3    H276548   3.108   0.839  16.822  0.0279  2.2999  0.4071
18353TIP3   OH276549   2.491   5.335  12.159 -0.4261  0.0072 -0.4191
18353TIP3    H176550   2.501   5.430  12.166 -1.6527  0.2055 -1.1299
18353TIP3    H276551   2.577   5.299  12.181  0.6272  1.3768 -2.2350
18354TIP3   OH276552   5.864   6.124  13.238 -0.0735  0.2070 -0.0850
18354TIP3    H176553   5.881   6.046  13.290 -0.6962 -0.6440 -1.1304
18354TIP3    H276554   5.768   6.133  13.239  0.0158  1.1753  0.3406
18355TIP3   OH276555   0.742   6.168   5.025  0.9384 -0.1435 -0.0486
18355TIP3    H176556   0.660   6.166   4.974  0.3607  0.1842  0.8589
18355TIP3    H276557   0.733   6.244   5.082  1.5814 -0.5213  0.5654
18356TIP3   OH276558   3.303   6.193   0.462 -0.0600 -0.8364 -0.1389
18356TIP3    H176559   3.255   6.192   0.545  0.3867  0.1505  0.1300
18356TIP3    H276560   3.268   6.118   0.413 -1.6000 -0.3484  0.2058
18357TIP3   OH276561   5.174   0.762  16.577  0.0132 -0.3386  0.2850
18357TIP3    H176562   5.176   0.708  16.656  0.7567  0.4538  0.8073
18357TIP3    H276563   5.255   0.812  16.579 -0.7164  0.8825 -0.1501
18358TIP3   OH276564   6.671   1.708   1.269  0.3142 -0.0107  0.9049
18358TIP3    H176565   6.639   1.671   1.187  2.7003 -0.3110  0.0652
18358TIP3    H276566   6.609   1.778   1.289 -1.8188 -1.6669  0.2758
18359TIP3   OH276567   0.830   2.282  13.065  0.5323  0.5318 -0.0567
18359TIP3    H176568   0.897   2.252  13.126  2.0338  2.3432 -0.7634
18359TIP3    H276569   0.860   2.254  12.979 -0.7018 -0.4968 -0.1621
18360TIP3   OH276570   4.229   1.090   4.982 -0.1759 -0.8485  0.0300
18360TIP3    H176571   4.175   1.152   4.933  0.8912 -0.6828 -0.9324
18360TIP3    H276572   4.260   1.139   5.057  0.0438 -0.4495 -0.3249
18361TIP3   OH276573   5.784   2.835   3.874  0.4937  0.1478  0.1344
18361TIP3    H176574   5.829   2.905   3.827 -0.9644  0.5567 -0.6908
18361TIP3    H276575   5.853   2.790   3.922  1.3046  2.9347  1.7127
18362TIP3   OH276576   4.738   5.459  11.811 -0.6421 -0.1681  0.1937
18362TIP3    H176577   4.677   5.527  11.842 -1.4957  0.2222 -2.2186
18362TIP3    H276578   4.699   5.429  11.729  2.1318 -0.3243 -1.0956
18363TIP3   OH276579   3.503   4.453   4.890 -0.5237  0.4619 -0.2240
18363TIP3    H176580   3.440   4.407   4.946 -0.5956 -0.2598 -0.8848
18363TIP3    H276581   3.572   4.389   4.875  0.6856  1.4528  0.9972
18364TIP3   OH276582   0.025   1.734  13.080  0.4987 -0.1884  0.1194
18364TIP3    H176583  -0.069   1.729  13.099  0.7457 -1.2584  1.1512
18364TIP3    H276584   0.036   1.816  13.032 -1.1272 -0.5904 -0.9901
18365TIP3   OH276585   0.893   5.766  12.116 -0.0733  0.3963 -0.0262
18365TIP3    H176586   0.806   5.727  12.114 -0.7780  1.9094  0.5206
18365TIP3    H276587   0.947   5.707  12.063 -1.7182  0.1593 -1.4743
18366TIP3   OH276588   6.808   3.996   1.485  0.0097  0.0645 -0.3330
18366TIP3    H176589   6.878   3.989   1.420 -1.3351  0.0001 -1.8136
18366TIP3    H276590   6.785   3.905   1.505  0.1372  0.0872 -0.0839
18367TIP3   OH276591   6.229   2.020   0.237 -0.2666 -0.2785 -0.3428
18367TIP3    H176592   6.316   1.996   0.204  0.4651 -0.1914  1.4403
18367TIP3    H276593   6.181   1.937   0.242  0.0569 -0.4703 -0.3870
18368TIP3   OH276594   4.482   5.259   3.351 -0.0736  0.2214  0.3524
18368TIP3    H176595   4.505   5.291   3.264  1.5412  0.0000  0.6787
18368TIP3    H276596   4.552   5.290   3.407 -0.2095 -1.0753  1.2748
18369TIP3   OH276597   2.483   3.957  11.782 -0.3114  0.0262  0.4915
18369TIP3    H176598   2.484   4.020  11.710 -1.6146 -0.7965 -0.2664
18369TIP3    H276599   2.449   4.007  11.857 -0.2943  0.5122  0.1750
18370TIP3   OH276600   1.957   2.868   6.342 -0.1907  0.0866 -0.2777
18370TIP3    H176601   1.929   2.959   6.344 -2.1282 -0.4489 -1.1079
18370TIP3    H276602   1.955   2.840   6.433 -1.3693  0.3826 -0.1989
18371TIP3   OH276603   4.405   5.653   3.974  0.2526 -0.2211 -0.1918
18371TIP3    H176604   4.400   5.561   3.946 -3.7036  0.2754 -1.4631
18371TIP3    H276605   4.316   5.672   4.006  1.4849  2.7040  1.6712
18372TIP3   OH276606   3.887   5.746   3.228 -0.3195  0.5616 -0.2879
18372TIP3    H176607   3.881   5.686   3.303 -1.7774 -0.1073 -0.9036
18372TIP3    H276608   3.981   5.753   3.210 -0.1612 -2.4925 -0.9164
18373TIP3   OH276609   1.901   6.568   2.267 -0.0875 -0.1859 -0.3747
18373TIP3    H176610   1.922   6.552   2.175 -2.0439 -2.0663 -0.5477
18373TIP3    H276611   1.925   6.487   2.311  0.2186  0.4680  0.6601
18374TIP3   OH276612   0.421   4.957   5.295  0.1890  0.0716 -0.1741
18374TIP3    H176613   0.496   4.924   5.246 -0.2173 -1.7334  0.3935
18374TIP3    H276614   0.408   4.893   5.365 -3.5738 -1.1237 -1.8737
18375TIP3   OH276615   6.346   6.340   1.550 -0.3459  0.6951 -0.3276
18375TIP3    H176616   6.356   6.350   1.455 -0.7380  0.6638 -0.3763
18375TIP3    H276617   6.358   6.428   1.585  0.7190  0.5470 -0.3174
18376TIP3   OH276618   5.488   5.958  13.705 -0.0158 -0.4518  0.2820
18376TIP3    H176619   5.565   5.988  13.753  0.4183  0.8784 -1.2108
18376TIP3    H276620   5.448   6.038  13.671 -0.0729 -1.4102 -1.9476
18377TIP3   OH276621   2.651   0.482   4.115 -0.1301 -0.2898 -0.2517
18377TIP3    H176622   2.598   0.407   4.142 -0.4494  0.2768  0.7298
18377TIP3    H276623   2.606   0.558   4.152  0.5131  0.3427 -0.7344
18378TIP3   OH276624   6.809   2.246   5.415 -0.2585  0.0536 -0.5883
18378TIP3    H176625   6.815   2.332   5.455 -0.9080 -0.1835  0.0140
18378TIP3    H276626   6.730   2.207   5.452 -0.1142 -0.6978 -1.0589
18379TIP3   OH276627   3.769   5.792   6.454 -0.1988 -0.6818  0.1774
18379TIP3    H176628   3.698   5.776   6.391  1.3008  2.2545 -2.3710
18379TIP3    H276629   3.741   5.870   6.501  1.0439  0.1191 -0.4057
18380TIP3   OH276630   2.266   4.395  16.633 -0.5783  0.9227  0.1591
18380TIP3    H176631   2.208   4.468  16.613 -0.1294  1.4058  0.6065
18380TIP3    H276632   2.211   4.333  16.681 -0.0793  2.5699  2.9698
18381TIP3   OH276633   5.672   5.513   2.747 -0.0735  0.0923 -0.7336
18381TIP3    H176634   5.670   5.467   2.830 -1.6342 -0.7787 -1.2311
18381TIP3    H276635   5.582   5.509   2.715  0.6209 -0.1014 -2.7370
18382TIP3   OH276636   5.527   0.007   6.126  0.3676 -0.1814  0.0982
18382TIP3    H176637   5.604   0.031   6.176  1.1154 -1.8046 -0.2283
18382TIP3    H276638   5.561  -0.013   6.038 -0.5800  0.2427 -0.3725
18383TIP3   OH276639   4.999   3.848  11.078 -0.1902  0.6384 -0.0469
18383TIP3    H176640   4.912   3.877  11.051 -0.6160 -0.2937  0.3017
18383TIP3    H276641   5.055   3.868  11.003 -0.8281  0.6475 -0.5276
18384TIP3   OH276642   3.116   1.602   2.251 -0.1019  0.4339  0.3272
18384TIP3    H176643   3.206   1.580   2.230 -1.1874 -2.4034 -1.6819
18384TIP3    H276644   3.075   1.618   2.167 -1.9514 -0.3349  1.0479
18385TIP3   OH276645   4.172   6.777  13.725 -0.3354  0.2220 -0.1476
18385TIP3    H176646   4.098   6.809  13.674  0.5557 -1.4156 -2.5973
18385TIP3    H276647   4.242   6.842  13.709 -0.5998  0.6751  0.4998
18386TIP3   OH276648   6.210   4.056   4.548  0.3341 -0.0626 -0.0059
18386TIP3    H176649   6.239   4.013   4.629  0.8001  0.7077  0.2395
18386TIP3    H276650   6.200   3.984   4.485  2.1853 -0.4106  0.0746
18387TIP3   OH276651   3.295   0.555  10.918  0.1018  0.5126  0.4092
18387TIP3    H176652   3.376   0.590  10.955  0.9409  2.8798 -3.3089
18387TIP3    H276653   3.240   0.632  10.904 -2.2497 -0.9037  1.5203
18388TIP3   OH276654   0.236   4.000  12.182  0.8251 -0.3408 -0.0599
18388TIP3    H176655   0.311   3.971  12.129  0.7919 -0.7960  0.1434
18388TIP3    H276656   0.170   4.026  12.118  1.0014 -0.3383 -0.2414
18389TIP3   OH276657   5.941   3.952  13.538 -0.1387 -0.3139 -0.3538
18389TIP3    H176658   6.000   3.976  13.610 -0.6159 -0.5861  0.1366
18389TIP3    H276659   5.934   3.856  13.544 -0.6417 -0.2811 -0.3988
18390TIP3   OH276660   3.081   1.876   1.838  0.4530  0.4334 -0.0640
18390TIP3    H176661   3.032   1.873   1.756 -1.6412  0.1329  1.1636
18390TIP3    H276662   3.137   1.953   1.829  1.9585 -0.9020 -2.6811
18391TIP3   OH276663   2.700   2.367  13.373 -0.0492  0.1040 -0.4462
18391TIP3    H176664   2.607   2.350  13.364  0.2505 -1.4299 -0.6364
18391TIP3    H276665   2.734   2.367  13.284  0.5439 -1.7242 -0.2357
18392TIP3   OH276666   5.855   1.634   5.457 -0.1474 -0.4571  0.0303
18392TIP3    H176667   5.792   1.574   5.419 -2.5051  1.5439  0.6763
18392TIP3    H276668   5.853   1.616   5.551  0.2152 -0.3378  0.0645
18393TIP3   OH276669   0.201   0.038   5.086  0.3380  0.0165  0.4194
18393TIP3    H176670   0.156   0.063   5.005 -1.2053 -1.3642  0.8223
18393TIP3    H276671   0.283  -0.002   5.056 -1.1433 -2.4098 -0.6120
18394TIP3   OH276672   2.226   4.088  14.593  0.6423 -0.1630 -0.2617
18394TIP3    H176673   2.291   4.153  14.620  0.1282 -0.4574  1.7681
18394TIP3    H276674   2.240   4.077  14.499  1.9603  1.5119 -0.2753
18395TIP3   OH276675   2.023   6.451   0.985  0.3249  0.1717 -0.6645
18395TIP3    H176676   2.053   6.389   0.919 -0.7464 -0.4354 -0.6003
18395TIP3    H276677   2.070   6.532   0.965  0.9995 -0.3764 -1.3527
18396TIP3   OH276678   0.463   4.201  16.475 -0.2824 -0.3457 -0.2656
18396TIP3    H176679   0.390   4.167  16.526 -1.5635  2.5325 -0.0631
18396TIP3    H276680   0.450   4.167  16.387 -0.8000 -1.3552  0.1943
18397TIP3   OH276681   3.791   3.117  11.899  0.3579 -0.5418 -0.0099
18397TIP3    H176682   3.829   3.059  11.832  1.9754 -0.0111  0.4225
18397TIP3    H276683   3.854   3.188  11.907  0.0035 -0.4283  1.8411
18398TIP3   OH276684   3.231   6.625   1.545  0.0642  0.7640 -0.1322
18398TIP3    H176685   3.296   6.667   1.601 -0.6644 -0.3002  1.5280
18398TIP3    H276686   3.149   6.628   1.595 -0.0558 -2.4595 -0.0082
18399TIP3   OH276687   3.747   0.762   0.094 -0.4193  0.1297  0.3978
18399TIP3    H176688   3.666   0.718   0.068 -0.0871 -0.4218  0.2846
18399TIP3    H276689   3.748   0.754   0.189 -0.7340  0.5609  0.4410
18400TIP3   OH276690   0.147   4.745   3.946 -0.1041 -0.1263  0.2203
18400TIP3    H176691   0.241   4.756   3.961  0.1349  0.6600 -1.5997
18400TIP3    H276692   0.113   4.835   3.945 -1.0585 -0.4637  1.9372
18401TIP3   OH276693   0.159   6.304   3.698 -0.7323  0.0274 -0.7850
18401TIP3    H176694   0.118   6.361   3.763 -1.0322 -0.1721 -0.7974
18401TIP3    H276695   0.252   6.306   3.719 -0.8080  0.1021 -0.4568
18402TIP3   OH276696   1.437   4.837  14.565  0.4449 -0.1186  0.4836
18402TIP3    H176697   1.468   4.836  14.475  0.5387 -0.2563  0.5172
18402TIP3    H276698   1.508   4.798  14.615 -0.1488 -1.2606  0.4492
18403TIP3   OH276699   1.305   2.186  12.535 -0.2312  0.1028  0.1537
18403TIP3    H176700   1.400   2.183  12.523 -0.3653  0.7274 -1.1159
18403TIP3    H276701   1.290   2.267  12.585 -0.1409  0.2944 -0.1266
18404TIP3   OH276702   2.308   6.509   4.451  0.1579 -0.0871  0.3681
18404TIP3    H176703   2.297   6.418   4.424  2.1930 -0.3672  0.4398
18404TIP3    H276704   2.229   6.529   4.502 -0.6240 -1.5721 -0.2289
18405TIP3   OH276705   0.857   3.758  14.361 -0.5420 -0.3794  0.2076
18405TIP3    H176706   0.793   3.828  14.373 -0.2734  0.0229 -0.6619
18405TIP3    H276707   0.924   3.796  14.305  1.0974 -0.4198  2.0946
18406TIP3   OH276708   2.766   2.723   5.052  0.1390 -0.5127 -0.0458
18406TIP3    H176709   2.683   2.701   5.093  1.4974 -4.1360  0.9707
18406TIP3    H276710   2.824   2.745   5.125  0.5231  0.3603 -0.6099
18407TIP3   OH276711   5.208   4.483   3.685  0.0433  0.1483 -0.3437
18407TIP3    H176712   5.179   4.573   3.675  0.1271  0.1528 -0.5631
18407TIP3    H276713   5.281   4.475   3.623  1.1568  0.4284  0.9151
18408TIP3   OH276714   5.555   0.919  13.781 -0.4728 -0.2807 -0.2817
18408TIP3    H176715   5.540   0.848  13.719 -0.7957  1.0113 -1.7002
18408TIP3    H276716   5.648   0.939  13.772 -0.9214  1.2230 -1.8055
18409TIP3   OH276717   0.951   6.533   1.994 -0.1417 -0.1875 -0.7015
18409TIP3    H176718   0.888   6.471   2.032  0.9571  0.5150  2.4002
18409TIP3    H276719   0.899   6.586   1.933 -2.5004  0.0866  1.4534
18410TIP3   OH276720   3.618   5.066  16.113 -0.0147 -0.5528  0.1335
18410TIP3    H176721   3.712   5.066  16.131 -0.5901  2.6307  4.1440
18410TIP3    H276722   3.582   5.006  16.178 -0.9129 -0.2716 -0.1048
18411TIP3   OH276723   1.301   0.048   4.727  0.1495  0.0602 -0.1056
18411TIP3    H176724   1.246  -0.014   4.775  0.6194  0.2915  0.7388
18411TIP3    H276725   1.259   0.133   4.741  0.7868  0.2523  0.6346
18412TIP3   OH276726   3.209   4.366   0.778 -0.1799 -0.1391  0.1661
18412TIP3    H176727   3.187   4.277   0.751 -1.9785  0.3568 -0.1299
18412TIP3    H276728   3.267   4.399   0.710 -0.1991 -0.8077 -0.1766
18413TIP3   OH276729   1.977   1.623  11.204  0.1021 -0.3311  0.6407
18413TIP3    H176730   1.936   1.591  11.124  0.8423  1.9275 -0.6680
18413TIP3    H276731   1.903   1.646  11.260 -0.4170 -2.0199  0.6749
18414TIP3   OH276732   6.792   0.236  11.553 -0.4793  0.3758 -0.3367
18414TIP3    H176733   6.850   0.239  11.476 -0.3443  1.1395 -0.2183
18414TIP3    H276734   6.709   0.202  11.520 -0.4775  0.8694 -0.8646
18415TIP3   OH276735   6.483   2.244  11.551 -0.0477 -0.1241 -0.1550
18415TIP3    H176736   6.483   2.158  11.594  0.1625  0.6657  1.4483
18415TIP3    H276737   6.426   2.298  11.605  2.0416  1.5229  0.4731
18416TIP3   OH276738   2.907   4.586  13.421  0.1689  0.0909 -0.2417
18416TIP3    H176739   2.880   4.577  13.330 -0.1075 -0.2362 -0.1281
18416TIP3    H276740   2.969   4.513  13.435  0.3051  0.2132 -0.2039
18417TIP3   OH276741   4.977   1.777  13.717 -0.0792 -0.0839 -0.5745
18417TIP3    H176742   5.014   1.722  13.786 -2.0759 -0.4878  0.1891
18417TIP3    H276743   4.997   1.728  13.636  0.3175 -0.7067 -0.1128
18418TIP3   OH276744   5.667   3.097  14.157  0.1073  0.3440 -0.7482
18418TIP3    H176745   5.634   3.076  14.070 -1.3947  1.7152 -0.5359
18418TIP3    H276746   5.595   3.074  14.216  0.8276  0.1308  0.0534
18419TIP3   OH276747   0.563   0.373   2.386  0.1102 -0.1928 -0.5821
18419TIP3    H176748   0.488   0.340   2.436  1.8223 -1.1044  1.4459
18419TIP3    H276749   0.601   0.441   2.441  0.0800  1.1162 -2.1400
18420TIP3   OH276750   3.461   4.220   0.091  0.6152  0.1405  0.4475
18420TIP3    H176751   3.428   4.132   0.109 -0.3680  0.8616  2.2467
18420TIP3    H276752   3.408   4.250   0.017 -0.4985  0.0221  1.1849
18421TIP3   OH276753   3.159   2.264  16.871 -0.6352  0.2838  0.0474
18421TIP3    H176754   3.128   2.262  16.780 -1.7370  1.7982  0.3720
18421TIP3    H276755   3.250   2.236  16.865 -0.5152  0.9437 -1.6139
18422TIP3   OH276756   1.632   3.285  13.894  0.4074  0.3527  0.2403
18422TIP3    H176757   1.623   3.256  13.803 -1.0211  1.5923 -0.0273
18422TIP3    H276758   1.685   3.364  13.889 -0.5302  0.9902  0.3832
18423TIP3   OH276759   1.887   1.715   3.524  0.1237 -0.2827  0.0019
18423TIP3    H176760   1.866   1.748   3.437  0.9379 -1.2567 -0.5726
18423TIP3    H276761   1.971   1.669   3.513  1.1590  1.1471  1.6566
18424TIP3   OH276762   3.165   2.419   3.560 -0.1257 -0.0559 -0.1389
18424TIP3    H176763   3.081   2.374   3.557 -0.0817 -0.1355 -0.1928
18424TIP3    H276764   3.149   2.504   3.520 -0.1464 -0.1264 -0.2820
18425TIP3   OH276765   3.029   0.262  17.190  0.3100  0.3298  0.1836
18425TIP3    H176766   3.112   0.298  17.159 -0.8303  3.2256  0.3145
18425TIP3    H276767   3.041   0.248  17.283 -0.5588  4.6033  1.0249
18426TIP3   OH276768   5.498   6.353   3.538 -0.4703  0.0208  0.1510
18426TIP3    H176769   5.499   6.446   3.512  0.5532 -0.1880 -0.6066
18426TIP3    H276770   5.570   6.314   3.487  0.6796 -0.6964  2.2672
18427TIP3   OH276771   1.710   0.726  17.033 -0.0953  0.1880 -0.2231
18427TIP3    H176772   1.681   0.637  17.014  0.2322  0.4364 -1.8782
18427TIP3    H276773   1.805   0.720  17.041 -0.3170 -0.1484  2.6803
18428TIP3   OH276774   6.193   4.306   4.067  0.5928  0.2567  0.0660
18428TIP3    H176775   6.125   4.240   4.075  0.7037  0.2860  1.3718
18428TIP3    H276776   6.245   4.279   3.992 -0.8269  0.2015 -0.9049
18429TIP3   OH276777   0.552   3.747  14.131  0.2335 -0.6120  0.6441
18429TIP3    H176778   0.641   3.727  14.160  1.3696  1.3931 -1.3304
18429TIP3    H276779   0.541   3.698  14.049 -0.3850 -0.6092  0.7202
18430TIP3   OH276780   0.056   1.910   2.374 -0.4936  0.2416  0.0663
18430TIP3    H176781   0.049   1.827   2.327 -2.8020 -0.4726  1.6194
18430TIP3    H276782   0.091   1.887   2.460  1.2614  1.2195 -0.3609
18431TIP3   OH276783   2.023   5.850   5.178  0.7803  0.1519 -0.0644
18431TIP3    H176784   1.943   5.862   5.228  0.9676 -0.9302  0.5248
18431TIP3    H276785   2.068   5.777   5.222  1.5719  0.0513 -1.0158
18432TIP3   OH276786   3.065   1.513  16.591 -0.0121  0.2052 -0.1316
18432TIP3    H176787   2.999   1.475  16.649 -0.8094  1.7929  0.0265
18432TIP3    H276788   3.039   1.484  16.503  0.4444 -1.1149  0.1590
18433TIP3   OH276789   3.496   6.223   4.055 -0.9996 -0.6340  0.3487
18433TIP3    H176790   3.566   6.195   4.114 -1.3673  0.1652  1.1754
18433TIP3    H276791   3.444   6.145   4.041 -0.0028 -1.2161 -0.2022
18434TIP3   OH276792   3.101   2.518  14.033  0.0457 -0.1788  0.8371
18434TIP3    H176793   3.021   2.551  13.993  0.7985  0.4892 -0.1567
18434TIP3    H276794   3.094   2.423  14.026 -0.3459 -0.1020  0.1222
18435TIP3   OH276795   1.192   0.228  14.244  0.2316 -0.0593 -0.2860
18435TIP3    H176796   1.211   0.136  14.260 -1.9959 -0.2632  1.4685
18435TIP3    H276797   1.236   0.274  14.315 -2.1054 -0.1827  1.3181
18436TIP3   OH276798   1.266   0.653   2.073 -0.5079 -0.0049  0.0681
18436TIP3    H176799   1.239   0.623   2.160  0.8603  0.4052  0.6507
18436TIP3    H276800   1.197   0.713   2.046 -1.5957 -1.1359  0.3034
18437TIP3   OH276801   2.194   5.717   2.128  0.0831  0.0844  0.2551
18437TIP3    H176802   2.213   5.662   2.205  1.7782  1.2025  0.6606
18437TIP3    H276803   2.154   5.796   2.165 -0.5935 -0.0613 -0.1606
18438TIP3   OH276804   0.931   4.916  16.889  0.0331 -0.7068 -0.4868
18438TIP3    H176805   1.008   4.972  16.895 -0.7447  0.3968 -0.6631
18438TIP3    H276806   0.857   4.977  16.887 -0.8894 -1.7716  0.4989
18439TIP3   OH276807   5.010   0.539   0.882  0.3103 -0.3267 -0.2850
18439TIP3    H176808   5.001   0.573   0.794  0.9977  0.2962 -0.1191
18439TIP3    H276809   4.928   0.491   0.898  0.1620 -0.3918 -1.2280
18440TIP3   OH276810   3.506   3.303   1.189  0.6727  0.3674 -0.7160
18440TIP3    H176811   3.541   3.324   1.275  1.2336  0.7761 -1.0353
18440TIP3    H276812   3.432   3.362   1.177 -0.9425 -1.3442  0.4757
18441TIP3   OH276813   5.340   5.028  13.528 -0.4868  0.0256 -0.1409
18441TIP3    H176814   5.310   5.039  13.619 -1.4621 -0.2575 -0.4307
18441TIP3    H276815   5.271   5.068  13.475 -0.3806 -0.6893 -0.8135
18442TIP3   OH276816   0.934   1.314   5.417  0.3132  0.3432 -0.1936
18442TIP3    H176817   1.007   1.372   5.435 -0.7244  1.3087  1.0880
18442TIP3    H276818   0.912   1.329   5.326  0.8594  1.0347 -0.2133
18443TIP3   OH276819   2.070   3.712  12.817 -0.3399  0.1665  0.3524
18443TIP3    H176820   2.056   3.703  12.912 -0.9836  2.6626  0.5136
18443TIP3    H276821   2.108   3.798  12.806 -0.5797  0.0353 -1.7152
18444TIP3   OH276822   4.187   5.422   3.214 -0.1192 -0.2213 -0.2606
18444TIP3    H176823   4.161   5.369   3.138 -1.6954  0.1526 -0.0057
18444TIP3    H276824   4.190   5.360   3.286 -0.3943 -0.2541 -0.2772
18445TIP3   OH276825   5.879   4.948   2.839 -0.4498 -0.0888  0.4414
18445TIP3    H176826   5.828   4.955   2.920 -0.3343 -1.0716  0.6126
18445TIP3    H276827   5.860   4.859   2.807  0.6074 -0.2127  0.1495
18446TIP3   OH276828   2.540   0.719   0.826  0.4962 -0.3455  0.5750
18446TIP3    H176829   2.533   0.794   0.885 -1.9700 -0.0568 -0.0018
18446TIP3    H276830   2.561   0.757   0.741 -0.5313 -0.3010  0.3300
18447TIP3   OH276831   1.127   1.562  11.102  0.2855 -0.0389 -0.0786
18447TIP3    H176832   1.110   1.491  11.164 -1.2121  0.7963  0.5069
18447TIP3    H276833   1.068   1.632  11.130  2.4577  1.8257  0.0066
18448TIP3   OH276834   6.196   5.462   3.630 -0.6277  0.0890 -0.5319
18448TIP3    H176835   6.154   5.466   3.716 -0.7308  2.1609 -0.6506
18448TIP3    H276836   6.201   5.369   3.610 -2.2442 -0.3360  0.9166
18449TIP3   OH276837   6.043   2.189   0.078  0.1963  0.2754  0.3814
18449TIP3    H176838   6.118   2.193   0.138  0.4812 -0.1749  0.0627
18449TIP3    H276839   5.980   2.131   0.123 -0.0180  0.7621  0.7099
18450TIP3   OH276840   3.274   4.166  15.136 -0.6478 -0.1506 -0.0471
18450TIP3    H176841   3.230   4.238  15.090 -2.2685 -0.2947  1.2793
18450TIP3    H276842   3.266   4.188  15.228  1.1337 -0.7348  0.2699
18451TIP3   OH276843   4.688   4.578  12.033 -0.1375  0.4038  0.5727
18451TIP3    H176844   4.750   4.631  12.083  0.1748 -0.8620  1.5454
18451TIP3    H276845   4.656   4.513  12.095 -2.7265  1.2467  0.1907
18452TIP3   OH276846   5.271   0.523   6.295 -0.2680 -0.5681  0.0291
18452TIP3    H176847   5.365   0.519   6.280 -0.3938 -0.5337 -0.7686
18452TIP3    H276848   5.251   0.444   6.345  0.5359  0.5285  2.1816
18453TIP3   OH276849   1.897   3.802   1.460 -0.3843 -0.2011 -0.0773
18453TIP3    H176850   1.969   3.794   1.522 -0.5500  0.0764  0.1484
18453TIP3    H276851   1.939   3.824   1.377 -0.2345  0.2395  0.1156
18454TIP3   OH276852   3.097   6.267   3.553 -0.0626  0.6884 -0.2797
18454TIP3    H176853   3.045   6.331   3.602 -0.7470 -0.9826  1.2354
18454TIP3    H276854   3.068   6.182   3.586  0.8102 -0.4231 -2.2786
18455TIP3   OH276855   6.341   0.088  10.819  0.0404 -0.1156 -0.1388
18455TIP3    H176856   6.333   0.106  10.726  3.3381 -0.6943 -0.5964
18455TIP3    H276857   6.333  -0.007  10.827  0.4638 -0.1373  0.0714
18456TIP3   OH276858   5.191   1.008  13.362 -0.2554  0.3155 -0.4305
18456TIP3    H176859   5.247   1.052  13.297 -0.0873  0.1602 -0.3918
18456TIP3    H276860   5.107   1.052  13.354 -0.0145  0.8215 -0.2084
18457TIP3   OH276861   2.961   1.797  17.060  0.0296 -0.0818 -0.0810
18457TIP3    H176862   2.872   1.776  17.029 -0.9114  2.7554  0.5392
18457TIP3    H276863   2.948   1.865  17.126  2.6586  0.0614  0.3332
18458TIP3   OH276864   6.578   6.242  12.719  0.0914  0.1721  0.3979
18458TIP3    H176865   6.494   6.198  12.706 -0.3776  1.3832 -0.8699
18458TIP3    H276866   6.637   6.201  12.656  0.3263 -0.3391  0.9464
18459TIP3   OH276867   1.317   4.990   5.407  0.2010  0.3572  0.4657
18459TIP3    H176868   1.350   4.905   5.378 -0.3762  0.1272  0.4720
18459TIP3    H276869   1.314   4.984   5.502 -0.8228  0.0108  0.4159
18460TIP3   OH276870   5.286   0.296  12.879  0.1874  0.2687  0.4159
18460TIP3    H176871   5.329   0.281  12.963  0.8394 -2.8094 -0.3896
18460TIP3    H276872   5.193   0.307  12.901  0.4023 -0.1797  1.5734
18461TIP3   OH276873   5.082   0.194  10.690 -0.3069 -0.2451 -0.2788
18461TIP3    H176874   5.057   0.141  10.615 -1.4278  1.7586 -1.3735
18461TIP3    H276875   5.123   0.272  10.652 -0.0993  0.3961  1.2126
18462TIP3   OH276876   0.805   6.328   5.909 -0.4698  0.2623  0.2277
18462TIP3    H176877   0.763   6.273   5.976 -1.7116  1.1051  0.1539
18462TIP3    H276878   0.732   6.371   5.864  0.3905  0.2433 -1.2122
18463TIP3   OH276879   3.689   5.099   5.330  0.0339  0.2407 -0.3534
18463TIP3    H176880   3.686   5.182   5.284  3.0549 -0.2380 -1.5180
18463TIP3    H276881   3.761   5.108   5.392  0.4748 -1.5264 -0.5685
18464TIP3   OH276882   5.654   3.149   5.624 -0.5224  0.1820  0.1251
18464TIP3    H176883   5.744   3.178   5.612 -0.1935 -1.1016 -0.6365
18464TIP3    H276884   5.603   3.230   5.627  0.4806  0.8781 -1.0021
18465TIP3   OH276885   2.447   5.290   0.369  0.5378  0.1041  0.1820
18465TIP3    H176886   2.454   5.208   0.418  0.3873  0.8446  1.4701
18465TIP3    H276887   2.538   5.321   0.362  0.4891  0.3386  0.5854
18466TIP3   OH276888   0.232   2.431   2.328  0.2400 -0.4425  0.3972
18466TIP3    H176889   0.216   2.402   2.418 -0.6888  1.6611  0.9384
18466TIP3    H276890   0.146   2.426   2.285  0.4789 -0.4586 -0.0861
18467TIP3   OH276891   6.382   1.375  14.680 -0.4153  0.9060  0.0180
18467TIP3    H176892   6.425   1.383  14.595 -1.0142 -1.7345 -0.5741
18467TIP3    H276893   6.443   1.323  14.733 -1.6160 -0.5089  0.0439
18468TIP3   OH276894   1.724   0.038   3.070 -0.1625 -0.0949  0.1133
18468TIP3    H176895   1.677  -0.015   3.006  0.4933 -1.4460  0.7383
18468TIP3    H276896   1.659   0.057   3.138 -0.2361 -0.6153  0.1872
18469TIP3   OH276897   1.585   3.218   3.943  0.0632  0.1658 -0.0258
18469TIP3    H176898   1.584   3.311   3.920 -1.7935  0.0972 -0.2997
18469TIP3    H276899   1.527   3.212   4.019 -2.3607 -1.2034 -1.9102
18470TIP3   OH276900   4.831   5.730  11.864  0.3193  0.1287 -0.5103
18470TIP3    H176901   4.792   5.689  11.942  1.9013  0.3346  0.4113
18470TIP3    H276902   4.812   5.823  11.874  1.1353  0.2429 -0.0066
18471TIP3   OH276903   0.032   6.757   2.723  0.3523  0.4386 -0.3393
18471TIP3    H176904   0.004   6.688   2.663  0.2640  0.8483 -0.7780
18471TIP3    H276905  -0.041   6.767   2.784  0.6678 -0.3551  0.1647
18472TIP3   OH276906   2.167   3.165   1.357  0.2342  1.2540 -0.3101
18472TIP3    H176907   2.244   3.222   1.355  0.7766  0.5571  0.2105
18472TIP3    H276908   2.190   3.096   1.420 -1.0580  1.3785  0.3111
18473TIP3   OH276909   5.002   2.528  12.337  0.8933 -0.5326  0.7402
18473TIP3    H176910   5.082   2.502  12.383  1.3531  0.5144  0.5503
18473TIP3    H276911   5.029   2.537  12.246  1.0316  1.6443  0.9520
18474TIP3   OH276912   4.378   2.782  11.100  0.9868 -0.5442 -0.0644
18474TIP3    H176913   4.330   2.798  11.019 -0.5385 -1.0594  0.7334
18474TIP3    H276914   4.421   2.698  11.086  0.3198 -0.8714 -0.1441
18475TIP3   OH276915   0.584   6.785  16.430 -0.3067 -0.4611  0.0878
18475TIP3    H176916   0.596   6.840  16.507 -1.8836  2.6111 -1.7831
18475TIP3    H276917   0.556   6.700  16.464  0.9004  0.2521  2.9567
18476TIP3   OH276918   6.333   5.847  14.581  0.5412  0.3609 -0.8848
18476TIP3    H176919   6.276   5.913  14.540 -0.1648  0.8421  0.8345
18476TIP3    H276920   6.306   5.765  14.541 -0.9356  0.6724 -0.5827
18477TIP3   OH276921   4.749   0.557   4.702  0.4598  0.0604 -0.3951
18477TIP3    H176922   4.731   0.606   4.782 -0.8416  0.7528 -1.0767
18477TIP3    H276923   4.823   0.602   4.662 -0.2827  1.0794 -0.6602
18478TIP3   OH276924   4.864   3.648  11.751  0.0717  0.3015 -0.5906
18478TIP3    H176925   4.905   3.724  11.793 -0.2816  0.0345  0.2587
18478TIP3    H276926   4.936   3.591  11.727  0.1953 -0.4004  1.3451
18479TIP3   OH276927   5.861   0.293   0.189 -0.1342 -0.3350 -0.0430
18479TIP3    H176928   5.940   0.256   0.148 -0.7746 -0.7851 -0.8763
18479TIP3    H276929   5.895   0.351   0.257  0.9305 -0.2053 -0.6684
18480TIP3   OH276930   3.817   3.435   4.142  0.0396  0.1656  0.2906
18480TIP3    H176931   3.907   3.467   4.146 -0.0333  0.4254 -0.1585
18480TIP3    H276932   3.786   3.459   4.055 -1.7343  3.5163  1.7500
18481TIP3   OH276933   0.849   2.513   3.979 -0.4442  0.1825 -0.3660
18481TIP3    H176934   0.791   2.587   3.995 -1.6271 -0.7222 -0.4533
18481TIP3    H276935   0.861   2.512   3.884  0.5147  0.9546 -0.2676
18482TIP3   OH276936   3.031   1.468   4.757  0.1609 -0.6325  0.4832
18482TIP3    H176937   3.119   1.484   4.789  0.6812 -3.3015  0.5149
18482TIP3    H276938   2.993   1.555   4.743  2.9305  0.5345  0.0492
18483TIP3   OH276939   6.801   5.627  14.018 -0.2737 -0.5796  0.1997
18483TIP3    H176940   6.891   5.631  14.051 -0.8198  2.7879  1.4365
18483TIP3    H276941   6.793   5.538  13.983  3.3734 -1.1135  0.4773
18484TIP3   OH276942   2.643   5.618  11.669  0.2754 -0.0879  0.4103
18484TIP3    H176943   2.550   5.608  11.649 -0.5622  1.4866  3.2591
18484TIP3    H276944   2.686   5.548  11.620 -2.6167 -1.9713  0.4526
18485TIP3   OH276945   5.424   3.150   2.456 -0.4815 -0.1187  0.9330
18485TIP3    H176946   5.423   3.074   2.513 -0.2099 -0.0258  1.0652
18485TIP3    H276947   5.401   3.224   2.513 -1.3244 -0.1881  0.6767
18486TIP3   OH276948   4.226   6.002  16.981  0.7008  0.3029  0.1870
18486TIP3    H176949   4.264   5.966  17.061  0.3391 -1.7029 -0.5012
18486TIP3    H276950   4.216   5.926  16.924 -1.8303  1.2170 -0.6428
18487TIP3   OH276951   0.577   6.724  14.452  0.4206  0.3237  0.1443
18487TIP3    H176952   0.563   6.703  14.360 -0.0549  0.7535  0.1176
18487TIP3    H276953   0.539   6.811  14.463  0.5732  0.3206  0.7214
18488TIP3   OH276954   3.592   3.721  17.104  0.2937 -0.1678  0.4367
18488TIP3    H176955   3.674   3.676  17.084  0.4840  0.3673  0.0175
18488TIP3    H276956   3.533   3.697  17.032  0.4288  0.3299  0.1539
18489TIP3   OH276957   1.996   2.951   4.657 -0.5317 -0.3651  0.5120
18489TIP3    H176958   1.908   2.915   4.649 -0.6698 -0.4401  2.1568
18489TIP3    H276959   1.985   3.028   4.712  0.4235 -0.3581  0.6972
18490TIP3   OH276960   0.356   3.539  12.926 -0.2065 -0.1420 -0.0258
18490TIP3    H176961   0.430   3.596  12.905  1.9361 -1.9097  2.4296
18490TIP3    H276962   0.378   3.455  12.884 -0.7403 -0.7250  0.8496
18491TIP3   OH276963   5.420   0.858   3.804  0.8226 -0.1469  0.0503
18491TIP3    H176964   5.397   0.779   3.852 -0.1031  0.9430  1.4668
18491TIP3    H276965   5.516   0.861   3.805  0.8587 -1.2202  0.0093
18492TIP3   OH276966   3.010   3.964  12.116 -0.2443 -0.0307  0.2801
18492TIP3    H176967   2.994   4.021  12.192  0.2973  0.6327 -0.1018
18492TIP3    H276968   3.091   3.998  12.077 -0.8794  0.0463 -0.9857
18493TIP3   OH276969   1.987   0.583  11.618 -0.4425 -0.3277 -0.1667
18493TIP3    H176970   1.893   0.600  11.622 -0.6644 -1.4293 -0.3390
18493TIP3    H276971   2.002   0.522  11.691  0.3391  0.7209  0.5568
18494TIP3   OH276972   0.779   0.386  13.781 -0.6900  0.0904 -0.6443
18494TIP3    H176973   0.700   0.363  13.830 -0.2396 -0.6843 -0.2551
18494TIP3    H276974   0.839   0.313  13.799  0.2902  0.9256 -0.5174
18495TIP3   OH276975   2.465   1.285   2.919 -0.3071  0.5607 -0.7780
18495TIP3    H176976   2.469   1.381   2.914  2.5658  0.5063 -0.4752
18495TIP3    H276977   2.537   1.261   2.978 -1.0847 -1.7894 -0.7335
18496TIP3   OH276978   0.189   2.377  11.319 -0.0681 -0.2900 -0.5046
18496TIP3    H176979   0.220   2.287  11.324  2.3733  0.4584 -1.4120
18496TIP3    H276980   0.124   2.376  11.248  0.3427 -1.2383 -0.8795
18497TIP3   OH276981   4.613   2.073  10.952  0.8479 -0.0256 -0.0282
18497TIP3    H176982   4.522   2.084  10.982  1.0535  0.6332  0.3645
18497TIP3    H276983   4.610   2.099  10.860  0.4588 -0.8757 -0.2589
18498TIP3   OH276984   1.109   2.070  15.216 -0.2969 -0.0144  0.1637
18498TIP3    H176985   1.174   2.108  15.158 -1.0130  2.1500  0.7502
18498TIP3    H276986   1.048   2.026  15.158  1.3244 -1.5404 -0.4303
18499TIP3   OH276987   2.365   1.440  11.913  0.1793 -0.4824 -0.0764
18499TIP3    H176988   2.346   1.357  11.869 -0.5884 -0.1250 -0.4182
18499TIP3    H276989   2.436   1.418  11.974 -0.2661 -1.4784  0.1039
18500TIP3   OH276990   1.130   1.127  15.753  0.5088 -0.3132 -1.0553
18500TIP3    H176991   1.051   1.154  15.706 -0.4222  0.0919  0.7326
18500TIP3    H276992   1.112   1.038  15.782 -0.7200  0.9607  2.3405
18501TIP3   OH276993   4.347   5.642  13.895 -0.1719  0.5163 -0.2520
18501TIP3    H176994   4.319   5.563  13.849  0.8307  0.5110 -0.8669
18501TIP3    H276995   4.391   5.695  13.828  3.1273 -0.3904  1.0845
18502TIP3   OH276996   1.174   1.566  13.146  0.0370 -0.1937 -0.3393
18502TIP3    H176997   1.121   1.582  13.067  0.8302  1.6336 -0.5324
18502TIP3    H276998   1.145   1.633  13.208 -0.8211 -1.8334  1.0654
18503TIP3   OH276999   0.712   5.733   0.587  0.1752 -0.3390  0.1588
18503TIP3    H177000   0.794   5.684   0.597  0.1324 -0.4006  0.2070
18503TIP3    H277001   0.693   5.730   0.493  2.6298  3.5451 -0.5711
18504TIP3   OH277002   3.124   3.756  16.321 -0.5442 -0.0304  0.0404
18504TIP3    H177003   3.051   3.811  16.347 -1.6126  0.1714 -3.1551
18504TIP3    H277004   3.177   3.811  16.264  0.2677 -1.2186 -0.3870
18505TIP3   OH277005   3.638   2.934  13.156 -0.5607  0.2453  0.3273
18505TIP3    H177006   3.556   2.966  13.118  0.6289  1.1310 -1.5616
18505TIP3    H277007   3.701   3.004  13.138  1.5070 -2.0115 -1.6023
18506TIP3   OH277008   6.155   2.107   4.062  0.2566  0.2309 -0.2212
18506TIP3    H177009   6.061   2.108   4.046  0.0519 -1.3906  0.6939
18506TIP3    H277010   6.163   2.091   4.156  1.4498  1.9071 -0.0112
18507TIP3   OH277011   3.627   2.988  11.145 -0.4360 -0.5215  0.0515
18507TIP3    H177012   3.646   2.894  11.150  1.4236 -0.2234 -1.0071
18507TIP3    H277013   3.620   3.006  11.051  0.3469  0.6055  0.2016
18508TIP3   OH277014   1.728   4.116   3.642  0.0309 -0.0537  0.2547
18508TIP3    H177015   1.795   4.183   3.655  1.3455 -1.1300 -0.8294
18508TIP3    H277016   1.715   4.078   3.729  0.5729  0.4106  0.5403
18509TIP3   OH277017   6.302   3.738  15.052  0.5506  0.3273 -0.2235
18509TIP3    H177018   6.241   3.811  15.061 -0.9854 -0.9789  0.3860
18509TIP3    H277019   6.280   3.698  14.968 -0.4007 -0.9643  0.6135
18510TIP3   OH277020   4.132   4.453   3.806  0.3763  0.3332 -0.3784
18510TIP3    H177021   4.178   4.452   3.721  0.8885  1.2860 -0.1136
18510TIP3    H277022   4.093   4.540   3.811  1.3077  0.6848  0.8760
18511TIP3   OH277023   6.175   3.620   1.259 -0.4011  0.0935  0.2530
18511TIP3    H177024   6.254   3.566   1.263 -1.3548 -1.6043 -2.7285
18511TIP3    H277025   6.103   3.556   1.253 -1.7497  1.6655 -0.5299
18512TIP3   OH277026   1.128   6.062  14.308 -0.4631  0.7713  0.3603
18512TIP3    H177027   1.211   6.110  14.309  0.0586 -0.1204  0.8317
18512TIP3    H277028   1.154   5.970  14.316 -1.5341  0.5389  1.2541
18513TIP3   OH277029   0.564   3.217  13.103 -0.2186 -0.2406  0.2806
18513TIP3    H177030   0.543   3.243  13.014  0.1762 -0.7339  0.0415
18513TIP3    H277031   0.656   3.241  13.114  0.1783 -1.5897  0.0284
18514TIP3   OH277032   4.127   3.088   5.817 -0.1953 -0.2116  0.5787
18514TIP3    H177033   4.111   3.005   5.862  1.2981 -1.4850 -1.1766
18514TIP3    H277034   4.172   3.142   5.882  0.0841 -1.2931  1.2989
18515TIP3   OH277035   1.724   3.965  12.838 -0.0247 -0.4057 -0.6837
18515TIP3    H177036   1.667   3.974  12.762  0.8799  1.8626 -1.1257
18515TIP3    H277037   1.787   4.037  12.830 -1.2856  1.2880  3.3893
18516TIP3   OH277038   4.486   6.192  14.904 -0.0358  0.2902 -0.1997
18516TIP3    H177039   4.526   6.271  14.867  0.4976  1.3685  2.5550
18516TIP3    H277040   4.443   6.222  14.984 -0.3762 -2.1105  0.5596
18517TIP3   OH277041   5.704   1.986  13.166 -0.1858  0.5077  0.0058
18517TIP3    H177042   5.735   1.962  13.254  1.9765  2.4217 -0.1792
18517TIP3    H277043   5.643   2.058  13.182  1.5110  2.0262 -0.1109
18518TIP3   OH277044   0.270   1.368  12.549  0.1063 -0.4424 -0.2690
18518TIP3    H177045   0.303   1.300  12.491 -1.0630 -0.7024 -0.6534
18518TIP3    H277046   0.256   1.443  12.492  1.4001  0.1230  0.1576
18519TIP3   OH277047   2.263   4.874   3.006  0.0775  0.5605  0.1358
18519TIP3    H177048   2.242   4.784   2.982  0.7589  0.3747  0.2523
18519TIP3    H277049   2.333   4.899   2.946  0.1852  0.8750  0.3934
18520TIP3   OH277050   6.198   2.421   5.339  0.1443  0.3204  0.5011
18520TIP3    H177051   6.198   2.517   5.340 -0.1785  0.3230  0.4475
18520TIP3    H277052   6.286   2.396   5.367  0.6158  0.6405 -0.6842
18521TIP3   OH277053   2.326   3.980  14.355 -0.4823 -0.1491  0.2087
18521TIP3    H177054   2.371   4.017  14.279 -0.2417  0.4403  0.6291
18521TIP3    H277055   2.388   3.990  14.427 -1.0400  0.1159  0.6654
18522TIP3   OH277056   1.085   5.189   4.753  0.0063  0.2820 -0.0824
18522TIP3    H177057   1.134   5.121   4.799  1.4139  2.4544  1.7421
18522TIP3    H277058   1.080   5.261   4.815 -0.9238  2.0947 -2.1806
18523TIP3   OH277059   0.119   2.664  14.781  0.9428 -0.7638  0.0963
18523TIP3    H177060   0.201   2.700  14.746  0.1627  0.5772 -0.3755
18523TIP3    H277061   0.070   2.637  14.703  1.5099 -2.8883  0.4388
18524TIP3   OH277062   2.704   1.362   0.177  0.1314 -0.3530  0.1822
18524TIP3    H177063   2.634   1.397   0.121  0.1148 -0.1397  0.3353
18524TIP3    H277064   2.748   1.297   0.122  0.9149  0.7495 -0.5187
18525TIP3   OH277065   6.011   2.626  10.797  0.1743  0.0359  0.2196
18525TIP3    H177066   5.983   2.539  10.823  2.0108 -0.5119  0.4149
18525TIP3    H277067   5.957   2.647  10.720  1.5063 -2.3108 -1.3971
18526TIP3   OH277068   4.644   1.548  15.793 -0.0719 -0.0666 -0.1661
18526TIP3    H177069   4.736   1.524  15.799  0.0776  0.4196 -0.5038
18526TIP3    H277070   4.608   1.526  15.879  0.1146 -1.2640 -0.3843
18527TIP3   OH277071   4.827   2.184   4.289  0.1426 -0.0219 -0.4442
18527TIP3    H177072   4.839   2.139   4.206  0.9768  0.6545 -0.7006
18527TIP3    H277073   4.781   2.265   4.267  2.7724  1.4620 -0.6515
18528TIP3   OH277074   4.221   5.774  13.628 -0.3542 -0.0421  0.4436
18528TIP3    H177075   4.206   5.694  13.577  2.7425 -1.8368  2.1486
18528TIP3    H277076   4.251   5.838  13.564 -1.2042 -0.7608 -0.6928
18529TIP3   OH277077   1.793   4.422  15.620  0.6401 -0.1407 -0.0353
18529TIP3    H177078   1.859   4.354  15.633 -1.6895 -1.7887  4.0208
18529TIP3    H277079   1.808   4.485  15.690 -1.7159 -0.2949  0.6540
18530TIP3   OH277080   1.703   6.527   1.729  0.0345  0.7950  0.5615
18530TIP3    H177081   1.665   6.612   1.708 -0.0088  0.6476  0.0252
18530TIP3    H277082   1.631   6.478   1.769 -0.4238  0.4105 -0.7358
18531TIP3   OH277083   2.245   6.587   5.198 -0.5155 -0.2873 -0.2242
18531TIP3    H177084   2.307   6.615   5.265 -0.5551 -0.7804  0.0212
18531TIP3    H277085   2.298   6.535   5.137 -1.3727 -4.0007  2.0293
18532TIP3   OH277086   2.209   2.844  12.331 -0.6956 -0.8369 -0.0304
18532TIP3    H177087   2.232   2.908  12.265 -2.3951 -0.8999 -0.7102
18532TIP3    H277088   2.222   2.759  12.288 -3.1721 -0.8688 -0.8240
18533TIP3   OH277089   3.535   3.627  16.816  0.0092 -0.7934  0.5001
18533TIP3    H177090   3.563   3.646  16.726 -0.1165 -0.2325  0.5728
18533TIP3    H277091   3.454   3.576  16.806 -1.0747  0.9184  0.2800
18534TIP3   OH277092   2.514   5.183   4.620 -0.4500  0.1316 -0.2563
18534TIP3    H177093   2.557   5.238   4.686 -2.3141  0.9598  0.3108
18534TIP3    H277094   2.532   5.226   4.537  2.7630 -1.4611 -0.4473
18535TIP3   OH277095   6.591   4.572   1.672  0.7836 -0.2533  0.2138
18535TIP3    H177096   6.562   4.500   1.615  1.8822 -1.1948  0.8296
18535TIP3    H277097   6.632   4.528   1.747  0.1942  0.9924  1.2781
18536TIP3   OH277098   4.774   5.736  13.246 -0.1765  0.5801  0.4058
18536TIP3    H177099   4.736   5.778  13.323  3.3002  0.0153  2.5681
18536TIP3    H277100   4.838   5.800  13.214  2.9048 -1.6867  1.8304
18537TIP3   OH277101   1.085   1.698  16.093 -0.4652  0.4884  0.2574
18537TIP3    H177102   1.092   1.616  16.044 -1.4309 -0.7286  2.0911
18537TIP3    H277103   1.008   1.685  16.149 -0.8448  2.7940  0.3153
18538TIP3   OH277104   5.733   3.749   5.844  0.2519  0.4404  0.9452
18538TIP3    H177105   5.764   3.745   5.934  2.1435  0.8529  0.3234
18538TIP3    H277106   5.751   3.839   5.816  3.3041 -0.7102 -1.0833
18539TIP3   OH277107   6.189   6.707   4.922  0.1116  0.0131  0.2028
18539TIP3    H177108   6.159   6.633   4.975  0.4968  1.4778  2.5609
18539TIP3    H277109   6.235   6.763   4.985  0.9761  1.5909 -1.8082
18540TIP3   OH277110   5.413   2.504   3.776  0.4150  0.3597  0.5499
18540TIP3    H177111   5.385   2.417   3.746 -0.6538  0.8037  0.2070
18540TIP3    H277112   5.508   2.502   3.770  0.3815 -0.6639  0.1837
18541TIP3   OH277113   4.455   3.648   5.324  0.5646  0.1390 -0.4952
18541TIP3    H177114   4.369   3.609   5.309  0.6332 -0.4470  0.5360
18541TIP3    H277115   4.455   3.729   5.273 -0.7042  0.2832 -0.2797
18542TIP3   OH277116   1.273   2.672   3.623  0.0792 -0.2046 -0.3444
18542TIP3    H177117   1.301   2.598   3.677  1.9237  2.7919  3.0033
18542TIP3    H277118   1.339   2.677   3.553  1.8656  0.2302  1.3221
18543TIP3   OH277119   6.141   2.778  17.141  0.1250 -0.2058  0.4800
18543TIP3    H177120   6.115   2.835  17.069  1.0839  1.1668  1.1973
18543TIP3    H277121   6.072   2.713  17.146 -0.1633 -0.0863 -1.4178
18544TIP3   OH277122   1.411   1.615  10.880  0.9799  0.1623  0.3186
18544TIP3    H177123   1.346   1.642  10.815  0.2953  1.6101  1.5713
18544TIP3    H277124   1.403   1.520  10.884 -2.1809  0.4191  1.5638
18545TIP3   OH277125   1.733   1.704  15.117  0.1025 -0.3145 -0.2043
18545TIP3    H177126   1.685   1.641  15.063 -0.8528  0.3535 -0.1475
18545TIP3    H277127   1.705   1.685  15.207 -0.8711  0.7503 -0.2665
18546TIP3   OH277128   2.698   4.326  11.275 -0.3867  0.5137 -0.1241
18546TIP3    H177129   2.632   4.391  11.297  0.7490  1.9255 -0.7737
18546TIP3    H277130   2.716   4.341  11.182  1.3343  0.6107  0.2097
18547TIP3   OH277131   6.804   1.593  12.282  0.6957  0.2568 -0.1864
18547TIP3    H177132   6.733   1.608  12.345 -0.3990  0.4316 -1.4544
18547TIP3    H277133   6.823   1.679  12.246  2.3437  0.3989  0.9543
18548TIP3   OH277134   0.681   3.064  17.159 -0.1662 -0.3071 -0.0883
18548TIP3    H177135   0.621   2.989  17.162 -0.1986 -0.2873 -0.2535
18548TIP3    H277136   0.636   3.132  17.210 -0.2516 -0.3144 -0.1553
18549TIP3   OH277137   5.377   1.171  12.326 -0.8142 -0.1944  0.4400
18549TIP3    H177138   5.351   1.212  12.408 -0.0545  0.7240  0.2286
18549TIP3    H277139   5.420   1.240  12.277 -2.9711 -0.2001 -1.5533
18550TIP3   OH277140   4.237   5.874   5.882 -0.1564 -0.2239  0.2514
18550TIP3    H177141   4.270   5.957   5.917  0.9949 -0.4872 -0.1980
18550TIP3    H277142   4.155   5.859   5.929 -0.5675  1.3694  0.0604
18551TIP3   OH277143   4.961   0.235  10.331 -0.0410 -0.1881  0.1184
18551TIP3    H177144   4.938   0.171  10.399 -2.4906  1.3783  0.8192
18551TIP3    H277145   5.002   0.183  10.262 -2.3309 -2.5936  0.4877
18552TIP3   OH277146   3.557   2.964  14.172 -0.0839  0.1888  0.0093
18552TIP3    H177147   3.620   2.893  14.189 -1.1343 -0.7323  0.1317
18552TIP3    H277148   3.547   2.965  14.077 -1.4621 -1.0765  0.1252
18553TIP3   OH277149   3.189   0.901  13.492  0.6147 -0.6515  0.0868
18553TIP3    H177150   3.147   0.930  13.411 -0.2399  0.4764  0.9120
18553TIP3    H277151   3.281   0.891  13.469  0.9043  2.4371 -0.3600
18554TIP3   OH277152   2.660   2.193  16.059 -0.1533  0.5911  0.3864
18554TIP3    H177153   2.721   2.232  15.996  0.1210 -0.9222 -0.3203
18554TIP3    H277154   2.674   2.242  16.140 -1.8397  3.8408 -1.1704
18555TIP3   OH277155   4.792   2.437   4.557  0.0297 -0.3357  0.5658
18555TIP3    H177156   4.844   2.467   4.632 -0.4063  1.8510  0.0324
18555TIP3    H277157   4.854   2.439   4.484 -0.1732 -0.0412  0.3995
18556TIP3   OH277158   2.145   5.698   3.814 -0.5900 -0.2348  0.3463
18556TIP3    H177159   2.153   5.652   3.897 -1.2997  0.6950  0.9470
18556TIP3    H277160   2.085   5.771   3.832  0.9371  1.2512 -0.4284
18557TIP3   OH277161   3.888   3.994  13.966 -0.7311 -0.2116  0.4862
18557TIP3    H177162   3.863   3.940  13.891 -1.1583 -0.6035  0.9150
18557TIP3    H277163   3.811   4.049  13.983 -0.8937 -0.6250  1.0894
18558TIP3   OH277164   2.617   1.328  11.599  0.1688 -0.1575  0.0325
18558TIP3    H177165   2.651   1.399  11.654  1.1185 -0.6686  0.1214
18558TIP3    H277166   2.690   1.307  11.540  0.0133 -1.2807  0.2313
18559TIP3   OH277167   1.369   2.640   2.336 -0.0041 -0.1040  0.9736
18559TIP3    H177168   1.399   2.618   2.247 -0.0752  1.6742  0.5028
18559TIP3    H277169   1.306   2.710   2.323 -0.0434  0.1382  2.4482
18560TIP3   OH277170   6.475   3.397  16.245  0.0069  0.4729  0.4899
18560TIP3    H177171   6.520   3.380  16.328  0.5414  0.6205  0.2324
18560TIP3    H277172   6.512   3.479  16.214  0.0205  0.2683 -0.0357
18561TIP3   OH277173   6.495   0.080   0.748  0.1191 -1.0731 -0.1524
18561TIP3    H177174   6.494  -0.015   0.740 -0.4315 -1.0756 -0.0408
18561TIP3    H277175   6.571   0.107   0.696 -0.7301 -1.4437 -1.6340
18562TIP3   OH277176   5.555   1.472   0.969 -0.7857 -0.1448  0.2961
18562TIP3    H177177   5.566   1.381   0.996  0.0088 -0.5990 -1.4855
18562TIP3    H277178   5.643   1.510   0.975 -0.3068 -0.6322 -2.8967
18563TIP3   OH277179   4.320   1.181   2.033  0.1839 -0.7579  0.4086
18563TIP3    H177180   4.265   1.113   1.994  1.9897 -1.0482 -1.7162
18563TIP3    H277181   4.405   1.139   2.046  0.6795  0.4563  1.1174
18564TIP3   OH277182   5.085   4.622   0.234  0.2559  0.4769 -0.2929
18564TIP3    H177183   5.099   4.697   0.176 -0.3770  0.9041  0.1054
18564TIP3    H277184   5.020   4.652   0.298 -0.0809 -0.4409 -0.1935
18565TIP3   OH277185   2.039   3.927  17.054 -0.9313 -0.1119  0.5937
18565TIP3    H177186   1.998   3.926  16.968 -2.9839 -1.6040  1.5482
18565TIP3    H277187   2.024   4.016  17.087 -1.9114 -0.1325  0.2259
18566TIP3   OH277188   1.306   0.581   6.295  0.1200  0.2932 -0.1373
18566TIP3    H177189   1.377   0.612   6.351  0.8704 -0.9375 -0.3705
18566TIP3    H277190   1.280   0.497   6.334  0.1458 -0.2155 -1.2069
18567TIP3   OH277191   4.632   4.762   2.552 -0.4806 -0.3187  0.3979
18567TIP3    H177192   4.624   4.827   2.622 -0.4102 -0.8840  0.9275
18567TIP3    H277193   4.709   4.790   2.502 -1.0132  0.5486  0.0557
18568TIP3   OH277194   5.171   5.965   3.727 -0.0717 -0.0450 -0.1989
18568TIP3    H177195   5.088   5.982   3.681 -0.5646  0.1695  0.7362
18568TIP3    H277196   5.183   5.871   3.720  0.2345  0.0784 -1.3868
18569TIP3   OH277197   0.174   1.815   4.944  0.1805 -0.4020  0.1364
18569TIP3    H177198   0.167   1.852   5.032  0.2470 -1.1189  0.4499
18569TIP3    H277199   0.182   1.891   4.887  0.0937  0.0744  0.7428
18570TIP3   OH277200   2.838   3.671   3.950  0.2133 -0.3630  0.3831
18570TIP3    H177201   2.915   3.699   3.999  0.1587 -2.6381  1.8398
18570TIP3    H277202   2.868   3.596   3.899 -0.3181  0.5734 -1.3656
18571TIP3   OH277203   6.437   1.439   1.243  0.1542 -0.0594 -0.2239
18571TIP3    H177204   6.479   1.451   1.328 -2.3186 -2.5541  1.4367
18571TIP3    H277205   6.476   1.360   1.208  0.6356  0.5570 -1.0922
18572TIP3   OH277206   0.174   4.779  12.108 -0.4384  0.1987  0.3400
18572TIP3    H177207   0.179   4.869  12.075  0.1121 -0.1788 -0.6107
18572TIP3    H277208   0.258   4.740  12.085 -0.1890 -0.1951  1.8560
18573TIP3   OH277209   0.299   0.465  16.197  0.2989 -0.0887  0.2329
18573TIP3    H177210   0.246   0.436  16.122 -0.9724 -1.6619  1.7077
18573TIP3    H277211   0.246   0.444  16.274  2.3868 -0.1993  1.6743
18574TIP3   OH277212   0.491   6.235   1.692 -0.0902 -0.0507  0.1614
18574TIP3    H177213   0.550   6.180   1.639 -0.2353  1.3728 -1.5360
18574TIP3    H277214   0.508   6.208   1.782  4.5094  1.5091 -0.0761
18575TIP3   OH277215   0.113   2.438  15.486 -0.2981  0.0723  0.0957
18575TIP3    H177216   0.078   2.478  15.407  1.6891  0.9805 -0.3467
18575TIP3    H277217   0.132   2.348  15.461  1.6071  0.7336 -0.8578
18576TIP3   OH277218   5.497   2.389   5.189  0.0483 -0.9828 -0.0913
18576TIP3    H177219   5.586   2.392   5.225  0.2136 -0.5879 -0.5152
18576TIP3    H277220   5.443   2.352   5.258  0.3887 -0.3794  0.4982
18577TIP3   OH277221   3.454   3.582   5.514  0.3026  0.5380  0.6248
18577TIP3    H177222   3.404   3.502   5.528  0.2079  0.5471  0.3375
18577TIP3    H277223   3.544   3.559   5.537  0.5978 -0.1496 -1.1922
18578TIP3   OH277224   4.852   2.383  15.768 -0.0819 -0.6571  0.2469
18578TIP3    H177225   4.877   2.393  15.860  2.5592 -0.0667 -0.4858
18578TIP3    H277226   4.862   2.289  15.751  0.6119 -0.5962  0.2760
18579TIP3   OH277227   0.233   6.326   1.679 -0.2095 -0.0058  1.2729
18579TIP3    H177228   0.235   6.395   1.613 -0.9805 -0.6233  0.6033
18579TIP3    H277229   0.310   6.272   1.661 -0.6157 -0.3810  0.6495
18580TIP3   OH277230   2.761   6.546  16.087  0.4468  0.0047 -0.0050
18580TIP3    H177231   2.675   6.503  16.083 -0.0037  0.6980  1.7772
18580TIP3    H277232   2.811   6.493  16.150  1.2551 -0.2565 -0.8589
18581TIP3   OH277233   4.545   3.899   3.852 -0.3623 -0.2160  0.5481
18581TIP3    H177234   4.592   3.930   3.775  0.3843 -1.0062  0.6877
18581TIP3    H277235   4.459   3.942   3.847 -0.1344  0.1116 -0.4556
18582TIP3   OH277236   4.809   0.608   0.371 -0.1684 -0.1299  0.3226
18582TIP3    H177237   4.784   0.655   0.292  0.5513  0.7488  0.6128
18582TIP3    H277238   4.904   0.605   0.368 -0.1842 -1.1015  0.5815
18583TIP3   OH277239   1.549   5.265  14.037 -0.1615  0.2351  0.6000
18583TIP3    H177240   1.509   5.314  14.108  0.4328  1.7850 -0.1247
18583TIP3    H277241   1.531   5.316  13.958  1.5704 -0.0258  0.0086
18584TIP3   OH277242   1.351   4.524  14.753 -0.1828 -0.1038  0.7763
18584TIP3    H177243   1.362   4.433  14.783 -0.9817 -0.2260  0.7000
18584TIP3    H277244   1.355   4.517  14.658  2.8431  0.3432  0.7976
18585TIP3   OH277245   6.115   6.073  17.072 -0.2137  0.5902 -0.1248
18585TIP3    H177246   6.097   6.003  17.010  1.6102  0.2489 -0.2989
18585TIP3    H277247   6.186   6.039  17.127  1.0644  2.5038 -0.5545
18586TIP3   OH277248   4.155   3.387   0.716  0.6830  0.3861 -0.1595
18586TIP3    H177249   4.197   3.301   0.716  1.4306  0.7420  0.1207
18586TIP3    H277250   4.115   3.394   0.803 -0.2922 -0.1100 -0.5638
18587TIP3   OH277251   3.211   4.097  12.756  0.3232  0.1389 -0.4493
18587TIP3    H177252   3.184   4.044  12.831  2.7017 -0.0521  0.3149
18587TIP3    H277253   3.219   4.186  12.790 -0.5871  0.4497 -0.9971
18588TIP3   OH277254   4.929   4.519   0.826 -0.0160 -0.3850  0.0771
18588TIP3    H177255   4.906   4.588   0.888  0.7412 -0.2505  0.2179
18588TIP3    H277256   4.974   4.453   0.879  0.7094 -0.2290 -0.3317
18589TIP3   OH277257   0.135   0.634   1.371  0.0370 -0.4131  0.5261
18589TIP3    H177258   0.095   0.582   1.301  0.3087  1.6587 -1.2207
18589TIP3    H277259   0.229   0.630   1.352  0.0888  0.3998  0.6104
18590TIP3   OH277260   0.028   1.445  16.343 -0.1987  0.8440  0.1844
18590TIP3    H177261   0.038   1.540  16.331 -1.3274  0.7732 -1.4648
18590TIP3    H277262  -0.042   1.437  16.408 -1.0523  1.1395 -0.6831
18591TIP3   OH277263   4.598   5.782   4.606 -0.2199 -0.1723  0.2336
18591TIP3    H177264   4.576   5.859   4.659  1.2385  1.1822 -1.0701
18591TIP3    H277265   4.542   5.790   4.529  2.0555  1.2924 -1.3457
18592TIP3   OH277266   6.210   6.082  14.452  0.5373  0.6705  0.5923
18592TIP3    H177267   6.206   6.076  14.356  1.3640 -0.9881  0.6510
18592TIP3    H277268   6.133   6.134  14.475 -0.9120 -0.7613 -0.8262
18593TIP3   OH277269   4.120   5.462  14.542 -0.0632  0.0121 -0.0026
18593TIP3    H177270   4.096   5.525  14.475  2.4935  2.5658  1.3968
18593TIP3    H277271   4.093   5.503  14.624  0.7942 -1.1050  0.8543
18594TIP3   OH277272   0.860   4.024   5.686 -0.5102  0.3610 -0.3871
18594TIP3    H177273   0.927   3.996   5.623  0.5118  0.6298  0.5562
18594TIP3    H277274   0.812   3.943   5.707 -0.8086  0.2573 -1.4398
18595TIP3   OH277275   6.440   2.846   6.740 -0.0980 -0.5205 -0.5566
18595TIP3    H177276   6.510   2.784   6.762  0.0128 -0.5094 -0.8721
18595TIP3    H277277   6.365   2.817   6.792  0.6885  0.6478  1.2714
18596TIP3   OH277278   1.678   6.638  13.589 -0.2113 -0.4635  0.1534
18596TIP3    H177279   1.678   6.646  13.685  0.9684 -0.2178  0.1412
18596TIP3    H277280   1.719   6.553  13.572  0.5126 -0.0590 -0.1565
18597TIP3   OH277281   6.112   5.143   4.252 -0.1892 -0.3859 -0.6069
18597TIP3    H177282   6.093   5.086   4.177 -0.9886 -0.0293 -0.6839
18597TIP3    H277283   6.128   5.083   4.325 -1.7999 -0.7140 -0.5084
18598TIP3   OH277284   3.304   2.410  15.137 -0.2086  0.0701 -0.2913
18598TIP3    H177285   3.357   2.469  15.084 -1.3229 -0.1184 -1.6322
18598TIP3    H277286   3.348   2.326  15.132  1.4185  0.7768  1.6733
18599TIP3   OH277287   2.158   5.397   0.198 -0.1937 -0.0378  0.6740
18599TIP3    H177288   2.203   5.476   0.229  1.7316 -0.4975 -0.8674
18599TIP3    H277289   2.076   5.430   0.161 -0.4648  0.9877  2.1522
18600TIP3   OH277290   4.453   2.039  16.852 -0.1172  0.0320  0.2643
18600TIP3    H177291   4.375   2.023  16.904 -1.0234  0.2903 -1.0050
18600TIP3    H277292   4.461   2.134  16.849 -0.4511  0.0379 -0.6205
18601TIP3   OH277293   2.133   5.317  14.996  0.0388  0.0620 -0.4832
18601TIP3    H177294   2.053   5.369  14.989  0.5212  0.9642  0.4458
18601TIP3    H277295   2.187   5.346  14.922 -0.0127  0.3146 -0.4216
18602TIP3   OH277296   5.206   6.604  10.901 -0.6057 -0.3849 -0.6361
18602TIP3    H177297   5.193   6.580  10.810 -0.8360  0.4272 -0.8190
18602TIP3    H277298   5.171   6.693  10.908 -1.1607 -0.6779  0.3873
18603TIP3   OH277299   2.440   4.531   5.642  0.6077 -0.2076 -0.1184
18603TIP3    H177300   2.504   4.466   5.613 -1.2333 -1.9354 -0.4264
18603TIP3    H277301   2.483   4.615   5.630  1.5064 -1.1299 -3.7422
18604TIP3   OH277302   0.023   4.281   1.581 -0.1551  0.1745  0.8922
18604TIP3    H177303   0.078   4.257   1.507 -0.9927  1.0146 -0.0098
18604TIP3    H277304  -0.060   4.307   1.542 -1.3335 -1.3989  2.2584
18605TIP3   OH277305   4.623   1.242  14.549  0.1819  0.0724 -0.3526
18605TIP3    H177306   4.569   1.260  14.472 -0.8502  1.4204  0.6549
18605TIP3    H277307   4.567   1.264  14.624  1.2841 -0.8655  0.7952
18606TIP3   OH277308   3.718   6.495  16.127 -0.1380 -0.0440  0.1109
18606TIP3    H177309   3.667   6.568  16.162  1.2765  0.8871  0.3111
18606TIP3    H277310   3.796   6.492  16.183  1.0539 -0.0179 -1.5319
18607TIP3   OH277311   2.032   3.230  16.312 -0.6838 -1.0995  0.3087
18607TIP3    H177312   2.040   3.293  16.240  1.6976 -1.4535  0.2368
18607TIP3    H277313   2.102   3.167  16.297  2.1437  0.7543  4.8620
18608TIP3   OH277314   4.344   6.493   5.679  0.2310  0.0368 -0.2292
18608TIP3    H177315   4.377   6.541   5.755 -0.0409 -0.5450  0.2576
18608TIP3    H277316   4.356   6.401   5.701 -0.7510 -0.1602 -0.4751
18609TIP3   OH277317   6.129   5.817  11.826  0.6253 -0.2202  0.6437
18609TIP3    H177318   6.178   5.788  11.902 -0.1264 -2.2015  0.3967
18609TIP3    H277319   6.041   5.782  11.838  0.4526 -0.4432 -1.0484
18610TIP3   OH277320   2.026   0.353  11.297  0.0258  0.1099  0.0739
18610TIP3    H177321   2.089   0.416  11.333  0.6312  0.3851 -1.4234
18610TIP3    H277322   2.052   0.343  11.205 -1.1048 -1.0438 -0.1353
18611TIP3   OH277323   3.217   6.492   1.855 -0.1726 -0.7610 -0.1298
18611TIP3    H177324   3.261   6.537   1.927 -0.7360 -0.1172 -0.1813
18611TIP3    H277325   3.287   6.471   1.793  0.1808 -0.4920  0.1783
18612TIP3   OH277326   1.773   1.704  14.505  0.1926  0.7244 -0.4574
18612TIP3    H177327   1.826   1.626  14.486  0.5574  1.4198 -2.4408
18612TIP3    H277328   1.684   1.679  14.482 -0.1794 -0.0343  1.6894
18613TIP3   OH277329   3.308   1.163   3.729  0.5597  0.3424  0.0800
18613TIP3    H177330   3.344   1.172   3.818 -0.0716  0.2121  0.3472
18613TIP3    H277331   3.290   1.253   3.702 -0.0486  0.3244  0.4159
18614TIP3   OH277332   4.903   2.747  13.397  0.1526  0.2147  0.1646
18614TIP3    H177333   4.997   2.739  13.414  0.4496 -0.5299 -1.7175
18614TIP3    H277334   4.878   2.830  13.438  1.7081  0.6217  0.2963
18615TIP3   OH277335   1.007   6.647  11.252 -0.0083 -0.1002  0.5191
18615TIP3    H177336   0.939   6.638  11.319 -0.3828 -0.6115  0.0822
18615TIP3    H277337   0.966   6.612  11.173  0.1357  1.3041 -0.1773
18616TIP3   OH277338   1.394   4.021  11.601 -0.1399 -0.3855 -0.2450
18616TIP3    H177339   1.331   3.960  11.564 -0.8358  1.4509 -2.1888
18616TIP3    H277340   1.445   3.969  11.663 -2.8523 -2.1535  0.5631
18617TIP3   OH277341   6.463   4.067   5.438 -0.1970  0.0295 -0.1331
18617TIP3    H177342   6.552   4.060   5.472 -0.4947  0.3461  0.7379
18617TIP3    H277343   6.465   4.141   5.379  0.1735 -0.1008 -0.2836
18618TIP3   OH277344   3.491   5.646   2.971 -0.4766 -0.0963 -0.4632
18618TIP3    H177345   3.466   5.625   2.881 -1.7847 -3.1071  0.5423
18618TIP3    H277346   3.429   5.714   2.998 -0.8298 -0.0346 -1.4243
18619TIP3   OH277347   6.670   2.687  16.494 -0.2799 -0.4575  0.0001
18619TIP3    H177348   6.587   2.734  16.496  0.4080  0.7847 -0.2530
18619TIP3    H277349   6.695   2.685  16.401  0.5681  0.2393  0.2071
18620TIP3   OH277350   1.315   1.451  17.019  0.1912  0.4053  0.4129
18620TIP3    H177351   1.305   1.501  17.100  0.8428  2.8062 -0.9451
18620TIP3    H277352   1.357   1.369  17.046 -0.7867  0.6033  2.6542
18621TIP3   OH277353   4.110   2.900  12.811 -0.0396 -0.1709  0.0748
18621TIP3    H177354   4.131   2.806  12.817  0.6704 -0.1183 -1.4745
18621TIP3    H277355   4.179   2.943  12.861  0.4520 -0.3846 -0.4103
18622TIP3   OH277356   3.080   4.332   4.500 -0.7282  0.1907  0.3466
18622TIP3    H177357   2.999   4.297   4.537  1.0920 -1.6944  2.7859
18622TIP3    H277358   3.084   4.422   4.531 -1.5262  0.0562  0.8397
18623TIP3   OH277359   6.534   1.399   6.789 -0.2207  0.1063  0.1399
18623TIP3    H177360   6.503   1.472   6.735  0.8129  0.2656 -0.2506
18623TIP3    H277361   6.470   1.330   6.775 -0.9340  0.7687  0.1153
18624TIP3   OH277362   1.751   2.063   4.627 -0.3327 -0.1872 -0.4374
18624TIP3    H177363   1.800   2.136   4.589 -0.1550  0.0897  0.3203
18624TIP3    H277364   1.700   2.028   4.553 -0.8138  1.0197 -0.6970
18625TIP3   OH277365   1.887   6.123   3.156  0.0050  0.5655 -0.2658
18625TIP3    H177366   1.941   6.195   3.123  0.8253 -0.3293 -0.8959
18625TIP3    H277367   1.945   6.076   3.216 -0.2284 -0.1111 -0.5680
18626TIP3   OH277368   2.757   2.608  16.282 -0.1850 -0.1372  0.0005
18626TIP3    H177369   2.690   2.665  16.242 -2.4117 -2.1188  0.8259
18626TIP3    H277370   2.716   2.522  16.286  1.8026 -1.0311  2.1122
18627TIP3   OH277371   1.723   0.288   2.922 -0.6431  0.2557 -0.2736
18627TIP3    H177372   1.756   0.220   2.980  0.4738  1.3796  0.4049
18627TIP3    H277373   1.661   0.241   2.865  0.4111 -1.4117 -0.0937
18628TIP3   OH277374   2.173   3.468  11.849 -0.1487 -0.0479 -0.2170
18628TIP3    H177375   2.136   3.436  11.931  0.5718 -0.7788 -0.1610
18628TIP3    H277376   2.108   3.445  11.783 -0.5909  0.2672  0.1099
18629TIP3   OH277377   5.044   4.709  15.320 -0.1053 -0.1349 -0.2049
18629TIP3    H177378   5.034   4.622  15.282  2.6628 -1.4475  1.8648
18629TIP3    H277379   4.982   4.711  15.393 -1.0797  0.1062 -1.0421
18630TIP3   OH277380   3.413   2.279  12.708 -0.3829  0.3642  0.7318
18630TIP3    H177381   3.482   2.273  12.642 -2.2640 -1.7417 -1.1335
18630TIP3    H277382   3.381   2.369  12.701 -0.9020  0.0206 -1.6046
18631TIP3   OH277383   4.887   3.019   5.949 -0.5253  0.1353 -0.0540
18631TIP3    H177384   4.805   2.971   5.963 -1.1784  1.4662  0.7688
18631TIP3    H277385   4.867   3.109   5.973  1.2822  0.4183  0.4678
18632TIP3   OH277386   4.721   0.241  12.899 -0.8349  0.0945  0.5140
18632TIP3    H177387   4.704   0.299  12.973 -0.4825 -0.6468  1.1725
18632TIP3    H277388   4.680   0.158  12.923 -1.4008  0.0815 -0.4584
18633TIP3   OH277389   5.254   2.981  15.918  0.3968 -0.0555 -0.3656
18633TIP3    H177390   5.342   3.003  15.950  0.7807  0.8507 -1.9797
18633TIP3    H277391   5.197   3.042  15.963  0.8999  1.0251 -1.1690
18634TIP3   OH277392   1.113   3.199   5.827 -0.3376 -0.1615  0.1756
18634TIP3    H177393   1.096   3.287   5.793 -1.2287  0.2620  1.6499
18634TIP3    H277394   1.176   3.213   5.898  0.0804 -0.8021 -0.0676
18635TIP3   OH277395   3.699   2.990   3.380 -0.5987  0.1834  0.2250
18635TIP3    H177396   3.654   3.010   3.462 -0.8971  3.2551 -0.6174
18635TIP3    H277397   3.631   2.953   3.323 -0.4108 -1.8678  1.2752
18636TIP3   OH277398   0.687   6.157  15.594 -0.0990 -0.9134  0.5504
18636TIP3    H177399   0.693   6.066  15.568  2.1212 -0.4040 -0.8649
18636TIP3    H277400   0.771   6.196  15.567 -0.1858  1.0838  2.8851
18637TIP3   OH277401   3.177   3.902  10.735 -0.3560 -0.2075 -0.1585
18637TIP3    H177402   3.253   3.904  10.678  0.2376  2.2422  0.6231
18637TIP3    H277403   3.111   3.955  10.690 -1.4051 -1.8151 -0.5538
18638TIP3   OH277404   1.275   4.317   1.723 -0.2154  0.1675 -0.8140
18638TIP3    H177405   1.256   4.394   1.668 -0.6383  1.4633  1.1001
18638TIP3    H277406   1.204   4.316   1.787  0.3251 -1.2876 -0.2249
18639TIP3   OH277407   5.901   1.361   5.240  0.0401 -0.4278 -0.1230
18639TIP3    H177408   5.861   1.284   5.199 -0.8863 -0.1637  0.2493
18639TIP3    H277409   5.943   1.408   5.168  1.3762 -1.7419 -0.2027
18640TIP3   OH277410   5.281   3.825   2.550  0.1468  0.3943 -0.2548
18640TIP3    H177411   5.314   3.750   2.600 -0.1729  0.9468  0.7838
18640TIP3    H277412   5.190   3.803   2.530  0.1377  0.3784 -0.1977
18641TIP3   OH277413   1.648   2.047  15.592 -0.3547 -0.5629  0.1564
18641TIP3    H177414   1.609   2.134  15.592 -0.6361 -0.6862 -1.5208
18641TIP3    H277415   1.579   1.989  15.561  0.6113 -1.0342 -1.1385
18642TIP3   OH277416   4.613   4.011   0.345  0.3078 -0.1702  0.1473
18642TIP3    H177417   4.707   4.016   0.360  0.2969 -1.1664  0.5877
18642TIP3    H277418   4.582   4.101   0.356  1.1541  0.0933  0.3856
18643TIP3   OH277419   6.358   2.083   2.429  0.7410 -0.4954  0.4691
18643TIP3    H177420   6.440   2.098   2.477  1.2217  0.4702 -0.6222
18643TIP3    H277421   6.386   2.040   2.348  0.3640  1.3054 -0.6517
18644TIP3   OH277422   6.051   1.204   2.034 -0.2193  0.5232  0.1627
18644TIP3    H177423   5.984   1.185   2.099 -1.7534  0.6228 -1.3508
18644TIP3    H277424   6.103   1.124   2.029 -2.0098 -0.6111 -0.7225
18645TIP3   OH277425   1.346   3.939  13.733 -0.1873  0.1737 -0.1170
18645TIP3    H177426   1.329   3.916  13.825 -1.2419 -1.0703 -0.5954
18645TIP3    H277427   1.395   4.021  13.737 -0.6654  0.4013  1.5500
18646TIP3   OH277428   1.756   1.867   1.375  0.5103  0.2617 -0.3727
18646TIP3    H177429   1.753   1.829   1.463  1.4486 -1.9853 -1.2709
18646TIP3    H277430   1.820   1.939   1.382  0.1581  0.4612  0.8938
18647TIP3   OH277431   5.871   0.439   2.684  0.1582 -0.5221  0.2896
18647TIP3    H177432   5.962   0.409   2.688  0.0360 -0.9294  0.0484
18647TIP3    H277433   5.861   0.471   2.594  0.7978  1.8786  1.0397
18648TIP3   OH277434   2.543   0.869   0.262 -0.4270  0.0655  0.1803
18648TIP3    H177435   2.468   0.920   0.292 -1.5791  0.3248 -2.9057
18648TIP3    H277436   2.521   0.778   0.282 -0.8046  0.2891  0.7808
18649TIP3   OH277437   2.718   6.144  16.218  0.2141  0.1048 -0.2272
18649TIP3    H177438   2.725   6.087  16.294  1.0923  0.0539 -0.3374
18649TIP3    H277439   2.745   6.230  16.250  0.3263  0.1405 -0.4141
18650TIP3   OH277440   5.628   1.130  13.407 -0.3460 -0.1238  0.1763
18650TIP3    H177441   5.671   1.118  13.323 -1.3386  1.0425 -0.5106
18650TIP3    H277442   5.542   1.166  13.385 -0.1729  1.3096  1.7365
18651TIP3   OH277443   2.150   2.745  13.026  0.2902 -0.8574 -0.4472
18651TIP3    H177444   2.167   2.731  12.933 -0.0188  3.0081 -1.1528
18651TIP3    H277445   2.216   2.809  13.053 -0.2620 -1.1915  1.7536
18652TIP3   OH277446   4.651   1.756  16.241 -0.2572  0.5640  0.4569
18652TIP3    H177447   4.573   1.809  16.230  0.0698  0.8468 -0.5347
18652TIP3    H277448   4.626   1.669  16.209 -1.1000 -0.1696  3.0089
18653TIP3   OH277449   6.380   6.076   5.430  0.3929  0.3282 -0.5987
18653TIP3    H177450   6.356   6.005   5.490 -0.5769  0.9274 -0.2727
18653TIP3    H277451   6.415   6.031   5.353  1.8632 -0.4473  0.4904
18654TIP3   OH277452   3.220   1.862   3.890 -0.1844 -0.6556 -0.2658
18654TIP3    H177453   3.147   1.853   3.828 -1.8184  0.4849  1.4321
18654TIP3    H277454   3.276   1.929   3.851 -1.7433  0.8189 -0.0342
18655TIP3   OH277455   1.336   3.645   6.305 -0.4985  0.0296 -0.0858
18655TIP3    H177456   1.358   3.710   6.239 -0.8217 -0.6148 -0.8366
18655TIP3    H277457   1.241   3.645   6.308 -0.5316 -1.1483 -0.8438
18656TIP3   OH277458   4.848   0.937  12.702  0.0087  0.3087 -0.0511
18656TIP3    H177459   4.910   0.958  12.632 -0.4455  1.6415 -0.0772
18656TIP3    H277460   4.775   0.998  12.688  0.3103  1.1877  2.0896
18657TIP3   OH277461   6.514   2.183   5.467 -0.1698  0.2008 -0.2189
18657TIP3    H177462   6.505   2.093   5.436 -0.2332  0.4805 -1.0277
18657TIP3    H277463   6.559   2.228   5.395 -0.4585  0.8931  0.0380
18658TIP3   OH277464   5.884   1.256   2.977 -0.0470  0.0724  0.3585
18658TIP3    H177465   5.852   1.177   3.021  1.6608 -0.1610  1.1969
18658TIP3    H277466   5.815   1.321   2.993 -0.7154 -0.7915  1.0380
18659TIP3   OH277467   5.149   4.607  14.518  0.0224  0.0812 -0.2788
18659TIP3    H177468   5.150   4.649  14.605  0.7658 -1.3243  0.4083
18659TIP3    H277469   5.077   4.650  14.472  0.7376  2.0917  0.4011
18660TIP3   OH277470   6.527   2.336  14.562 -0.5500 -0.2699 -0.1638
18660TIP3    H177471   6.518   2.426  14.532 -0.9778  0.8311  3.0703
18660TIP3    H277472   6.449   2.291  14.529 -0.6094  0.6751 -1.3145
18661TIP3   OH277473   0.854   5.402   1.397 -0.1607 -0.3594 -0.1554
18661TIP3    H177474   0.913   5.370   1.465 -0.2245 -1.1524 -0.4548
18661TIP3    H277475   0.869   5.342   1.323  0.0586  0.6170 -0.9101
18662TIP3   OH277476   6.160   5.896  16.389 -0.1215 -0.5061 -0.9960
18662TIP3    H177477   6.129   5.835  16.456 -0.4928 -0.1974 -0.8877
18662TIP3    H277478   6.083   5.914  16.335 -0.9108  2.5901  1.0478
18663TIP3   OH277479   2.772   4.790  12.487  0.2090 -0.1892  0.2244
18663TIP3    H177480   2.677   4.801  12.480 -0.0112 -0.5747  2.3333
18663TIP3    H277481   2.801   4.861  12.544  0.9264 -1.1652  1.0972
18664TIP3   OH277482   3.313   2.907   1.427  0.3077  0.3563 -0.0019
18664TIP3    H177483   3.265   2.902   1.510  2.2966  2.5354  1.3237
18664TIP3    H277484   3.353   2.994   1.427  0.6424  0.2749 -3.1106
18665TIP3   OH277485   2.327   1.479  15.191 -0.1420 -0.5567  0.2726
18665TIP3    H177486   2.267   1.415  15.230 -0.3496 -1.4160 -1.3829
18665TIP3    H277487   2.275   1.560  15.185 -0.2789 -0.5703  1.2583
18666TIP3   OH277488   6.808   0.525  12.898 -0.2177  0.1696 -0.2887
18666TIP3    H177489   6.746   0.590  12.865 -0.7567  0.4299  1.1768
18666TIP3    H277490   6.771   0.497  12.982  0.4443 -1.4176 -0.5005
18667TIP3   OH277491   2.196   2.665   3.843  0.0465 -0.2769 -0.1884
18667TIP3    H177492   2.155   2.584   3.873 -0.6230  0.6670  1.4943
18667TIP3    H277493   2.183   2.727   3.915  1.6835  0.9551 -0.9292
18668TIP3   OH277494   2.647   4.326  16.248  0.1328 -0.3273  0.2891
18668TIP3    H177495   2.559   4.288  16.241 -0.4552  0.9267  0.6901
18668TIP3    H277496   2.679   4.328  16.158 -0.2126 -0.8590  0.1469
18669TIP3   OH277497   2.538   2.463   0.277 -0.3865 -0.5902  0.3606
18669TIP3    H177498   2.614   2.522   0.273  0.6408 -1.9374 -0.6005
18669TIP3    H277499   2.576   2.375   0.278 -1.9469 -1.2899 -0.0735
18670TIP3   OH277500   5.042   1.177   5.364  0.2812  0.3386  0.3313
18670TIP3    H177501   4.981   1.208   5.431 -0.4731 -0.4580  0.0336
18670TIP3    H277502   5.111   1.132   5.413 -1.0696 -1.6164  0.5286
18671TIP3   OH277503   5.725   0.516  14.081 -0.2354 -0.2396 -0.3609
18671TIP3    H177504   5.744   0.535  13.989  2.4796  1.0403  0.4334
18671TIP3    H277505   5.792   0.452  14.107  0.9088  1.6646  1.5295
18672TIP3   OH277506   1.107   6.342  12.122  0.5512 -0.1637 -0.0109
18672TIP3    H177507   1.148   6.259  12.099  0.1419  0.1239 -1.8294
18672TIP3    H277508   1.151   6.407  12.067  2.1065  1.1364  2.6591
18673TIP3   OH277509   3.850   5.380   4.365 -0.1416 -0.1572 -0.3939
18673TIP3    H177510   3.917   5.423   4.419 -0.0882  0.0094 -0.5884
18673TIP3    H277511   3.767   5.403   4.407  0.0225 -1.7478  0.7991
18674TIP3   OH277512   4.256   0.858   4.826 -0.3190  0.3284  0.0570
18674TIP3    H177513   4.225   0.929   4.882 -4.0314 -1.5304  0.5097
18674TIP3    H277514   4.308   0.802   4.884 -0.8408  0.4964  0.6919
18675TIP3   OH277515   5.645   4.694   2.527 -0.1029 -0.8089  0.2138
18675TIP3    H177516   5.574   4.739   2.482 -0.0701  0.8836  1.7525
18675TIP3    H277517   5.604   4.617   2.565 -0.8485 -0.5141  0.0207
18676TIP3   OH277518   5.815   5.293   4.759  0.0099  0.2740  0.5121
18676TIP3    H177519   5.895   5.289   4.707 -1.1706 -1.4642 -1.2312
18676TIP3    H277520   5.752   5.337   4.702 -0.7718  0.0538  1.2066
18677TIP3   OH277521   4.220   6.794   4.873  0.0832 -0.2482  1.1748
18677TIP3    H177522   4.267   6.788   4.790  0.1787 -0.7345  1.2623
18677TIP3    H277523   4.147   6.854   4.855 -2.2665 -3.4182 -0.4076
18678TIP3   OH277524   3.655   1.386   1.916  0.1633 -0.2531  0.5058
18678TIP3    H177525   3.614   1.302   1.935 -1.3525  0.4235  0.2828
18678TIP3    H277526   3.704   1.407   1.996 -2.7456  0.5662  2.1551
18679TIP3   OH277527   4.625   1.045   3.463  0.0474 -0.0890  0.0901
18679TIP3    H177528   4.704   1.027   3.514  0.9234  1.3496 -0.7336
18679TIP3    H277529   4.572   0.965   3.472  0.9913 -0.5639  1.7217
18680TIP3   OH277530   6.180   5.805   2.892 -0.3733 -0.4290  0.1614
18680TIP3    H177531   6.136   5.774   2.971 -2.4304 -0.4042 -0.9627
18680TIP3    H277532   6.217   5.890   2.918 -1.0228 -0.4235  1.1034
18681TIP3   OH277533   5.297   4.139  14.351 -0.3297 -0.1649 -0.1202
18681TIP3    H177534   5.220   4.163  14.401 -0.6554  0.6751 -1.0010
18681TIP3    H277535   5.371   4.157  14.410 -0.7751 -0.4689  0.5310
18682TIP3   OH277536   1.453   4.908   4.482 -0.4656 -0.1282 -0.9098
18682TIP3    H177537   1.478   4.922   4.573 -0.2487 -1.8700 -0.6876
18682TIP3    H277538   1.430   4.815   4.477  1.4910 -0.5632 -3.0693
18683TIP3   OH277539   1.298   0.534  16.487  0.1885 -0.0445  0.1979
18683TIP3    H177540   1.347   0.452  16.482 -0.9736 -0.8338  1.2327
18683TIP3    H277541   1.206   0.507  16.481 -0.1226  1.4698 -2.4391
18684TIP3   OH277542   4.175   1.867  16.686 -0.1284 -0.1079 -0.3669
18684TIP3    H177543   4.096   1.900  16.728 -0.0523  0.1956 -0.4651
18684TIP3    H277544   4.162   1.883  16.593 -0.4608 -1.1216 -0.5025
18685TIP3   OH277545   0.271   4.861  13.142  0.0663  0.2650 -0.4220
18685TIP3    H177546   0.266   4.829  13.232  2.6714  1.6754  0.2773
18685TIP3    H277547   0.356   4.829  13.110 -0.2813  0.8443 -1.9603
18686TIP3   OH277548   0.321   5.722  11.680  0.6308 -0.5130 -0.1004
18686TIP3    H177549   0.294   5.794  11.737 -0.1218 -0.4064 -0.5762
18686TIP3    H277550   0.401   5.688  11.719  1.3098  0.9624 -0.1928
18687TIP3   OH277551   4.497   1.197   4.825  0.1885  0.1622 -0.4001
18687TIP3    H177552   4.507   1.111   4.866  0.1153  0.1239 -0.4630
18687TIP3    H277553   4.452   1.249   4.890 -2.8946 -0.8238 -1.6700
18688TIP3   OH277554   3.540   5.905   0.116  0.4598  0.3084 -0.3524
18688TIP3    H177555   3.601   5.894   0.043 -0.1868  3.4501 -1.4483
18688TIP3    H277556   3.467   5.846   0.095  0.4319  0.9285 -2.0789
18689TIP3   OH277557   1.828   0.880   4.853  0.2436  0.3285  0.4224
18689TIP3    H177558   1.888   0.948   4.884 -1.1892  1.7074  0.1921
18689TIP3    H277559   1.779   0.854   4.930 -1.9411  2.3615 -0.2348
18690TIP3   OH277560   5.244   6.202  16.286 -0.1243 -0.1136 -0.0094
18690TIP3    H177561   5.284   6.175  16.368 -0.8342 -1.3928 -0.0647
18690TIP3    H277562   5.275   6.137  16.222  1.5665  1.6599 -1.0823
18691TIP3   OH277563   4.993   1.546   0.036  0.1147 -0.3864 -0.2486
18691TIP3    H177564   4.973   1.611   0.104 -1.1250 -1.1922  0.1623
18691TIP3    H277565   4.916   1.547  -0.021  1.3087  0.5656 -1.8838
18692TIP3   OH277566   2.149   2.863   0.042  0.3315 -0.2190  0.4221
18692TIP3    H177567   2.240   2.848   0.068  0.6008  1.7316  0.6902
18692TIP3    H277568   2.155   2.928  -0.028 -0.8741  0.1254  0.6403
18693TIP3   OH277569   2.553   1.578  13.229  0.1259 -0.8242 -0.0565
18693TIP3    H177570   2.629   1.520  13.231 -1.1568 -2.5921 -0.4177
18693TIP3    H277571   2.524   1.575  13.137  0.5593  1.1062 -0.2680
18694TIP3   OH277572   1.903   6.499   6.561  0.0868  0.8417  0.3178
18694TIP3    H177573   1.935   6.417   6.599  0.8086  0.5184 -0.9437
18694TIP3    H277574   1.977   6.559   6.569 -0.0210  0.9987  0.1289
18695TIP3   OH277575   6.148   0.803   6.863 -0.3827 -0.1016  0.1168
18695TIP3    H177576   6.210   0.737   6.894  0.7192  0.6140 -0.5438
18695TIP3    H277577   6.146   0.869   6.932  0.5578  0.5041 -0.4320
18696TIP3   OH277578   2.562   2.468   3.925  0.1957  0.2186  0.0529
18696TIP3    H177579   2.524   2.514   4.000  2.5689 -0.0182  1.4324
18696TIP3    H277580   2.649   2.506   3.915  0.4177 -0.7329 -1.7113
18697TIP3   OH277581   5.752   5.254   4.249  0.2720  0.3723  0.2009
18697TIP3    H177582   5.838   5.294   4.238  0.0212  1.5236  2.0793
18697TIP3    H277583   5.771   5.161   4.266  1.3077  1.0202  2.8489
18698TIP3   OH277584   6.544   4.241   0.149 -0.2372  0.6193  0.0295
18698TIP3    H177585   6.633   4.235   0.182 -0.1883 -0.9421 -0.3192
18698TIP3    H277586   6.491   4.199   0.217 -0.5880  0.7321 -0.1715
18699TIP3   OH277587   4.349   4.822   6.291 -0.2498  0.4000 -0.1072
18699TIP3    H177588   4.348   4.749   6.229 -1.4359 -0.1308  0.5134
18699TIP3    H277589   4.434   4.815   6.334 -0.9205 -1.5203  0.9701
18700TIP3   OH277590   5.054   6.376   6.189  0.2029  0.0762  0.0052
18700TIP3    H177591   5.036   6.282   6.190 -2.1750  0.5157  0.7066
18700TIP3    H277592   5.128   6.386   6.129  0.6890 -2.2715  0.1796
18701TIP3   OH277593   1.044   2.389   5.596 -0.5404 -0.1403 -0.1471
18701TIP3    H177594   1.127   2.416   5.635  0.8127 -0.8009 -2.5224
18701TIP3    H277595   1.017   2.464   5.543 -1.7773  0.2972  1.0686
18702TIP3   OH277596   6.667   5.217  16.465 -0.3747 -0.4711  0.2817
18702TIP3    H177597   6.571   5.214  16.468 -0.3435 -2.1263  0.1708
18702TIP3    H277598   6.690   5.168  16.386  0.5493  0.3812  0.0133
18703TIP3   OH277599   5.413   1.963  15.184 -0.0567  0.6981  0.0907
18703TIP3    H177600   5.492   1.912  15.167 -0.6213  0.0566 -0.6182
18703TIP3    H277601   5.365   1.962  15.101 -0.4426  1.7309  0.2964
18704TIP3   OH277602   6.137   1.087   1.297  0.2312  0.3832  0.6703
18704TIP3    H177603   6.046   1.085   1.270  0.1421  0.9003  0.9316
18704TIP3    H277604   6.156   1.179   1.312  0.6763  0.2375  1.0307
18705TIP3   OH277605   1.515   0.908   1.733  0.0070  0.4711 -0.2946
18705TIP3    H177606   1.423   0.909   1.707  0.0956  0.1905 -0.6293
18705TIP3    H277607   1.563   0.934   1.654  0.2678 -0.2291 -0.3718
18706TIP3   OH277608   0.451   0.499   1.918 -0.4684  0.1651  0.6656
18706TIP3    H177609   0.487   0.545   1.842 -2.2392  1.9229  0.8456
18706TIP3    H277610   0.467   0.407   1.900  1.5013  0.7162 -0.5974
18707TIP3   OH277611   0.388   1.230   4.470  0.5572  0.2451  0.4043
18707TIP3    H177612   0.418   1.222   4.560  0.0199 -1.6082  0.4439
18707TIP3    H277613   0.429   1.156   4.424  0.5872  0.9899 -0.8079
18708TIP3   OH277614   2.974   1.425   1.657 -0.2931 -0.3072 -0.0112
18708TIP3    H177615   3.037   1.459   1.720 -0.8968 -0.9491  0.9551
18708TIP3    H277616   3.017   1.436   1.572  1.5926 -1.7517  0.7150
18709TIP3   OH277617   2.687   3.583   2.636 -0.3282  0.0791  0.4874
18709TIP3    H177618   2.779   3.557   2.646  0.1482  1.4694 -0.0820
18709TIP3    H277619   2.690   3.678   2.634 -1.9859  0.1770  2.1209
18710TIP3   OH277620   5.519   3.655   2.569 -0.1796 -0.6470  0.8796
18710TIP3    H177621   5.537   3.681   2.479 -0.8227 -0.2420  0.8609
18710TIP3    H277622   5.560   3.723   2.623  2.5069 -2.2859  0.9853
18711TIP3   OH277623   4.346   4.669   5.723 -0.7968  0.5514  0.0066
18711TIP3    H177624   4.404   4.725   5.672  0.2346 -0.1593  0.3914
18711TIP3    H277625   4.365   4.580   5.693  0.4171  0.0480  2.2004
18712TIP3   OH277626   5.396   1.168   1.151 -0.1268  0.1941  0.7394
18712TIP3    H177627   5.421   1.205   1.235 -2.1860  0.6934  1.1536
18712TIP3    H277628   5.304   1.144   1.161  0.1709 -1.7492 -0.6681
18713TIP3   OH277629   6.529   1.289  11.134 -0.4601  0.0168  0.5752
18713TIP3    H177630   6.474   1.320  11.061  1.0901  0.3989 -0.4498
18713TIP3    H277631   6.577   1.366  11.163  1.3060 -0.7891 -0.1186
18714TIP3   OH277632   0.624   1.106   3.100 -0.0797  0.1813  0.2783
18714TIP3    H177633   0.701   1.069   3.057 -0.3458 -1.2664  1.0267
18714TIP3    H277634   0.560   1.035   3.101 -0.9368  0.9490  0.9040
18715TIP3   OH277635   5.673   2.613  16.148  0.2789  0.1803 -0.6492
18715TIP3    H177636   5.587   2.628  16.186 -0.1384 -0.1425 -1.4496
18715TIP3    H277637   5.665   2.645  16.058  0.1286 -2.4182 -1.5956
18716TIP3   OH277638   0.485   1.757  16.984 -0.5040  0.0103  0.4188
18716TIP3    H177639   0.420   1.827  16.979  0.1764  0.7229  1.5145
18716TIP3    H277640   0.530   1.761  16.899 -1.4493 -0.0664 -0.0956
18717TIP3   OH277641   3.905   5.701   3.529  0.8657  0.1188 -0.1561
18717TIP3    H177642   3.929   5.792   3.511  0.8870  0.2119  0.3373
18717TIP3    H277643   3.952   5.679   3.609  1.0047 -0.3864 -0.3742
18718TIP3   OH277644   6.474   5.547  16.849  0.4185 -0.0905 -0.5196
18718TIP3    H177645   6.483   5.637  16.818  0.2238  0.4066  0.8454
18718TIP3    H277646   6.564   5.516  16.858  0.4995  0.2215 -0.2530
18719TIP3   OH277647   3.825   3.391  11.490  0.2454  0.3325 -0.3398
18719TIP3    H177648   3.824   3.406  11.585 -1.2956  0.1381 -0.3103
18719TIP3    H277649   3.813   3.478  11.452 -1.7113  0.1076 -0.2919
18720TIP3   OH277650   1.794   3.053   0.903  0.3916  0.7782 -0.4914
18720TIP3    H177651   1.881   3.077   0.872  0.7301  1.8776  1.2219
18720TIP3    H277652   1.746   3.135   0.905 -0.5539  0.2388 -1.0307
18721TIP3   OH277653   3.789   2.872   5.961 -0.1083 -0.4258  0.2062
18721TIP3    H177654   3.861   2.873   6.024  1.4878 -0.6362 -1.5580
18721TIP3    H277655   3.734   2.946   5.986  3.5150  3.0949 -1.5004
18722TIP3   OH277656   3.864   5.204  16.338 -0.3039  0.0532  0.4040
18722TIP3    H177657   3.957   5.199  16.360  0.5227  2.2853 -2.2912
18722TIP3    H277658   3.852   5.136  16.272  0.4182  2.4322 -2.2708
18723TIP3   OH277659   4.229   2.611   2.584  0.6404 -0.0619 -0.2020
18723TIP3    H177660   4.309   2.642   2.542  0.2732  1.5265  0.2529
18723TIP3    H277661   4.186   2.690   2.616 -1.6694 -0.7650 -1.4190
18724TIP3   OH277662   4.746   3.837  15.175  0.2768  0.1233  0.4302
18724TIP3    H177663   4.689   3.898  15.222  0.6260  0.2605  0.6850
18724TIP3    H277664   4.687   3.786  15.120 -0.0528  0.4983  0.4296
18725TIP3   OH277665   5.051   6.290   4.121  0.7406  0.3520  0.3873
18725TIP3    H177666   4.962   6.256   4.110  1.0587 -0.9615  1.6879
18725TIP3    H277667   5.087   6.238   4.193  2.0874  1.8214  0.7886
18726TIP3   OH277668   4.891   2.707   0.518 -0.0793 -0.1331 -0.0820
18726TIP3    H177669   4.827   2.686   0.450  1.4247 -0.5692 -1.3826
18726TIP3    H277670   4.926   2.792   0.494  1.4009 -0.8781 -0.5737
18727TIP3   OH277671   6.620   2.327  11.780 -0.1090 -0.3821  0.3987
18727TIP3    H177672   6.659   2.404  11.739  1.6259  0.1578  2.9431
18727TIP3    H277673   6.671   2.253  11.748 -0.0420 -0.1918  0.0658
18728TIP3   OH277674   2.677   5.438  15.764 -0.7581  0.1609  0.3262
18728TIP3    H177675   2.655   5.360  15.816 -3.3121  0.8462  0.3448
18728TIP3    H277676   2.656   5.511  15.821  1.0386  0.9100  0.0677
18729TIP3   OH277677   2.956   2.739   1.260 -0.1568  0.0265 -0.2647
18729TIP3    H177678   2.999   2.819   1.230  0.4842 -0.1321  0.2029
18729TIP3    H277679   3.028   2.677   1.274 -0.6554 -0.6678 -0.7308
18730TIP3   OH277680   4.416   2.495  15.907 -0.2002 -0.1657  0.3613
18730TIP3    H177681   4.363   2.445  15.845 -0.8117  0.5919  0.2604
18730TIP3    H277682   4.479   2.432  15.941  0.4161 -0.5014 -1.3364
18731TIP3   OH277683   1.921   0.425   3.551  0.2261  0.0501  0.6849
18731TIP3    H177684   1.848   0.460   3.500 -1.0376  0.5802  2.7818
18731TIP3    H277685   1.890   0.339   3.580  0.9144 -0.2298  0.5910
18732TIP3   OH277686   2.363   3.967  11.478  0.0067  0.1027 -0.2602
18732TIP3    H177687   2.321   3.959  11.393 -1.2471 -1.7260  0.4998
18732TIP3    H277688   2.315   3.907  11.535  1.7627  0.1895  1.3862
18733TIP3   OH277689   5.208   5.399   1.993 -0.1808 -0.1669  0.8462
18733TIP3    H177690   5.270   5.438   2.054 -1.1715 -0.5415  2.1367
18733TIP3    H277691   5.258   5.382   1.914  0.8512  1.4236  1.1518
18734TIP3   OH277692   6.486   6.573   1.963  0.8153  0.0818 -0.1269
18734TIP3    H177693   6.519   6.628   1.891  0.9629 -0.9329 -0.8418
18734TIP3    H277694   6.540   6.599   2.038  1.1115  0.6793 -0.5335
18735TIP3   OH277695   0.656   3.351   0.873 -0.5112  0.1315 -0.0247
18735TIP3    H177696   0.644   3.401   0.793 -0.7462  2.3996  1.3833
18735TIP3    H277697   0.707   3.409   0.930 -0.6911 -1.2743  1.6106
18736TIP3   OH277698   3.826   0.573   4.586 -0.1481 -0.0325  0.6416
18736TIP3    H177699   3.783   0.494   4.619 -0.7493  0.1736  0.3727
18736TIP3    H277700   3.910   0.576   4.631  0.0239 -1.0146  0.3780
18737TIP3   OH277701   5.817   3.391   3.285  0.0054 -0.0229 -0.1374
18737TIP3    H177702   5.754   3.434   3.226  0.0375  0.8467  0.4586
18737TIP3    H277703   5.894   3.447   3.282 -0.0138  0.0514  0.7800
18738TIP3   OH277704   3.259   4.787  13.012  0.0404  0.3280  0.1201
18738TIP3    H177705   3.248   4.720  12.946 -0.6392 -0.5126  1.0800
18738TIP3    H277706   3.352   4.782  13.037 -0.2094 -0.8866  0.8473
18739TIP3   OH277707   4.090   3.257  11.249  0.0673  0.1607 -0.2860
18739TIP3    H177708   4.110   3.307  11.328  1.4555 -2.3550  1.0052
18739TIP3    H277709   4.010   3.209  11.270  0.9438 -1.2262 -0.0376
18740TIP3   OH277710   6.404   2.793   1.327 -0.1202 -0.1880  0.4304
18740TIP3    H177711   6.362   2.775   1.243  0.3765 -2.0836  0.5542
18740TIP3    H277712   6.491   2.754   1.319  1.2247  2.6606  0.5926
18741TIP3   OH277713   1.991   2.508   6.703 -0.5806 -0.7034 -0.4217
18741TIP3    H177714   2.082   2.522   6.729 -0.3953 -0.1128 -1.3671
18741TIP3    H277715   1.958   2.596   6.683 -0.8530 -1.1049 -1.7420
18742TIP3   OH277716   3.214   2.025   4.533  0.2254  0.6850  0.5788
18742TIP3    H177717   3.227   1.965   4.606 -0.2349  0.9991  0.9209
18742TIP3    H277718   3.170   2.101   4.571 -1.3724  0.2316 -0.2981
18743TIP3   OH277719   3.482   0.296   4.123 -0.1181 -0.5481 -0.2571
18743TIP3    H177720   3.459   0.230   4.189  1.6209 -0.3159  0.6323
18743TIP3    H277721   3.438   0.376   4.153  0.0150 -0.6399  0.1966
18744TIP3   OH277722   6.264   2.994   2.589 -0.8495 -0.5044 -0.3155
18744TIP3    H177723   6.315   3.067   2.623 -0.2926 -2.0571  2.3142
18744TIP3    H277724   6.183   3.034   2.556 -0.0014  1.4166 -0.1166
18745TIP3   OH277725   4.174   3.023   1.565  0.0630 -0.3053 -0.0692
18745TIP3    H177726   4.098   3.061   1.609  0.1301 -0.4822  0.2017
18745TIP3    H277727   4.240   3.092   1.569 -0.1709 -0.0491 -0.5490
18746TIP3   OH277728   2.640   2.133   5.693  0.6216  0.4446 -0.7392
18746TIP3    H177729   2.603   2.118   5.606 -1.1652  1.2503 -0.1508
18746TIP3    H277730   2.612   2.057   5.744 -1.8605  1.8977  0.1836
18747TIP3   OH277731   0.934   2.674   5.569 -0.6840  0.6276  0.0412
18747TIP3    H177732   0.854   2.643   5.526 -1.7810  0.7309  1.9215
18747TIP3    H277733   0.917   2.766   5.588 -0.9952  0.1491  2.2982
18748TIP3   OH277734   1.514   2.841  17.114 -0.1801 -0.5481 -0.5649
18748TIP3    H177735   1.495   2.929  17.082 -0.8224 -0.0737  1.0474
18748TIP3    H277736   1.609   2.837  17.120 -0.0347 -0.6479 -2.4546
18749TIP3   OH277737   0.528   6.237  11.193  0.0207  0.1202  0.1564
18749TIP3    H177738   0.474   6.221  11.116 -0.2026  1.3859  0.0517
18749TIP3    H277739   0.465   6.244  11.265  0.1170  0.5813  0.1942
18750TIP3   OH277740   3.692   4.798  15.404 -0.0947 -0.0493  0.1671
18750TIP3    H177741   3.625   4.852  15.361 -1.2221 -0.2803  1.5531
18750TIP3    H277742   3.644   4.755  15.475  1.2693 -1.2292  0.3809
18751TIP3   OH277743   2.725   0.306  12.310 -0.6281  0.6042 -0.2342
18751TIP3    H177744   2.796   0.242  12.315 -0.8472  0.5086  2.2846
18751TIP3    H277745   2.645   0.253  12.306 -0.7462  0.7010  0.7032
18752TIP3   OH277746   1.758   2.809  14.334  0.4253  0.2694 -0.1126
18752TIP3    H177747   1.804   2.889  14.310  0.5878 -0.0869 -1.0230
18752TIP3    H277748   1.674   2.815  14.289  0.0084  0.4056  0.6649
18753TIP3   OH277749   4.760   6.529   4.799  0.3854  0.0681 -0.6769
18753TIP3    H177750   4.687   6.576   4.838 -0.1829 -2.0760  0.9484
18753TIP3    H277751   4.837   6.560   4.847 -0.0529 -1.0250  0.7479
18754TIP3   OH277752   5.663   4.237   1.225  0.5895 -0.0535  0.0426
18754TIP3    H177753   5.633   4.222   1.135 -0.5378 -1.7523  0.6661
18754TIP3    H277754   5.757   4.249   1.218  0.4636  0.1445 -1.4041
18755TIP3   OH277755   3.883   0.550  13.429 -0.3356 -0.0859 -0.3018
18755TIP3    H177756   3.938   0.512  13.497 -1.2366 -1.9118 -0.5621
18755TIP3    H277757   3.807   0.491  13.423 -1.2079  1.1110 -1.5332
18756TIP3   OH277758   6.318   1.972   3.872 -0.5405  0.3530 -0.0630
18756TIP3    H177759   6.278   1.999   3.955  0.4107 -1.3455  0.9839
18756TIP3    H277760   6.405   2.014   3.873  0.7010 -2.1475  1.2865
18757TIP3   OH277761   5.612   1.515  11.562 -0.7192  0.1157  0.0334
18757TIP3    H177762   5.614   1.525  11.657 -1.2630 -2.4043  0.3569
18757TIP3    H277763   5.666   1.437  11.546 -0.9205  0.3155 -1.6883
18758TIP3   OH277764   1.178   3.077   4.164 -0.4128 -0.3030  0.0368
18758TIP3    H177765   1.230   3.015   4.112  0.5970 -0.0948  0.7761
18758TIP3    H277766   1.208   3.163   4.134 -1.6271 -0.1587 -0.8028
18759TIP3   OH277767   3.134   5.153   5.889 -0.5835  0.5100  0.5396
18759TIP3    H177768   3.138   5.063   5.858  2.3999  0.7080  0.1946
18759TIP3    H277769   3.124   5.205   5.809  0.0442  0.6283  0.5406
18760TIP3   OH277770   3.304   4.458   0.560 -0.0267 -0.0557 -0.2091
18760TIP3    H177771   3.364   4.529   0.536  0.2329 -0.1046  0.2839
18760TIP3    H277772   3.222   4.481   0.517  0.4339 -0.1579 -1.1587
18761TIP3   OH277773   5.558   4.537  11.697 -0.1466  0.6991  0.0725
18761TIP3    H177774   5.604   4.470  11.647  0.1855 -0.6838  2.1737
18761TIP3    H277775   5.473   4.545  11.653 -1.7006 -3.8435  1.8543
18762TIP3   OH277776   0.940   2.527  12.941  0.4169 -0.2448  0.3123
18762TIP3    H177777   1.025   2.516  12.984 -0.5983  0.7063  2.6782
18762TIP3    H277778   0.893   2.446  12.962  1.0514 -1.1853 -1.8074
18763TIP3   OH277779   5.971   6.751   4.189  0.0489  0.1961  0.7808
18763TIP3    H177780   5.892   6.763   4.243 -0.6572  0.2288 -0.2492
18763TIP3    H277781   5.998   6.661   4.207 -0.9589 -0.2354  0.1801
18764TIP3   OH277782   5.648   4.829   5.903 -0.3370 -0.4858 -0.0486
18764TIP3    H177783   5.619   4.920   5.895 -0.9878 -0.6437  0.4386
18764TIP3    H277784   5.744   4.834   5.902 -0.3614  0.2844  0.7907
18765TIP3   OH277785   6.101   0.866   5.809 -0.4901  0.0695  0.4025
18765TIP3    H177786   6.016   0.863   5.853 -0.3815 -0.5184  0.5875
18765TIP3    H277787   6.081   0.881   5.717 -0.6697  2.4332  0.7995
18766TIP3   OH277788   1.021   6.315   1.601  0.1456 -0.0662  0.1193
18766TIP3    H177789   1.028   6.250   1.670 -2.6126 -0.2284  0.2933
18766TIP3    H277790   0.964   6.383   1.637 -0.7799  0.1831 -1.7247
18767TIP3   OH277791   2.235   6.095  16.521  0.6509 -0.4421  0.1988
18767TIP3    H177792   2.140   6.103  16.528  0.8199 -0.8411  4.0627
18767TIP3    H277793   2.268   6.183  16.539  1.0660 -0.7829  1.1337
18768TIP3   OH277794   1.691   1.428  16.856 -0.2026  0.0634  0.1365
18768TIP3    H177795   1.642   1.509  16.846  0.6238  0.4891 -0.4880
18768TIP3    H277796   1.677   1.381  16.774  0.3771  0.1521 -0.0135
18769TIP3   OH277797   0.598   2.009   3.101 -0.5740  0.5966 -0.2200
18769TIP3    H177798   0.641   2.094   3.107 -0.1487  0.3009  1.1605
18769TIP3    H277799   0.505   2.028   3.116 -0.9132  1.1926 -2.9116
18770TIP3   OH277800   3.692   1.192  12.474 -0.2382  0.1237 -0.0157
18770TIP3    H177801   3.636   1.136  12.528 -1.0698  1.9888  1.1170
18770TIP3    H277802   3.757   1.227  12.536  0.9810 -0.4855 -0.9373
18771TIP3   OH277803   4.767   4.608   4.805  0.2061 -0.4131  0.2997
18771TIP3    H177804   4.758   4.531   4.748 -0.0798  0.7441 -1.2471
18771TIP3    H277805   4.683   4.613   4.851 -1.1285  0.9519 -2.1627
18772TIP3   OH277806   4.698   6.058   5.892 -0.3900 -0.0008 -0.6661
18772TIP3    H177807   4.670   5.966   5.890  0.1968 -0.1863 -0.3897
18772TIP3    H277808   4.793   6.055   5.888 -0.3387  0.5694 -0.0906
18773TIP3   OH277809   4.665   3.592  11.583  0.5920 -0.2820 -0.0930
18773TIP3    H177810   4.743   3.631  11.621  0.4073  0.3101 -0.3148
18773TIP3    H277811   4.696   3.546  11.505  0.7249 -0.0838 -0.1563
18774TIP3   OH277812   3.687   5.333   3.796  0.1537 -0.6467 -0.2712
18774TIP3    H177813   3.688   5.289   3.881 -1.4171  0.9035  0.5840
18774TIP3    H277814   3.725   5.270   3.736  2.5688 -1.2703  1.8168
18775TIP3   OH277815   0.304   3.439  14.653 -0.2377  0.0693 -0.0843
18775TIP3    H177816   0.328   3.521  14.611  0.3379 -0.1748 -0.2320
18775TIP3    H277817   0.326   3.452  14.745 -0.3862  0.1707 -0.0627
18776TIP3   OH277818   2.641   3.439  11.753 -0.3474  0.6018 -0.0970
18776TIP3    H177819   2.602   3.487  11.680 -0.9043  2.0420  1.1089
18776TIP3    H277820   2.567   3.403  11.800  0.1054 -2.1641 -1.4240
18777TIP3   OH277821   1.004   4.465  14.006  0.2746 -0.0800 -0.2766
18777TIP3    H177822   0.928   4.420  13.970  0.9395 -1.5886  0.1761
18777TIP3    H277823   1.008   4.436  14.097  0.6922  0.9543  0.0497
18778TIP3   OH277824   2.383   1.129  14.017  0.3698 -0.8646  0.1618
18778TIP3    H177825   2.391   1.194  14.086 -1.8090  0.8438 -1.1451
18778TIP3    H277826   2.375   1.045  14.063  0.8111  0.0239  1.8956
18779TIP3   OH277827   1.915   5.922  16.290  0.7523  0.4208 -0.3972
18779TIP3    H177828   1.998   5.876  16.274  0.6897  0.2648 -0.2786
18779TIP3    H277829   1.894   5.903  16.382  0.3666  0.0996 -0.5500
18780TIP3   OH277830   0.799   0.919   1.266 -0.7389 -0.2724 -0.1236
18780TIP3    H177831   0.811   0.825   1.254  0.2699 -0.5195  2.5153
18780TIP3    H277832   0.860   0.959   1.203  0.0885 -1.3988 -0.0452
18781TIP3   OH277833   6.673   4.954   3.187  0.1454  0.1008  0.0989
18781TIP3    H177834   6.598   4.936   3.129  1.2062 -0.1960 -1.2160
18781TIP3    H277835   6.703   4.867   3.214  2.1788  0.0175 -2.2365
18782TIP3   OH277836   1.364   4.559   1.359  0.0129  0.1626  0.1765
18782TIP3    H177837   1.310   4.608   1.297  0.5665  1.8784  1.0041
18782TIP3    H277838   1.302   4.522   1.421 -0.2656  2.3424  1.2748
18783TIP3   OH277839   3.694   0.939  15.908  0.0988  0.0753  0.1121
18783TIP3    H177840   3.691   1.030  15.935 -0.8041 -0.6100  2.4035
18783TIP3    H277841   3.610   0.903  15.935  1.5160 -2.1133  1.7805
18784TIP3   OH277842   2.201   5.634   0.307 -0.0727 -0.1313 -0.2130
18784TIP3    H177843   2.269   5.614   0.371 -1.0280 -3.1128 -0.0706
18784TIP3    H277844   2.124   5.657   0.360 -0.7213 -2.1266 -0.2301
18785TIP3   OH277845   0.958   4.023   3.501  0.1945 -0.1940  0.2011
18785TIP3    H177846   0.869   4.057   3.507  0.1575 -0.3012  0.2729
18785TIP3    H277847   0.955   3.940   3.549  0.5411  0.2294  0.9624
18786TIP3   OH277848   5.949   5.937   1.805 -0.3394 -0.8155  0.1777
18786TIP3    H177849   5.977   5.993   1.877  2.0315 -0.3892 -1.0296
18786TIP3    H277850   5.908   5.862   1.848  0.2550 -0.1553  1.9554
18787TIP3   OH277851   2.310   0.054  12.403 -0.2225  0.5522  0.5602
18787TIP3    H177852   2.338   0.079  12.491  0.5663 -0.5886  0.6476
18787TIP3    H277853   2.389   0.017  12.362 -1.2953 -1.7231  0.4369
18788TIP3   OH277854   6.633   3.004   2.167  0.1672 -0.3046 -0.4755
18788TIP3    H177855   6.713   3.014   2.218  0.7036 -1.8850 -0.9657
18788TIP3    H277856   6.565   3.047   2.220  1.0654 -0.1922  0.6131
18789TIP3   OH277857   6.561   1.875  12.225 -0.0302  0.2163 -0.3746
18789TIP3    H177858   6.582   1.851  12.316  1.4355  0.2790 -0.6806
18789TIP3    H277859   6.595   1.964  12.216 -1.1526  0.6220 -0.6716
18790TIP3   OH277860   5.356   6.742   4.110  0.3666  0.0961 -0.2787
18790TIP3    H177861   5.340   6.747   4.016 -0.8514 -2.5554 -0.2661
18790TIP3    H277862   5.449   6.718   4.117  0.6535  1.0366 -0.7710
18791TIP3   OH277863   6.548   2.479   2.916 -0.0908 -0.1950  0.3643
18791TIP3    H177864   6.605   2.489   2.992 -2.2012  3.1600  1.6149
18791TIP3    H277865   6.571   2.393   2.879  4.0332  0.0503  2.1662
18792TIP3   OH277866   1.593   5.011   3.749 -0.2127  0.1020  0.0831
18792TIP3    H177867   1.640   5.053   3.821 -2.0334 -0.0722  1.3975
18792TIP3    H277868   1.610   5.067   3.673 -0.7770  1.9876  1.3253
18793TIP3   OH277869   5.941   4.145  15.829 -0.2371  0.5409  0.0523
18793TIP3    H177870   5.997   4.161  15.905 -1.1532 -0.2051  0.8806
18793TIP3    H277871   5.873   4.212  15.836  0.0582  0.9111 -0.5023
18794TIP3   OH277872   2.883   3.008  11.990  0.3831  0.1117  0.1411
18794TIP3    H177873   2.969   2.973  12.013  0.2667 -0.3099 -0.0596
18794TIP3    H277874   2.865   2.972  11.903 -1.4973 -2.6475  1.5632
18795TIP3   OH277875   2.149   3.148  11.766 -0.6011 -0.3460 -0.2883
18795TIP3    H177876   2.102   3.190  11.838 -0.1721  0.0214 -0.2178
18795TIP3    H277877   2.173   3.062  11.800 -0.2422 -0.1053  0.0732
18796TIP3   OH277878   3.085   4.333  14.441 -0.3464  0.2735  0.3774
18796TIP3    H177879   3.114   4.259  14.388  0.6140  0.7267  0.2607
18796TIP3    H277880   3.164   4.386  14.454 -0.7482  0.5881  1.5721
18797TIP3   OH277881   3.144   4.546   4.881 -0.1371 -0.1563  0.0130
18797TIP3    H177882   3.201   4.623   4.892  0.5027 -0.7499  0.8972
18797TIP3    H277883   3.164   4.514   4.793  0.8262 -0.3055  0.2825
18798TIP3   OH277884   2.348   6.666  15.005 -0.4674 -0.6277  0.2740
18798TIP3    H177885   2.410   6.736  15.028  0.6473 -0.2552 -3.5453
18798TIP3    H277886   2.392   6.617  14.936 -2.6096 -3.1771  0.6372
18799TIP3   OH277887   3.542   5.129  15.155  0.6422  0.2672 -0.2945
18799TIP3    H177888   3.536   5.040  15.188 -0.4517  0.6528  0.5768
18799TIP3    H277889   3.461   5.143  15.107  0.3270  1.1492  0.4855
18800TIP3   OH277890   6.241   0.156  16.322 -0.6650  0.3928  0.0500
18800TIP3    H177891   6.306   0.133  16.389  0.3663  1.8211 -0.4339
18800TIP3    H277892   6.213   0.244  16.346 -2.9770 -0.4759  0.6572
18801TIP3   OH277893   4.761   4.225   1.395 -0.5006  0.0973 -0.0740
18801TIP3    H177894   4.701   4.182   1.334 -2.2955  0.2839  1.5386
18801TIP3    H277895   4.751   4.318   1.375  0.4915  0.0357 -0.9103
18802TIP3   OH277896   5.075   6.600  16.129 -0.3102 -0.0850  0.4886
18802TIP3    H177897   5.096   6.681  16.176 -1.7006  0.5859 -0.0315
18802TIP3    H277898   5.045   6.540  16.198  1.1222 -0.3188  0.9314
18803TIP3   OH277899   1.116   5.338  16.199  0.6983 -0.5410  0.3346
18803TIP3    H177900   1.199   5.380  16.220  0.5756  0.3949 -1.0045
18803TIP3    H277901   1.087   5.380  16.118 -0.6863 -1.4194  0.3500
18804TIP3   OH277902   0.613   1.265   1.046 -0.2776 -0.1541  0.4364
18804TIP3    H177903   0.585   1.173   1.053 -0.2923 -0.1115  0.9690
18804TIP3    H277904   0.555   1.303   0.980 -3.3571  0.6317  3.4253
18805TIP3   OH277905   3.377   5.078   2.303 -0.0546  0.0058  0.1907
18805TIP3    H177906   3.411   5.066   2.391 -0.0877 -1.9502 -0.0494
18805TIP3    H277907   3.382   4.991   2.263  0.2135  0.9310 -1.8255
18806TIP3   OH277908   1.544   4.905   4.742  0.9546  0.5562 -1.2890
18806TIP3    H177909   1.608   4.836   4.759  0.2309  0.1189 -0.2553
18806TIP3    H277910   1.567   4.974   4.804 -0.9791 -0.5562  0.7283
18807TIP3   OH277911   2.010   6.422   4.590 -0.3305 -0.0830 -0.1811
18807TIP3    H177912   1.978   6.445   4.678 -2.0149 -0.1988 -0.7421
18807TIP3    H277913   1.954   6.350   4.563  2.5114 -2.4710  0.0621
18808TIP3   OH277914   4.054   4.210   1.842  0.1754 -0.0458  0.2329
18808TIP3    H177915   4.145   4.181   1.842 -0.1855 -1.2140 -0.3862
18808TIP3    H277916   4.052   4.284   1.903  1.7503  0.7123 -0.6136
18809TIP3   OH277917   4.897   0.504  15.358 -0.0077  0.0292  0.3620
18809TIP3    H177918   4.870   0.595  15.342  0.4239 -0.1461 -1.4633
18809TIP3    H277919   4.993   0.507  15.358  0.0619 -0.8578 -2.5489
18810TIP3   OH277920   0.295   6.193  11.679  0.2879  0.3303  0.0921
18810TIP3    H177921   0.317   6.100  11.684 -0.6100  0.1185  0.0547
18810TIP3    H277922   0.363   6.236  11.731  0.7234 -0.3401  0.0860
18811TIP3   OH277923   4.942   1.956  17.149  0.0671  0.2887 -0.0141
18811TIP3    H177924   4.926   1.943  17.056 -3.0312  1.0959  0.3695
18811TIP3    H277925   5.037   1.944  17.159  0.4272  0.1513 -3.2374
18812TIP3   OH277926   5.571   5.414   3.275 -0.4832 -0.1861  0.0830
18812TIP3    H177927   5.481   5.384   3.290 -0.4010  0.7572  2.6820
18812TIP3    H277928   5.568   5.508   3.292  0.7494  0.0887 -1.0972
18813TIP3   OH277929   4.341   4.929   5.720  0.3394 -0.4002  0.0442
18813TIP3    H177930   4.301   5.010   5.688  0.4432 -0.3771 -0.0297
18813TIP3    H277931   4.271   4.883   5.765  0.2247 -0.3715 -0.1063
18814TIP3   OH277932   3.073   5.200   4.367  0.3095  0.1932  0.5070
18814TIP3    H177933   3.097   5.189   4.275  1.6160 -2.8043  1.1596
18814TIP3    H277934   3.125   5.275   4.396  0.2092  0.8996 -1.0707
18815TIP3   OH277935   4.396   3.891  13.077  0.2456  0.1312 -1.0176
18815TIP3    H177936   4.489   3.868  13.070  0.3587  0.6204 -1.0867
18815TIP3    H277937   4.396   3.984  13.099 -0.2289  0.1166 -0.9642
18816TIP3   OH277938   3.355   4.434  12.064 -0.7445 -0.0678 -0.1920
18816TIP3    H177939   3.318   4.449  11.977 -0.1985 -2.3911 -0.8664
18816TIP3    H277940   3.285   4.455  12.125 -0.8336  2.4842 -1.1388
18817TIP3   OH277941   4.149   1.525   3.818 -0.8968 -0.0678 -0.0864
18817TIP3    H177942   4.164   1.466   3.744  1.7087 -0.9304  1.0770
18817TIP3    H277943   4.138   1.468   3.893  0.4522  0.8906  0.8567
18818TIP3   OH277944   3.141   5.184  11.407 -0.1292  0.4354  0.4130
18818TIP3    H177945   3.218   5.241  11.405  0.3613 -0.2225  0.4282
18818TIP3    H277946   3.123   5.165  11.315 -0.6509  1.0924  0.3793
18819TIP3   OH277947   3.301   5.860   2.430  0.4636 -0.0808  0.0405
18819TIP3    H177948   3.359   5.790   2.460  0.5661 -0.8656 -1.8949
18819TIP3    H277949   3.245   5.818   2.365  0.2606  1.5566 -0.8571
18820TIP3   OH277950   2.414   1.964  14.413  0.7415 -0.2064  0.2091
18820TIP3    H177951   2.500   1.923  14.416  1.9034  2.1384  0.2179
18820TIP3    H277952   2.393   1.983  14.504  0.9040  0.5811  0.0866
18821TIP3   OH277953   2.126   4.989  12.603 -0.4036 -0.3269  0.1007
18821TIP3    H177954   2.203   5.004  12.658 -0.8413 -1.1350  0.9518
18821TIP3    H277955   2.071   4.931  12.655 -0.7603 -1.2225 -1.2477
18822TIP3   OH277956   3.363   3.831  12.003 -0.3576 -0.0896 -1.0183
18822TIP3    H177957   3.386   3.855  12.093 -1.4841  1.2527 -1.0659
18822TIP3    H277958   3.444   3.842  11.953  0.1972 -0.5527 -0.2219
18823TIP3   OH277959   5.530   0.740  17.230 -0.3570 -0.6001  0.3811
18823TIP3    H177960   5.454   0.750  17.287 -0.0674  0.2905  0.6094
18823TIP3    H277961   5.504   0.783  17.148 -0.4803 -1.1948  0.1020
18824TIP3   OH277962   6.346   4.032  15.853 -0.0146 -0.3091  0.2750
18824TIP3    H177963   6.325   3.968  15.785 -1.5358  1.9232 -1.4245
18824TIP3    H277964   6.442   4.039  15.851  0.0319 -1.2293 -0.7213
18825TIP3   OH277965   6.105   3.426   5.983 -1.0932  0.1807  0.2206
18825TIP3    H177966   6.176   3.401   6.043  0.3973 -0.6674 -1.8116
18825TIP3    H277967   6.032   3.370   6.008  0.1456 -1.5898 -0.0082
18826TIP3   OH277968   6.147   4.957  14.199 -0.0322  0.0574 -0.2376
18826TIP3    H177969   6.051   4.962  14.200 -0.2022 -2.6300 -0.1334
18826TIP3    H277970   6.171   4.970  14.107 -0.5261  0.1639 -0.3529
18827TIP3   OH277971   6.158   1.165  16.502  0.1466  0.1772  1.0378
18827TIP3    H177972   6.186   1.079  16.471 -0.3687  0.9534 -1.6644
18827TIP3    H277973   6.206   1.178  16.584  2.2359 -1.5352  0.1168
18828TIP3   OH277974   6.240   5.550  16.297  0.2186 -0.0752  0.0939
18828TIP3    H177975   6.149   5.524  16.281  0.8054 -1.5629 -0.9342
18828TIP3    H277976   6.292   5.481  16.255  1.8269  1.7668 -0.9878
18829TIP3   OH277977   5.142   4.555  13.844  0.2022  0.2564  0.7416
18829TIP3    H177978   5.204   4.586  13.910  2.0619 -1.3809 -0.1865
18829TIP3    H277979   5.095   4.483  13.886 -0.2868  0.7622  1.0659
18830TIP3   OH277980   3.515   5.849   5.440 -0.1383  0.4808 -0.1470
18830TIP3    H177981   3.564   5.807   5.370  0.3871  1.6560 -0.5004
18830TIP3    H277982   3.581   5.896   5.491 -0.4114 -0.9548  1.5772
18831TIP3   OH277983   6.499   5.025  15.787  0.2403 -0.2542  0.1027
18831TIP3    H177984   6.512   4.946  15.734 -0.2564 -0.1531 -0.1730
18831TIP3    H277985   6.499   5.096  15.724 -2.0366 -0.2806  0.0317
18832TIP3   OH277986   1.113   4.012  13.206  0.5532 -0.5606 -0.2090
18832TIP3    H177987   1.065   4.086  13.167  1.1124 -0.6707 -1.1222
18832TIP3    H277988   1.131   4.040  13.296  0.1071  0.1062 -0.3218
18833TIP3   OH277989   4.551   3.693  15.436 -0.0801  0.4936  0.0452
18833TIP3    H177990   4.613   3.646  15.381 -0.4272 -1.0305  0.9182
18833TIP3    H277991   4.493   3.738  15.374 -0.1862 -0.8265 -0.8399
18834TIP3   OH277992   6.058   3.272   2.823  0.1292  0.3017 -0.2718
18834TIP3    H177993   5.982   3.308   2.777 -0.1587 -2.9072 -2.4281
18834TIP3    H277994   6.028   3.261   2.913 -1.3285  0.8363 -0.6720
18835TIP3   OH277995   3.631   3.215   2.871 -0.2774  0.8820 -0.2174
18835TIP3    H177996   3.680   3.180   2.945 -0.5218 -0.1134 -0.5193
18835TIP3    H277997   3.689   3.282   2.833  0.3690  0.5157  0.1149
18836TIP3   OH277998   1.004   2.232   0.474  0.5712 -0.3461 -0.4107
18836TIP3    H177999   0.934   2.231   0.409  0.1074  0.8066  0.0541
18836TIP3    H278000   1.053   2.151   0.459 -1.3548 -1.5547 -0.2013
18837TIP3   OH278001   1.657   3.318  16.747 -0.3844  0.0839 -0.3099
18837TIP3    H178002   1.616   3.330  16.833  0.5617  0.4863  0.0967
18837TIP3    H278003   1.652   3.404  16.705 -0.7942 -0.0982 -0.6317
18838TIP3   OH278004   5.817   0.120   6.891  0.3284  0.8805  0.5151
18838TIP3    H178005   5.870   0.056   6.845  2.4478  0.8673  2.8779
18838TIP3    H278006   5.855   0.205   6.866 -0.1592  1.0196  0.2365
18839TIP3   OH278007   1.388   5.544  14.962  0.5016  0.3739  0.0737
18839TIP3    H178008   1.406   5.450  14.955 -0.7454  0.1367 -0.0388
18839TIP3    H278009   1.438   5.572  15.039  0.7745 -0.4031  0.1853
18840TIP3   OH278010   1.534   3.090  16.992  0.4377 -0.1861  0.4190
18840TIP3    H178011   1.619   3.088  16.948 -0.4526  1.8695 -1.4915
18840TIP3    H278012   1.495   3.173  16.965 -1.0950  0.1476  3.3936
18841TIP3   OH278013   6.002   1.389  11.468  0.2053 -0.4795 -0.2226
18841TIP3    H178014   6.031   1.477  11.445 -0.5584  0.7727  3.2971
18841TIP3    H278015   6.065   1.359  11.534 -1.0208 -1.5335  0.4955
18842TIP3   OH278016   4.583   4.098  14.699 -1.1720 -0.2268  0.2046
18842TIP3    H178017   4.521   4.171  14.692 -1.0800  0.0144  1.6474
18842TIP3    H278018   4.596   4.069  14.609 -2.8495  0.1667 -0.1885
18843TIP3   OH278019   4.525   2.324  13.622  0.4086 -0.7767  0.1801
18843TIP3    H178020   4.601   2.352  13.673 -0.6515 -0.6210  1.6941
18843TIP3    H278021   4.463   2.293  13.687 -1.4172  0.4733 -0.9237
18844TIP3   OH278022   5.990   5.056   3.661 -0.3051  0.5567 -0.0130
18844TIP3    H178023   5.965   5.122   3.596 -1.2334  0.5027  0.2953
18844TIP3    H278024   5.924   4.988   3.655 -0.0492  0.2485  0.5572
18845TIP3   OH278025   1.086   5.871  12.746  0.1943 -0.0249 -0.0033
18845TIP3    H178026   1.019   5.938  12.729 -0.4801 -0.0582  2.3137
18845TIP3    H278027   1.093   5.869  12.841  0.6285 -2.8589 -0.0577
18846TIP3   OH278028   5.388   3.655  16.091 -0.0944  0.5489 -0.2214
18846TIP3    H178029   5.420   3.684  16.006  0.8706  1.6634  0.5091
18846TIP3    H278030   5.455   3.683  16.153 -1.7668  1.6126  1.1689
18847TIP3   OH278031   5.808   1.775  15.655 -0.2073  0.6082 -0.9007
18847TIP3    H178032   5.860   1.846  15.694 -1.4476  0.0919  1.8679
18847TIP3    H278033   5.759   1.817  15.585  0.6903  2.0262 -0.6996
18848TIP3   OH278034   2.209   1.353  16.812  0.4540 -0.0185 -0.7504
18848TIP3    H178035   2.206   1.285  16.878 -0.3909  1.0024  0.3002
18848TIP3    H278036   2.276   1.414  16.842 -2.3668  2.3134  1.1104
18849TIP3   OH278037   0.189   6.478  17.255 -0.0086  0.2289  0.2020
18849TIP3    H178038   0.184   6.543  17.326  2.1083  0.3470  0.2936
18849TIP3    H278039   0.248   6.518  17.191  0.6377 -1.2363 -0.1405
18850TIP3   OH278040   0.391   4.366  16.104  0.2172 -0.4873  0.2204
18850TIP3    H178041   0.323   4.420  16.064 -0.7692 -1.2427  0.8666
18850TIP3    H278042   0.470   4.387  16.054 -0.3953  0.6976 -0.2731
18851TIP3   OH278043   3.514   3.039   1.164  0.5336 -0.0758 -0.1748
18851TIP3    H178044   3.599   3.014   1.201  1.9763 -0.8135 -3.7322
18851TIP3    H278045   3.509   3.133   1.176  0.9549 -0.2893  1.8101
18852TIP3   OH278046   3.149   3.849   2.174  0.2729 -0.4004  0.5168
18852TIP3    H178047   3.225   3.850   2.116 -1.3417  1.7238 -1.6478
18852TIP3    H278048   3.101   3.770   2.149 -0.3385  0.4294 -0.9548
18853TIP3   OH278049   2.355   0.158  11.142 -0.5570 -0.3958 -0.4158
18853TIP3    H178050   2.440   0.195  11.120 -1.6618  1.8408 -1.0860
18853TIP3    H278051   2.351   0.076  11.094  1.0532 -0.3255 -0.6912
18854TIP3   OH278052   0.244   5.461  14.390 -0.0188  0.5428  1.0026
18854TIP3    H178053   0.191   5.438  14.467  0.5686  1.0649  1.5731
18854TIP3    H278054   0.323   5.409  14.400  1.0135  2.2523  1.9241
18855TIP3   OH278055   2.150   0.996  12.738 -0.2710 -0.3490 -0.1629
18855TIP3    H178056   2.154   0.912  12.785 -1.4185  0.0808  0.7234
18855TIP3    H278057   2.169   1.062  12.805 -1.2191  0.2221 -0.4485
18856TIP3   OH278058   0.496   2.411   2.148  0.1841 -0.3549  0.6057
18856TIP3    H178059   0.549   2.490   2.154  0.3469 -0.3767 -0.4074
18856TIP3    H278060   0.412   2.435   2.187  0.2254  0.3276  0.2801
18857TIP3   OH278061   4.976   1.087  11.188  0.0901 -0.2164 -0.3554
18857TIP3    H178062   5.004   1.171  11.224  1.0102 -0.8836  0.5312
18857TIP3    H278063   4.923   1.048  11.258  1.7504 -1.4566  0.2252
18858TIP3   OH278064   0.246   5.655   6.393 -0.5357 -0.0527  0.0859
18858TIP3    H178065   0.154   5.637   6.411 -0.1484  0.3299  2.5627
18858TIP3    H278066   0.263   5.739   6.436  1.4378 -1.0142  1.2277
18859TIP3   OH278067   3.153   4.412  11.806  0.5934 -0.1132 -0.0779
18859TIP3    H178068   3.097   4.395  11.729  0.4113  0.4119 -0.0618
18859TIP3    H278069   3.227   4.353  11.795 -1.2258 -2.7181  1.2519
18860TIP3   OH278070   5.069   2.433   5.061  0.5336 -0.1480 -0.0753
18860TIP3    H178071   5.102   2.421   4.972  0.8309 -1.6817  0.2253
18860TIP3    H278072   5.001   2.366   5.070 -0.8503  1.2549  0.2167
18861TIP3   OH278073   6.535   1.301   4.028 -0.7831  0.5939 -0.5325
18861TIP3    H178074   6.567   1.329   4.114  0.8550  0.2893 -1.0324
18861TIP3    H278075   6.563   1.210   4.020 -1.3861  0.4597 -1.1857
18862TIP3   OH278076   5.151   5.947  15.861 -0.2081  0.5764  0.8846
18862TIP3    H178077   5.110   5.890  15.797 -1.7118  2.9701 -0.3421
18862TIP3    H278078   5.082   5.964  15.926 -0.3188  2.3204  0.3343
18863TIP3   OH278079   2.525   6.285   4.833  0.1411  0.1581  0.3779
18863TIP3    H178080   2.448   6.333   4.803 -1.0857 -1.3086  1.1208
18863TIP3    H278081   2.599   6.339   4.806 -1.0394  0.4635 -2.4115
18864TIP3   OH278082   5.603   0.371  14.895 -0.1558 -0.2021  0.0383
18864TIP3    H178083   5.682   0.422  14.875 -1.3652  0.6457 -2.7673
18864TIP3    H278084   5.632   0.280  14.890  1.0671  0.1273  0.8940
18865TIP3   OH278085   1.332   5.487  16.722 -0.1701 -0.5393 -0.3156
18865TIP3    H178086   1.300   5.427  16.655  1.1131 -2.0015  0.3502
18865TIP3    H278087   1.376   5.431  16.786 -0.9367  0.8730  1.5121
18866TIP3   OH278088   0.238   1.381   1.106  0.1132 -0.2420  0.1651
18866TIP3    H178089   0.155   1.426   1.093  0.3052  0.1251  0.1833
18866TIP3    H278090   0.285   1.435   1.169 -0.6468 -1.7955  2.1274
18867TIP3   OH278091   2.712   0.794   1.336  0.0778  0.7258 -0.1487
18867TIP3    H178092   2.660   0.752   1.267  2.1119 -1.6700 -0.2714
18867TIP3    H278093   2.761   0.862   1.290  1.3704 -0.8114 -1.0902
18868TIP3   OH278094   3.292   5.733   4.063 -0.6599  0.5907 -0.5525
18868TIP3    H178095   3.305   5.826   4.045  1.8866 -0.1079 -2.6195
18868TIP3    H278096   3.346   5.715   4.139 -2.2694  1.0579  0.7377
18869TIP3   OH278097   4.337   5.079  15.871  0.3616  0.1859  0.3968
18869TIP3    H178098   4.264   5.020  15.885 -0.3449  1.0348  0.3330
18869TIP3    H278099   4.313   5.159  15.917  1.1242  0.5605  0.1542
18870TIP3   OH278100   0.615   1.927  15.388  0.0793  0.1390  0.7965
18870TIP3    H178101   0.667   1.846  15.385 -0.6528 -0.2936 -0.6441
18870TIP3    H278102   0.534   1.902  15.431 -0.6180 -0.1890 -0.6677
18871TIP3   OH278103   1.342   2.419   3.363  0.0711 -0.0542  0.5404
18871TIP3    H178104   1.344   2.407   3.269  0.2817 -1.6210  0.7425
18871TIP3    H278105   1.337   2.514   3.375 -0.1302  0.1371 -1.0364
18872TIP3   OH278106   0.599   6.128  15.275 -0.5082 -0.0195  0.6925
18872TIP3    H178107   0.579   6.221  15.267  1.2069  0.2708 -0.1740
18872TIP3    H278108   0.532   6.085  15.222  1.0148  0.9542 -2.1366
18873TIP3   OH278109   6.752   5.591  12.686 -0.3529  0.0972 -0.7406
18873TIP3    H178110   6.692   5.598  12.611 -0.7610  1.2113 -0.3239
18873TIP3    H278111   6.718   5.518  12.737 -1.5527  0.8934 -0.3571
18874TIP3   OH278112   5.323   3.365   0.267 -0.2670 -0.4977 -0.1471
18874TIP3    H178113   5.402   3.412   0.292  0.3017 -0.5816 -1.7004
18874TIP3    H278114   5.253   3.430   0.271  0.2254  0.0712 -0.6471
18875TIP3   OH278115   1.696   5.811  13.247 -0.4547 -0.1661 -0.9165
18875TIP3    H178116   1.707   5.736  13.188 -1.3594 -0.8755 -0.1918
18875TIP3    H278117   1.658   5.774  13.326  0.9341  0.7529  0.2092
18876TIP3   OH278118   1.633   2.289   3.284  0.7921 -0.1221  0.1096
18876TIP3    H178119   1.616   2.230   3.357  0.5745 -0.0916  0.0847
18876TIP3    H278120   1.651   2.374   3.325 -1.6610  0.4519  0.0480
18877TIP3   OH278121   6.036   1.777   3.400 -0.2854 -0.3418  0.0383
18877TIP3    H178122   6.089   1.811   3.328 -1.5069 -1.6474 -1.5277
18877TIP3    H278123   5.978   1.712   3.359 -0.8794 -1.2653  2.2279
18878TIP3   OH278124   1.461   0.579   5.948 -0.0860 -0.8684 -0.1798
18878TIP3    H178125   1.420   0.651   5.997 -2.5729 -2.0632 -0.4219
18878TIP3    H278126   1.492   0.519   6.016 -1.4856 -1.4140  0.0002
18879TIP3   OH278127   3.470   1.994   3.685  0.3287  0.4168 -0.7200
18879TIP3    H178128   3.450   1.954   3.601  0.6419 -1.8668  0.2545
18879TIP3    H278129   3.423   2.077   3.684 -2.2628 -0.9961 -1.8673
18880TIP3   OH278130   3.621   5.983   4.338  0.5354 -0.2593 -0.0864
18880TIP3    H178131   3.604   6.059   4.393  0.1020 -1.3655  1.3284
18880TIP3    H278132   3.665   6.019   4.261  1.1300  1.3246  0.9604
18881TIP3   OH278133   3.947   3.374   2.270 -0.1925  0.0017  0.6836
18881TIP3    H178134   3.852   3.370   2.282 -0.4092 -0.1493 -1.0367
18881TIP3    H278135   3.965   3.467   2.256 -0.2433 -0.1313 -0.2616
18882TIP3   OH278136   5.493   3.926  11.163  0.6295 -0.9449  0.1663
18882TIP3    H178137   5.580   3.940  11.125  1.9092 -0.5877  3.1477
18882TIP3    H278138   5.446   3.877  11.096  1.7579  2.3392 -3.2264
18883TIP3   OH278139   0.662   2.591  11.961 -0.2378  0.2264  0.1712
18883TIP3    H178140   0.757   2.600  11.967 -0.5159  3.5309  0.4229
18883TIP3    H278141   0.641   2.612  11.870 -0.8579  1.2381  0.5369
18884TIP3   OH278142   6.737   1.771  14.608  0.6353  0.3098 -0.2272
18884TIP3    H178143   6.666   1.826  14.576  0.4138  0.3158  0.2709
18884TIP3    H278144   6.728   1.690  14.559 -0.5977 -0.2225  0.8383
18885TIP3   OH278145   3.812   6.464   5.092 -0.0391 -0.7503 -0.0391
18885TIP3    H178146   3.819   6.414   5.173  0.0244 -1.3130 -0.3896
18885TIP3    H278147   3.828   6.400   5.023 -1.8363 -0.6362 -0.5684
18886TIP3   OH278148   2.414   6.129   0.518  0.2123 -0.7944 -0.7274
18886TIP3    H178149   2.440   6.095   0.604 -1.0084 -0.0684 -0.0683
18886TIP3    H278150   2.460   6.213   0.511  1.2905 -1.4183 -1.3229
18887TIP3   OH278151   2.550   3.203  10.420  0.2462  0.7896  0.3282
18887TIP3    H178152   2.559   3.295  10.397  0.0373  0.4572 -1.0814
18887TIP3    H278153   2.619   3.159  10.371 -0.7113 -0.0335 -0.2883
18888TIP3   OH278154   4.442   1.548   5.773 -0.3313  0.0015 -0.0857
18888TIP3    H178155   4.472   1.621   5.827  0.4700 -0.0516 -0.4543
18888TIP3    H278156   4.405   1.486   5.836 -0.4700  0.4529  0.2866
18889TIP3   OH278157   6.007   5.292  13.474  0.4724  0.2911 -0.0518
18889TIP3    H178158   5.993   5.385  13.491 -2.7054  0.0690 -1.1922
18889TIP3    H278159   6.079   5.290  13.411 -0.4395  2.0688 -1.1889
18890TIP3   OH278160   4.279   5.879   2.320 -0.2860  0.4237  0.1780
18890TIP3    H178161   4.356   5.924   2.354  0.8435 -1.1001 -0.3017
18890TIP3    H278162   4.211   5.895   2.386  0.2334  2.3305  0.2811
18891TIP3   OH278163   5.470   3.566   1.576  0.3534 -0.2755  0.4616
18891TIP3    H178164   5.471   3.604   1.488  0.5700 -0.5868  0.3295
18891TIP3    H278165   5.379   3.574   1.605  0.5664  1.1070  0.7670
18892TIP3   OH278166   2.529   1.229   3.849 -0.8073 -0.0904  0.1091
18892TIP3    H178167   2.564   1.216   3.937 -0.2791  0.3199 -0.0354
18892TIP3    H278168   2.599   1.200   3.791 -2.1748 -2.9868 -0.1946
18893TIP3   OH278169   2.238   3.470  13.136  0.0769 -0.0861 -0.0652
18893TIP3    H178170   2.303   3.413  13.095 -1.5251 -2.8236  0.9932
18893TIP3    H278171   2.153   3.431  13.113 -1.1028  2.1073  0.3959
18894TIP3   OH278172   0.357   3.148  13.538  0.2608  0.4989 -0.0964
18894TIP3    H178173   0.296   3.215  13.568 -0.9541  0.2570 -1.9335
18894TIP3    H278174   0.352   3.080  13.605  0.5588  1.6866  1.1439
18895TIP3   OH278175   1.633   4.963   5.229 -0.8354 -0.8113  0.2506
18895TIP3    H178176   1.646   4.881   5.277 -0.0242 -0.8444 -0.0154
18895TIP3    H278177   1.680   5.029   5.280  1.0343 -1.0620 -1.0938
18896TIP3   OH278178   3.451   2.166  13.431 -0.2674  0.1344 -0.5477
18896TIP3    H178179   3.382   2.142  13.371  0.4546 -0.5714 -1.0987
18896TIP3    H278180   3.515   2.095  13.424  0.5102  0.7802 -0.0518
18897TIP3   OH278181   6.156   0.012   2.284 -0.4563  0.0188 -0.3461
18897TIP3    H178182   6.167   0.106   2.300  0.1094 -0.2422  0.8450
18897TIP3    H278183   6.151  -0.026   2.371 -1.6683 -0.9529 -0.8320
18898TIP3   OH278184   3.297   4.756   3.723  0.1264 -0.2278 -0.2087
18898TIP3    H178185   3.336   4.817   3.785  0.6861 -0.8707  0.0793
18898TIP3    H278186   3.347   4.675   3.734  0.0111 -0.4493 -1.2632
18899TIP3   OH278187   0.436   4.802   1.102  0.5282  0.0721  0.7763
18899TIP3    H178188   0.426   4.797   1.007 -0.1510 -0.4523  0.8764
18899TIP3    H278189   0.454   4.712   1.129 -1.1704 -0.1094  1.3608
18900TIP3   OH278190   3.835   1.205   2.886 -0.0364 -0.0261  0.4521
18900TIP3    H178191   3.894   1.280   2.883 -1.2229  0.8953 -0.6112
18900TIP3    H278192   3.751   1.242   2.913 -0.8291 -0.8236 -0.8387
18901TIP3   OH278193   1.029   0.804   5.925  0.0362  0.1414 -0.3056
18901TIP3    H178194   1.006   0.715   5.954 -0.6570  0.1461 -0.8350
18901TIP3    H278195   0.992   0.861   5.992  0.8562  0.0132  0.2633
18902TIP3   OH278196   4.557   6.650  11.069  0.3170 -0.8294  0.2585
18902TIP3    H178197   4.626   6.616  11.126  0.3350  1.1882  1.4858
18902TIP3    H278198   4.588   6.629  10.980  2.0601 -0.8186  0.8337
18903TIP3   OH278199   2.154   4.055   4.057  0.0726  0.0169  0.4846
18903TIP3    H178200   2.237   4.042   4.102  1.1300 -0.3633 -1.5016
18903TIP3    H278201   2.134   3.970   4.018 -1.0179  0.2338  0.5580
18904TIP3   OH278202   3.790   6.352   2.054 -0.6162  0.2505  0.5181
18904TIP3    H178203   3.712   6.405   2.067 -1.2915 -1.1138  2.2460
18904TIP3    H278204   3.762   6.263   2.072  0.7375 -0.5943 -1.3931
18905TIP3   OH278205   5.252   5.179   1.033 -0.0463  0.1487  0.2262
18905TIP3    H178206   5.302   5.171   0.952  0.2417 -0.5082  0.4640
18905TIP3    H278207   5.208   5.094   1.042 -0.6795  0.4844  0.3650
18906TIP3   OH278208   0.902   6.487   4.865 -0.2347 -0.6323 -0.0417
18906TIP3    H178209   0.962   6.434   4.918  0.7474 -0.6629 -1.1625
18906TIP3    H278210   0.912   6.452   4.776  0.3305  1.3267 -0.7822
18907TIP3   OH278211   2.521   1.089  12.823 -0.0532  0.1982  0.0351
18907TIP3    H178212   2.561   1.039  12.752  3.4629  1.7585  0.8442
18907TIP3    H278213   2.483   1.165  12.780 -0.7527 -0.4510 -0.5267
18908TIP3   OH278214   3.600   1.514  10.406 -0.2888  0.1844  0.0309
18908TIP3    H178215   3.531   1.557  10.457 -0.4480 -0.8561  0.7045
18908TIP3    H278216   3.592   1.421  10.429  1.9419  0.1746  0.8472
18909TIP3   OH278217   5.660   6.541  17.147 -0.7572 -0.4250  0.2833
18909TIP3    H178218   5.702   6.535  17.062 -0.0540 -0.1183  0.6039
18909TIP3    H278219   5.607   6.620  17.142 -1.4869 -0.9395 -0.2025
18910TIP3   OH278220   1.973   1.128   2.459  0.5247 -0.2560 -0.2400
18910TIP3    H178221   2.034   1.066   2.501  0.5616  1.2473  2.0196
18910TIP3    H278222   2.023   1.209   2.454 -0.6672  0.4861 -0.0944
18911TIP3   OH278223   5.846   3.742   4.201 -0.3789  0.3283  0.4226
18911TIP3    H178224   5.899   3.665   4.223 -0.9888  0.0703  1.0142
18911TIP3    H278225   5.804   3.766   4.283 -0.6191  0.9663  0.1142
18912TIP3   OH278226   1.922   0.968  15.460  0.6545  0.1559 -0.1720
18912TIP3    H178227   1.918   0.884  15.506  0.6953 -0.4575 -1.2663
18912TIP3    H278228   1.895   1.032  15.526  0.4175 -0.7302  0.6189
18913TIP3   OH278229   5.763   5.961  14.160  0.2744 -0.5497  0.0138
18913TIP3    H178230   5.721   6.018  14.096  2.5750  0.2135 -0.8860
18913TIP3    H278231   5.754   5.873  14.124 -1.4168 -0.5121  0.3369
18914TIP3   OH278232   1.394   2.641   0.887 -0.3535  0.1100  0.2717
18914TIP3    H178233   1.306   2.622   0.854  0.6221 -1.9758 -1.2238
18914TIP3    H278234   1.430   2.703   0.823 -0.3691  0.1484  0.3005
18915TIP3   OH278235   6.026   2.331  16.458 -0.3517 -0.3158 -0.0767
18915TIP3    H178236   6.008   2.411  16.509  1.6142 -0.3852  0.7553
18915TIP3    H278237   6.005   2.260  16.518 -0.1234 -0.4209 -0.1249
18916TIP3   OH278238   1.220   0.611   2.338 -0.1211  0.0436  0.0299
18916TIP3    H178239   1.262   0.684   2.384  1.2754 -0.7807  0.0708
18916TIP3    H278240   1.137   0.599   2.384  1.0186 -0.4206  2.0017
18917TIP3   OH278241   4.910   4.860  14.496  0.1052 -0.0163  0.4369
18917TIP3    H178242   4.867   4.938  14.530 -1.9722 -1.1808  0.5539
18917TIP3    H278243   4.841   4.812  14.452  1.7039 -1.0212 -1.0401
18918TIP3   OH278244   4.074   6.619  15.406  0.5834  0.4099 -0.9103
18918TIP3    H178245   4.051   6.644  15.316 -1.9586 -0.6055 -0.6022
18918TIP3    H278246   4.116   6.533  15.398  1.3122  0.7920 -1.2086
18919TIP3   OH278247   2.522   1.965  16.257  0.6388  0.1473 -0.4644
18919TIP3    H178248   2.472   1.898  16.302  0.4864  1.0659  0.7654
18919TIP3    H278249   2.577   2.004  16.325  3.6886 -1.4068 -1.9188
18920TIP3   OH278250   6.388   0.522   3.588 -0.2446  0.5593 -0.6681
18920TIP3    H178251   6.475   0.482   3.586  0.5641  2.3103 -0.9552
18920TIP3    H278252   6.331   0.452   3.621  1.7353  0.2795  2.3591
18921TIP3   OH278253   3.945   4.382  15.299  0.4603  0.8344 -0.2779
18921TIP3    H178254   3.907   4.297  15.322 -0.2535  1.2796  0.2415
18921TIP3    H278255   3.973   4.419  15.383 -0.5917  1.7351 -0.3039
18922TIP3   OH278256   6.325   6.272   3.040  0.4854 -0.6096  0.4435
18922TIP3    H178257   6.376   6.192   3.037 -1.6961 -2.0558  0.3216
18922TIP3    H278258   6.242   6.247   3.081 -1.0716  1.0655 -1.5067
18923TIP3   OH278259   0.990   5.068   5.833  0.0650  0.0491  0.3476
18923TIP3    H178260   1.067   5.122   5.817 -0.0105  0.2075  0.5044
18923TIP3    H278261   0.985   5.062   5.929  1.1177 -1.7506  0.3238
18924TIP3   OH278262   5.459   1.852  12.114 -0.7234  0.1830 -0.0784
18924TIP3    H178263   5.543   1.812  12.140 -1.5158 -0.4105  1.6062
18924TIP3    H278264   5.484   1.937  12.077  0.6582 -0.1446  0.0513
18925TIP3   OH278265   0.419   2.725   4.041  0.2390  0.1590 -0.1045
18925TIP3    H178266   0.511   2.704   4.050  0.2020 -0.3058 -0.7849
18925TIP3    H278267   0.381   2.650   3.996 -0.9479 -0.7784  2.3725
18926TIP3   OH278268   5.106   6.257   1.549 -0.5427  0.3985 -0.2620
18926TIP3    H178269   5.030   6.208   1.580 -1.4744  1.5504 -0.6970
18926TIP3    H278270   5.122   6.223   1.460  1.1779 -1.7998  0.8385
18927TIP3   OH278271   4.660   4.554   0.667 -0.4251 -0.7964  0.1598
18927TIP3    H178272   4.664   4.531   0.575  0.2775  3.3175 -0.9481
18927TIP3    H278273   4.751   4.567   0.693 -0.7598  0.6994  0.6516
18928TIP3   OH278274   2.770   2.337   2.061  0.3280  0.1598  0.0671
18928TIP3    H178275   2.805   2.386   2.136  0.5937  0.3691 -0.1908
18928TIP3    H278276   2.719   2.266   2.100  0.8347  0.0026  0.4525
18929TIP3   OH278277   3.058   3.983  14.480 -0.1747  0.3545  0.9022
18929TIP3    H178278   3.060   4.035  14.560  0.0010  1.8032 -0.0210
18929TIP3    H278279   2.976   3.934  14.485 -0.7389  1.3324  1.4119
18930TIP3   OH278280   5.256   3.997  14.830 -0.0785 -0.0904 -0.5182
18930TIP3    H178281   5.346   4.030  14.827 -0.2161  0.1850 -1.8867
18930TIP3    H278282   5.220   4.033  14.910  1.1639 -0.5574  0.2743
18931TIP3   OH278283   4.585   2.446  16.794 -0.2416  0.3437  0.1626
18931TIP3    H178284   4.602   2.465  16.886 -1.8322  1.5484  0.2409
18931TIP3    H278285   4.511   2.386  16.794  0.4700 -0.5528 -0.3122
18932TIP3   OH278286   1.911   2.966  15.793 -0.4846 -0.4778  0.1282
18932TIP3    H178287   1.899   2.991  15.885 -2.1135 -0.2964 -0.1225
18932TIP3    H278288   2.005   2.972  15.779 -0.4630  1.8830  1.1190
18933TIP3   OH278289   6.717   3.298   5.283  0.3053  0.6998  0.0818
18933TIP3    H178290   6.804   3.324   5.313 -0.6418  1.7537  2.0372
18933TIP3    H278291   6.666   3.379   5.281 -0.3376  0.2752 -2.1408
18934TIP3   OH278292   3.821   3.136   2.135 -0.6351 -0.2650  0.5319
18934TIP3    H178293   3.842   3.229   2.141 -2.7805  0.3104 -0.5285
18934TIP3    H278294   3.804   3.122   2.042  1.9494 -2.2522  0.3013
18935TIP3   OH278295   6.308   5.623  17.174 -0.3391  0.0914 -0.3097
18935TIP3    H178296   6.395   5.620  17.134 -1.0565 -0.0660 -1.8807
18935TIP3    H278297   6.293   5.534  17.205 -0.4393 -0.1795 -1.1248
18936TIP3   OH278298   1.712   0.464  13.631 -0.0315 -0.1715 -0.0353
18936TIP3    H178299   1.743   0.497  13.547 -0.0828  0.6957  0.2748
18936TIP3    H278300   1.630   0.419  13.611 -0.7383  1.1931 -0.2711
18937TIP3   OH278301   2.816   6.248   6.376 -0.0249 -0.1051 -0.4751
18937TIP3    H178302   2.816   6.194   6.455 -1.9129  0.1245 -0.2839
18937TIP3    H278303   2.905   6.283   6.370 -0.2233  0.9928  2.3459
18938TIP3   OH278304   2.711   2.120   1.854  0.1169 -0.1653 -0.4525
18938TIP3    H178305   2.732   2.155   1.767  0.9846  0.9087  0.1788
18938TIP3    H278306   2.796   2.104   1.895 -0.2640  1.9208  1.2127
18939TIP3   OH278307   2.148   1.401  11.150  0.1752  0.0561 -0.0753
18939TIP3    H178308   2.103   1.474  11.191  2.3159  0.8423  0.9812
18939TIP3    H278309   2.144   1.418  11.056 -2.6833 -0.5013 -0.0888
18940TIP3   OH278310   2.818   0.946   3.998 -0.1126  0.3454 -0.3685
18940TIP3    H178311   2.895   0.976   4.046  0.3591 -0.4394 -0.6169
18940TIP3    H278312   2.854   0.898   3.923 -0.8394 -0.8482  0.0379
18941TIP3   OH278313   5.864   2.803  16.097 -0.0026  0.3854 -0.4363
18941TIP3    H178314   5.886   2.726  16.044  1.2818 -0.2698  1.0038
18941TIP3    H278315   5.787   2.776  16.148  0.0895  0.2493 -0.3674
18942TIP3   OH278316   2.092   2.458   1.131 -0.2666 -0.3976  0.1327
18942TIP3    H178317   2.133   2.544   1.144 -0.3778 -0.1887 -0.8574
18942TIP3    H278318   2.001   2.479   1.110  0.0565 -0.6869 -1.6079
18943TIP3   OH278319   2.002   0.019  15.153  0.1714 -0.0848 -0.3886
18943TIP3    H178320   1.910   0.028  15.129 -0.3531  0.7653  1.7688
18943TIP3    H278321   2.048   0.081  15.096 -0.9075  1.2547  0.1680
18944TIP3   OH278322   0.102   4.662   1.200 -0.0088  0.0856 -0.3689
18944TIP3    H178323   0.147   4.591   1.152 -1.1290 -0.3636 -0.7910
18944TIP3    H278324   0.046   4.616   1.263 -0.0866  0.6228 -0.0469
18945TIP3   OH278325   4.956   1.351  11.309  0.4258 -0.1121 -0.1580
18945TIP3    H178326   5.032   1.406  11.328  0.3760 -0.2395  0.4081
18945TIP3    H278327   4.901   1.405  11.252  1.1482 -0.1898 -0.9393
18946TIP3   OH278328   6.156   4.922  15.500  0.3181 -0.1526 -1.1421
18946TIP3    H178329   6.077   4.976  15.494 -0.5722 -1.4669 -1.4410
18946TIP3    H278330   6.131   4.849  15.557  1.1304 -0.8768 -1.6908
18947TIP3   OH278331   3.732   0.260   5.192  0.2374 -0.1800 -0.6739
18947TIP3    H178332   3.696   0.341   5.230  1.1693  0.4759 -1.1504
18947TIP3    H278333   3.730   0.197   5.263  0.2499  0.5050 -0.0586
18948TIP3   OH278334   6.644   4.488  14.382 -0.3930  0.0612  0.1485
18948TIP3    H178335   6.607   4.512  14.297 -0.8885  0.9576  0.6066
18948TIP3    H278336   6.624   4.395  14.392  2.1977 -0.7756 -1.9989
18949TIP3   OH278337   5.416   4.505   6.077 -0.1033  0.6735  0.4814
18949TIP3    H178338   5.332   4.502   6.032 -0.0357  0.2904  0.3763
18949TIP3    H278339   5.403   4.568   6.148 -0.2262  1.2400 -0.0392
18950TIP3   OH278340   1.212   5.708  11.597  0.0263 -0.2541 -0.3488
18950TIP3    H178341   1.221   5.774  11.528 -2.5268 -0.1953 -0.7061
18950TIP3    H278342   1.182   5.758  11.673  1.2924 -0.5449  0.3473
18951TIP3   OH278343   1.924   1.431   0.008  0.7962 -0.0943  0.1979
18951TIP3    H178344   2.015   1.462   0.005  0.8363 -0.1336  0.9826
18951TIP3    H278345   1.872   1.512   0.009  0.8081 -0.0717 -0.4717
18952TIP3   OH278346   4.419   4.656  11.722  0.0476  0.6034  0.1440
18952TIP3    H178347   4.398   4.707  11.800  0.1708 -1.3746  1.5025
18952TIP3    H278348   4.373   4.573  11.735 -0.0874  0.3167 -1.9916
18953TIP3   OH278349   3.461   1.469   1.188 -0.2190 -0.0809 -0.5011
18953TIP3    H178350   3.373   1.433   1.199 -1.3113  2.3287 -1.0062
18953TIP3    H278351   3.511   1.433   1.262 -1.8774 -0.6598  0.3724
18954TIP3   OH278352   5.950   4.997   1.932  0.1535 -0.3494  0.2691
18954TIP3    H178353   5.949   5.069   1.995  0.8022 -0.7383  0.7335
18954TIP3    H278354   5.876   5.015   1.874 -1.5360 -0.9211  2.1858
18955TIP3   OH278355   4.188   0.005  11.554  0.3650 -0.4683  0.1486
18955TIP3    H178356   4.106  -0.040  11.575 -0.9970  1.7038 -0.3307
18955TIP3    H278357   4.208  -0.024  11.465 -0.8870  0.3491 -0.4263
18956TIP3   OH278358   1.505   2.403   3.714  0.3857  0.0872  0.2892
18956TIP3    H178359   1.565   2.345   3.761  1.3979 -0.0861 -1.1862
18956TIP3    H278360   1.441   2.344   3.673 -0.2989  0.2174  1.1464
18957TIP3   OH278361   5.761   1.826   3.011 -0.3882  0.1859  0.0278
18957TIP3    H178362   5.775   1.732   3.019 -0.8581  0.0947 -0.1641
18957TIP3    H278363   5.837   1.866   3.053 -0.2761 -0.2793  0.2715
18958TIP3   OH278364   2.174   3.232   3.636 -0.0859  0.4592  0.1302
18958TIP3    H178365   2.088   3.248   3.596  0.0205  0.1601 -0.2207
18958TIP3    H278366   2.235   3.282   3.581  0.4253 -2.1208 -1.7460
18959TIP3   OH278367   0.399   3.527   5.960  0.0649  0.0004 -0.7423
18959TIP3    H178368   0.456   3.533   6.037 -0.6319  2.4401 -0.3571
18959TIP3    H278369   0.438   3.587   5.897  0.2996 -1.5539 -2.0936
18960TIP3   OH278370   4.785   4.972   3.261 -0.7338  0.0513  0.5936
18960TIP3    H178371   4.791   5.051   3.314  3.2962 -0.0414  0.3727
18960TIP3    H278372   4.796   4.900   3.323 -0.8563 -0.2423  0.2756
18961TIP3   OH278373   6.485   0.056   5.771 -0.2543 -0.0003 -0.2678
18961TIP3    H178374   6.554   0.118   5.798  0.0276 -0.3593 -0.1553
18961TIP3    H278375   6.502   0.040   5.679 -1.3264  1.3657 -0.7169
18962TIP3   OH278376   5.596   0.056  12.493  0.0110  0.3770 -0.1192
18962TIP3    H178377   5.509   0.019  12.477 -0.5512  1.1735  1.0520
18962TIP3    H278378   5.636  -0.003  12.557 -0.3870  1.0549  0.7601
18963TIP3   OH278379   1.771   4.674  17.186 -0.4455 -0.4702 -0.4356
18963TIP3    H178380   1.745   4.738  17.121 -1.7519 -2.0484 -1.4843
18963TIP3    H278381   1.772   4.723  17.269  0.8935  1.4478 -1.5523
18964TIP3   OH278382   0.286   6.804  13.024 -0.1997 -0.3454  0.3852
18964TIP3    H178383   0.283   6.830  13.115 -0.7327  1.6601 -0.1791
18964TIP3    H278384   0.270   6.884  12.975  1.1771 -1.1708 -1.5060
18965TIP3   OH278385   2.825   0.237  11.918  0.3912 -0.1821 -0.0546
18965TIP3    H178386   2.755   0.302  11.913  1.2240  0.8950  1.4986
18965TIP3    H278387   2.780   0.153  11.923 -0.7220  0.3204 -1.5073
18966TIP3   OH278388   6.089   2.407   1.076  0.1753  0.3380 -0.3116
18966TIP3    H178389   6.078   2.404   1.171  0.3349  1.0804 -0.2642
18966TIP3    H278390   6.183   2.420   1.064  0.1070  0.5916 -0.5624
18967TIP3   OH278391   6.303   4.726  12.117  0.2249  0.0951  0.0606
18967TIP3    H178392   6.366   4.756  12.182  1.8890 -0.3493 -1.3220
18967TIP3    H278393   6.338   4.642  12.086 -0.2771  0.5296 -1.7553
18968TIP3   OH278394   3.980   0.317   5.597 -0.5534  0.0684 -0.5400
18968TIP3    H178395   3.960   0.280   5.683 -0.0979 -0.9767 -0.8745
18968TIP3    H278396   3.967   0.411   5.608 -1.5019 -0.1626  0.3861
18969TIP3   OH278397   3.638   0.928   5.569  0.3385  0.0895  0.0868
18969TIP3    H178398   3.615   0.861   5.633 -0.6174  0.8675  0.5632
18969TIP3    H278399   3.603   0.896   5.486  0.6872 -0.4313  0.1415
18970TIP3   OH278400   1.882   3.899  11.047 -0.1584  0.1983  0.3543
18970TIP3    H178401   1.938   3.823  11.057 -0.8286 -0.3943 -0.3383
18970TIP3    H278402   1.814   3.889  11.113 -0.7590 -0.2698 -0.3309
18971TIP3   OH278403   4.729   2.770  12.842 -0.5576  0.2506  0.0226
18971TIP3    H178404   4.791   2.821  12.790  1.3024 -2.2198 -0.2877
18971TIP3    H278405   4.782   2.734  12.913 -1.8498 -1.1156  0.3095
18972TIP3   OH278406   6.490   0.747   0.958 -0.3630  0.5300  0.6435
18972TIP3    H178407   6.502   0.772   1.049  0.3313  1.1293  0.3895
18972TIP3    H278408   6.404   0.705   0.956 -0.5277  0.8220  1.5079
18973TIP3   OH278409   2.002   5.651   4.850  0.9190  0.4295 -0.6469
18973TIP3    H178410   2.028   5.570   4.894 -0.9359 -0.4879 -1.2106
18973TIP3    H278411   1.922   5.678   4.895  1.7693  2.2193 -0.1645
18974TIP3   OH278412   0.273   0.301   3.003  0.3011  0.2881 -0.4745
18974TIP3    H178413   0.346   0.255   2.962  0.0677  0.6968 -1.3706
18974TIP3    H278414   0.200   0.239   2.998 -0.0598  0.7975 -1.8422
18975TIP3   OH278415   4.132   4.606   5.867 -0.0135 -0.0553  0.2605
18975TIP3    H178416   4.208   4.640   5.819 -1.4127  0.6018 -1.5569
18975TIP3    H278417   4.169   4.567   5.946  2.4294 -1.4604 -1.4783
18976TIP3   OH278418   3.780   3.784   5.288 -0.2954 -0.4620  0.2330
18976TIP3    H178419   3.854   3.740   5.330 -0.2403  0.1670  0.8109
18976TIP3    H278420   3.775   3.869   5.332 -1.8538 -0.8178  0.7664
18977TIP3   OH278421   6.682   3.607   0.145 -0.5332  0.2045  0.0748
18977TIP3    H178422   6.644   3.610   0.057 -0.7409 -0.6086  0.1339
18977TIP3    H278423   6.611   3.574   0.201  0.7116 -2.8490 -0.0716
18978TIP3   OH278424   4.712   1.204   2.254 -0.5531 -0.2331 -0.4999
18978TIP3    H178425   4.687   1.124   2.207 -0.9128 -0.4549  0.0634
18978TIP3    H278426   4.675   1.193   2.341  0.8740 -0.2264  0.1244
18979TIP3   OH278427   6.062   5.971  12.864  0.1465 -0.0461 -0.3715
18979TIP3    H178428   5.990   5.951  12.924 -0.9257 -1.1186 -1.9533
18979TIP3    H278429   6.141   5.957  12.916 -0.7538 -1.0695  0.7650
18980TIP3   OH278430   2.528   5.241  10.635 -0.4583  0.6994  0.0740
18980TIP3    H178431   2.487   5.312  10.586 -0.9006 -0.9600 -2.0506
18980TIP3    H278432   2.619   5.269  10.645 -0.3832  1.1334 -1.6462
18981TIP3   OH278433   3.965   5.691   2.841  0.4718 -0.0590  0.2430
18981TIP3    H178434   3.977   5.779   2.876  1.9104  0.0393 -0.4368
18981TIP3    H278435   3.909   5.647   2.904 -1.7580  1.8875 -0.3144
18982TIP3   OH278436   2.809   1.311  12.833 -0.3677 -0.1761  0.5910
18982TIP3    H178437   2.733   1.277  12.785  1.3084 -3.2462 -0.0224
18982TIP3    H278438   2.826   1.246  12.901 -1.2082  2.9138  3.9258
18983TIP3   OH278439   1.532   6.753   4.016  0.6942 -0.4806 -0.5408
18983TIP3    H178440   1.511   6.841   4.047  1.3184 -0.1248 -1.1092
18983TIP3    H278441   1.507   6.695   4.088  1.3661  0.2677  0.3044
18984TIP3   OH278442   1.171   5.137  14.892 -0.0856 -0.4278 -0.4507
18984TIP3    H178443   1.131   5.078  14.828 -2.0653 -1.2508  1.4736
18984TIP3    H278444   1.127   5.221  14.877 -2.3778 -1.2387  1.4093
18985TIP3   OH278445   4.100   2.414  16.669 -0.0184  0.1345  0.6090
18985TIP3    H178446   4.092   2.325  16.704  1.6919  0.0560  0.8445
18985TIP3    H278447   4.106   2.402  16.574  0.4519 -0.0217  0.6584
18986TIP3   OH278448   6.463   5.581   2.903 -0.3653  0.2080  0.7176
18986TIP3    H178449   6.492   5.508   2.958  0.4960 -0.0319 -0.0301
18986TIP3    H278450   6.370   5.566   2.891 -0.5496  0.2488  2.0804
18987TIP3   OH278451   5.742   4.730  14.809 -0.3304 -0.1532  0.0126
18987TIP3    H178452   5.654   4.696  14.826  0.3884 -1.3895  1.2676
18987TIP3    H278453   5.780   4.668  14.746 -0.8223  1.1316 -1.5999
18988TIP3   OH278454   3.691   4.393  13.288  0.0117  0.3115  0.1401
18988TIP3    H178455   3.701   4.335  13.212 -0.9723 -0.2889  0.4586
18988TIP3    H278456   3.639   4.466  13.254 -1.3072 -0.4526  0.4758
18989TIP3   OH278457   1.300   6.738  16.520 -0.3302 -0.2880 -0.4916
18989TIP3    H178458   1.287   6.820  16.568 -1.7112  0.7564 -2.5500
18989TIP3    H278459   1.370   6.693  16.567 -0.1578  1.6702  1.1879
18990TIP3   OH278460   2.711   3.598  15.384 -0.4941 -0.2987  0.1378
18990TIP3    H178461   2.721   3.508  15.415 -0.8961 -0.1292  0.7637
18990TIP3    H278462   2.773   3.649  15.435 -0.6286 -0.1343  0.1367
18991TIP3   OH278463   5.431   5.870   0.648 -0.4998  0.6464 -0.1917
18991TIP3    H178464   5.495   5.858   0.718 -0.4718 -1.3001 -0.5213
18991TIP3    H278465   5.459   5.950   0.603  1.5251 -0.0332 -0.1620
18992TIP3   OH278466   6.113   5.617   2.692  0.3311  0.0212 -0.6171
18992TIP3    H178467   6.158   5.550   2.743 -1.5683 -0.6992  0.1316
18992TIP3    H278468   6.116   5.695   2.747 -0.0001 -0.2301 -0.2420
18993TIP3   OH278469   4.130   0.889   4.303 -0.1296  0.1019 -0.1227
18993TIP3    H178470   4.223   0.902   4.289 -0.0756  0.7948  0.7780
18993TIP3    H278471   4.125   0.814   4.362 -0.1324  0.0959 -0.1306
18994TIP3   OH278472   1.447   0.838  10.206  0.3828 -0.0417  0.0153
18994TIP3    H178473   1.428   0.931  10.220  1.4296  0.6196 -2.6714
18994TIP3    H278474   1.470   0.805  10.292  2.1897  2.7330  0.6571
18995TIP3   OH278475   4.103   6.675  15.120 -0.4014 -0.0209 -0.0249
18995TIP3    H178476   4.162   6.649  15.049  0.2389  0.7419  0.2232
18995TIP3    H278477   4.015   6.660  15.084 -0.0761 -3.2214  0.3784
18996TIP3   OH278478   5.559   4.421  17.025  0.1903 -0.6201 -0.3923
18996TIP3    H178479   5.600   4.348  16.978 -0.8688 -1.4675 -0.0249
18996TIP3    H278480   5.564   4.396  17.117  1.1715  0.4713 -0.1479
18997TIP3   OH278481   5.519   5.948   1.001 -0.4286  0.1645  0.7534
18997TIP3    H178482   5.451   6.006   0.965 -0.1827  0.8674  1.4152
18997TIP3    H278483   5.503   5.948   1.095  0.4647  0.2937  0.9054
18998TIP3   OH278484   4.222   5.930   4.080 -0.1277  0.4702 -0.3345
18998TIP3    H178485   4.229   5.968   4.167  1.7407  2.1183 -1.1545
18998TIP3    H278486   4.171   5.850   4.092  0.2014  0.6209  2.2692
18999TIP3   OH278487   3.077   0.224   2.294 -0.6458 -0.4572 -0.3967
18999TIP3    H178488   3.020   0.202   2.220 -1.2316  0.8368 -0.3397
18999TIP3    H278489   3.158   0.177   2.276 -1.2577 -1.2560 -1.1568
19000TIP3   OH278490   6.697   3.749   1.592  0.0541  0.0212 -0.1275
19000TIP3    H178491   6.726   3.677   1.535  0.8329  1.1998 -1.2502
19000TIP3    H278492   6.602   3.741   1.595 -0.0846  0.6004 -2.4961
19001TIP3   OH278493   2.820   3.158  14.658 -0.8276  0.5214 -0.5689
19001TIP3    H178494   2.861   3.072  14.670 -1.1355  0.4762  0.1622
19001TIP3    H278495   2.892   3.216  14.635 -0.2625  0.5497  1.1924
19002TIP3   OH278496   3.558   1.223   3.012 -0.2483 -0.1795 -0.0318
19002TIP3    H178497   3.524   1.304   3.051  1.7176  1.1828 -1.0417
19002TIP3    H278498   3.499   1.204   2.939 -0.1446  0.9210 -0.4115
19003TIP3   OH278499   4.582   0.862   0.812 -0.2144 -0.3489 -0.1283
19003TIP3    H178500   4.633   0.797   0.765 -1.4709 -1.3914 -0.1048
19003TIP3    H278501   4.491   0.836   0.796 -0.7033  0.9199  0.5647
19004TIP3   OH278502   6.344   0.415  13.673  0.0289 -0.2652  0.6749
19004TIP3    H178503   6.313   0.337  13.720  0.1004 -0.6009  0.1642
19004TIP3    H278504   6.385   0.469  13.741 -1.7901  0.2525  1.4016
19005TIP3   OH278505   6.695   2.696   5.980 -0.1716 -0.2432  0.0450
19005TIP3    H178506   6.704   2.608   6.017 -0.5565 -0.4937 -0.4640
19005TIP3    H278507   6.622   2.735   6.028  0.8167  0.2538  1.1608
19006TIP3   OH278508   3.850   3.962   5.644  0.1507 -0.4050 -0.1969
19006TIP3    H178509   3.807   3.883   5.677 -1.7199 -0.1167 -1.8889
19006TIP3    H278510   3.938   3.932   5.618 -0.5669 -1.9606 -0.9078
19007TIP3   OH278511   0.393   0.930   5.999 -0.6264 -0.1668  0.2520
19007TIP3    H178512   0.406   1.025   6.002  0.4427 -0.3350  1.1947
19007TIP3    H278513   0.385   0.904   6.091  1.7885 -1.3299  0.1625
19008TIP3   OH278514   1.182   4.315  15.044 -0.0265 -0.1544  0.4914
19008TIP3    H178515   1.156   4.279  14.959  1.0807  1.7277 -0.6820
19008TIP3    H278516   1.275   4.335  15.035 -0.2699  1.6446  1.5421
19009TIP3   OH278517   5.834   3.871   2.283  0.2869  0.0321 -0.5060
19009TIP3    H178518   5.769   3.892   2.217 -1.2387 -0.5344  0.7619
19009TIP3    H278519   5.857   3.955   2.323 -1.5065 -0.0150  0.6757
19010TIP3   OH278520   2.201   0.885   3.631 -0.1128  0.0048  0.1460
19010TIP3    H178521   2.251   0.952   3.677 -1.1348 -0.0984  1.4517
19010TIP3    H278522   2.125   0.869   3.687 -0.5627 -1.2947 -0.7977
19011TIP3   OH278523   4.183   5.373   0.802 -0.2714  0.0315 -0.0471
19011TIP3    H178524   4.236   5.450   0.784 -0.1461  0.3313  1.5748
19011TIP3    H278525   4.243   5.311   0.845 -0.7628 -0.3456  0.1083
19012TIP3   OH278526   1.118   1.806   0.944  0.2865 -0.9175  0.8404
19012TIP3    H178527   1.082   1.767   0.864 -0.1877  0.5668  0.3193
19012TIP3    H278528   1.192   1.858   0.914  1.1803 -1.7354  1.5848
19013TIP3   OH278529   1.455   0.291   5.078  0.2382 -0.5625 -0.4822
19013TIP3    H178530   1.528   0.272   5.020  1.8861 -1.7399  1.9067
19013TIP3    H278531   1.379   0.300   5.020  2.2682  0.8034 -3.0004
19014TIP3   OH278532   1.810   1.271   4.183 -0.2469 -0.1247  0.3154
19014TIP3    H178533   1.811   1.322   4.263  0.9796  1.2537 -0.5577
19014TIP3    H278534   1.837   1.183   4.210 -2.3558 -0.3500  1.8197
19015TIP3   OH278535   1.242   6.646  16.277 -0.7520 -0.3492 -0.2047
19015TIP3    H178536   1.321   6.593  16.265 -0.8518 -0.1528 -1.7628
19015TIP3    H278537   1.268   6.712  16.342  0.1952 -0.6158 -0.3039
19016TIP3   OH278538   1.371   2.814  13.692 -0.6261 -0.5848  0.0972
19016TIP3    H178539   1.373   2.740  13.753 -1.1425 -0.0059  0.8231
19016TIP3    H278540   1.453   2.806  13.642  0.0024 -0.8146  1.1561
19017TIP3   OH278541   5.914   4.182   1.978 -0.3147 -0.2323 -0.3270
19017TIP3    H178542   5.975   4.181   2.052 -2.1272 -0.5902  1.1895
19017TIP3    H278543   5.931   4.099   1.932  1.3418  0.3366 -0.7789
19018TIP3   OH278544   6.034   4.182  16.854  0.3663  0.1188 -0.0061
19018TIP3    H178545   6.051   4.230  16.935  1.9009 -1.0685  0.3978
19018TIP3    H278546   6.077   4.235  16.786  1.6398 -0.4121  0.3735
19019TIP3   OH278547   1.036   2.098  16.783  0.7528  0.2798 -0.3431
19019TIP3    H178548   1.024   2.134  16.871 -0.9410  0.2573 -0.5395
19019TIP3    H278549   0.990   2.014  16.786  0.1945  0.5366 -1.4006
19020TIP3   OH278550   4.727   0.232   2.260 -0.2379  0.3466 -0.2897
19020TIP3    H178551   4.803   0.219   2.203 -1.2635 -0.5087 -1.5084
19020TIP3    H278552   4.761   0.277   2.337  1.7984 -1.4404 -0.1054
19021TIP3   OH278553   4.529   2.872  14.767 -0.1305 -0.1900  0.0317
19021TIP3    H178554   4.530   2.780  14.743 -0.9087  0.0745 -1.0399
19021TIP3    H278555   4.445   2.886  14.811  0.7955 -0.4085  1.9196
19022TIP3   OH278556   3.886   6.180   0.938 -0.1103 -0.0135  0.9674
19022TIP3    H178557   3.825   6.107   0.927  0.2830 -0.3857  1.2317
19022TIP3    H278558   3.861   6.221   1.021 -0.5220  0.3388  0.6728
19023TIP3   OH278559   4.347   3.749   0.851  0.5505  0.3184 -0.1270
19023TIP3    H178560   4.346   3.689   0.777  1.5070 -0.6916  0.6677
19023TIP3    H278561   4.412   3.713   0.911 -1.7097 -0.0623  2.1850
19024TIP3   OH278562   1.300   6.527   1.136  0.0544  0.5802  0.0857
19024TIP3    H178563   1.272   6.468   1.206  1.7290  2.2340  2.2482
19024TIP3    H278564   1.388   6.495   1.113 -0.3227  0.3028 -0.9648
19025TIP3   OH278565   2.715   5.348   6.387 -0.0095 -0.2595 -0.4458
19025TIP3    H178566   2.634   5.318   6.346 -1.2019  1.0294  0.9039
19025TIP3    H278567   2.751   5.412   6.326 -0.6440  0.0439 -0.5038
19026TIP3   OH278568   0.456   3.465  13.234  0.3199  0.2432  0.4664
19026TIP3    H178569   0.545   3.497  13.218  0.5296 -0.2238  0.6901
19026TIP3    H278570   0.433   3.418  13.154  0.2643  0.3830  0.3988
19027TIP3   OH278571   4.205   3.743  13.166 -0.4401  0.7163  0.4202
19027TIP3    H178572   4.276   3.789  13.121  0.8203 -0.2864  1.3211
19027TIP3    H278573   4.142   3.811  13.189  0.4259  1.6837 -0.0426
19028TIP3   OH278574   1.739   6.307   2.914  0.0284  0.7161 -0.3396
19028TIP3    H178575   1.771   6.394   2.939 -0.5245  0.5068  1.1293
19028TIP3    H278576   1.659   6.325   2.863 -0.0338  1.0734 -0.1170
19029TIP3   OH278577   4.995   3.143   4.291  0.1254  0.3207  0.3310
19029TIP3    H178578   5.032   3.152   4.203 -0.2677 -2.8009 -0.2256
19029TIP3    H278579   4.945   3.224   4.305  1.7402  1.6799 -1.5432
19030TIP3   OH278580   2.469   3.269   6.590 -0.3256  0.0175  0.2075
19030TIP3    H178581   2.562   3.251   6.604 -0.1581  0.6456 -0.0487
19030TIP3    H278582   2.445   3.329   6.661  0.0459  1.6728 -1.0222
19031TIP3   OH278583   6.724   6.062  14.743 -0.2138 -0.1910 -0.0594
19031TIP3    H178584   6.809   6.103  14.729 -0.0828 -0.4356  0.0323
19031TIP3    H278585   6.693   6.039  14.655  0.2320 -0.9601 -0.0161
19032TIP3   OH278586   0.407   0.389  13.197  0.1104 -0.0235  0.0240
19032TIP3    H178587   0.476   0.324  13.185  1.0300  0.5513  1.9945
19032TIP3    H278588   0.440   0.467  13.152  0.1752 -0.1387 -0.1274
19033TIP3   OH278589   4.818   5.696  13.561  0.1774  0.2962 -0.3722
19033TIP3    H178590   4.902   5.690  13.516 -0.9770  1.7662 -2.8120
19033TIP3    H278591   4.805   5.790  13.576 -0.4205 -0.0146  1.2145
19034TIP3   OH278592   3.196   5.771  13.542 -0.3864  0.4158 -0.1259
19034TIP3    H178593   3.229   5.808  13.460 -1.0682  1.2884 -0.0134
19034TIP3    H278594   3.224   5.680  13.540 -1.1106  0.2018 -1.7288
19035TIP3   OH278595   6.131   2.358   4.480 -0.1856  0.2443 -0.3985
19035TIP3    H178596   6.047   2.340   4.523 -0.4629  2.5814  0.1055
19035TIP3    H278597   6.114   2.341   4.387 -1.2412  0.7710 -0.3083
19036TIP3   OH278598   0.827   0.038  14.036 -0.1729  0.2421 -0.0293
19036TIP3    H178599   0.738   0.043  14.072 -0.1471  1.5936 -0.1320
19036TIP3    H278600   0.869  -0.033  14.085 -1.2672 -0.3231  0.1024
19037TIP3   OH278601   0.721   5.802   5.788  0.2565  0.1815  0.2387
19037TIP3    H178602   0.662   5.753   5.730  1.3188  0.1421 -0.8186
19037TIP3    H278603   0.674   5.883   5.805 -0.2063  0.0701 -0.4386
19038TIP3   OH278604   5.753   0.204  15.135 -0.1600  0.0496 -0.2705
19038TIP3    H178605   5.763   0.171  15.046 -0.1420 -0.6255 -0.0153
19038TIP3    H278606   5.665   0.176  15.162  0.3059 -0.8170  0.3745
19039TIP3   OH278607   0.697   1.548  16.377  0.1584 -0.5530 -0.0182
19039TIP3    H178608   0.701   1.454  16.394 -1.8430 -1.0827 -2.2458
19039TIP3    H278609   0.655   1.585  16.454  1.6857 -1.3615  1.2168
19040TIP3   OH278610   0.600   6.505   6.209  0.5305 -0.2466  0.0058
19040TIP3    H178611   0.510   6.510   6.242 -0.6092 -2.3794 -2.5468
19040TIP3    H278612   0.598   6.433   6.145  3.7519  0.5102 -1.0524
19041TIP3   OH278613   4.996   6.074   2.039 -0.0042 -0.3164  0.2510
19041TIP3    H178614   4.962   6.163   2.031  1.7461  0.2094 -2.0824
19041TIP3    H278615   4.919   6.018   2.032 -0.9115  0.9592 -0.2628
19042TIP3   OH278616   1.686   4.670  15.227  0.0082 -0.4784  0.1923
19042TIP3    H178617   1.763   4.650  15.280 -0.8569  1.2398  2.1289
19042TIP3    H278618   1.721   4.707  15.147  1.3233 -2.8940 -0.4104
19043TIP3   OH278619   1.943   4.497  16.335 -0.3832 -0.0182 -0.5678
19043TIP3    H178620   1.901   4.416  16.362 -1.1449  0.1602 -1.1915
19043TIP3    H278621   1.975   4.536  16.417 -1.5251 -0.1054 -0.0775
19044TIP3   OH278622   6.462   3.183   5.262 -0.0414  1.0235  0.2684
19044TIP3    H178623   6.552   3.211   5.278  0.0353  0.0072  1.7052
19044TIP3    H278624   6.461   3.156   5.170  0.9630  1.6245  0.0731
19045TIP3   OH278625   1.736   0.307  16.218  0.1002  0.6200 -0.4778
19045TIP3    H178626   1.683   0.380  16.249 -1.0655 -0.6063  0.4794
19045TIP3    H278627   1.718   0.303  16.124 -2.8657 -0.8313  0.1089
19046TIP3   OH278628   6.801   6.640   5.084 -0.5156  0.0669 -0.2910
19046TIP3    H178629   6.768   6.599   5.164 -1.5244  0.8409 -0.3025
19046TIP3    H278630   6.856   6.712   5.114 -0.1959 -0.1707 -0.2952
19047TIP3   OH278631   4.678   6.084  15.632 -0.2657 -0.1045 -0.1694
19047TIP3    H178632   4.620   6.146  15.676  0.4613 -0.5442  1.4055
19047TIP3    H278633   4.635   6.069  15.547 -2.0824  0.1430  0.6712
19048TIP3   OH278634   2.139   1.505   5.596 -0.1042 -0.2211 -0.1318
19048TIP3    H178635   2.113   1.423   5.638 -0.1778 -0.3667 -0.4623
19048TIP3    H278636   2.162   1.563   5.669 -1.4296 -0.0617  0.1620
19049TIP3   OH278637   0.735   2.015   5.283 -0.3740  0.5001  0.1318
19049TIP3    H178638   0.649   2.011   5.324  0.3755  1.0721  1.8071
19049TIP3    H278639   0.796   1.992   5.353  1.1236  3.9211  0.0516
19050TIP3   OH278640   6.340   6.683   5.885  0.2679 -0.1526 -0.3526
19050TIP3    H178641   6.375   6.757   5.836  0.2220  0.8220  1.0434
19050TIP3    H278642   6.304   6.722   5.965  1.4230 -1.8147  1.0255
19051TIP3   OH278643   0.668   1.153   3.365  0.4156  0.4708  0.3535
19051TIP3    H178644   0.677   1.248   3.374  3.6462  0.3477 -0.9538
19051TIP3    H278645   0.650   1.140   3.272 -1.0619 -0.1525  0.7211
19052TIP3   OH278646   0.525   2.803   5.619  0.1765  0.0255 -0.0042
19052TIP3    H178647   0.522   2.887   5.666  0.9163 -0.4250  0.8541
19052TIP3    H278648   0.609   2.765   5.642  0.7231 -0.0352 -2.0361
19053TIP3   OH278649   5.825   0.140  10.381 -0.6313 -0.5986  0.0190
19053TIP3    H178650   5.874   0.082  10.323  0.3428  0.4267 -0.2021
19053TIP3    H278651   5.737   0.102  10.385 -0.7624 -0.5764 -2.2842
19054TIP3   OH278652   2.429   6.525   3.957 -0.5984  0.0741  0.0357
19054TIP3    H178653   2.336   6.523   3.981 -1.4474  0.8055 -3.0225
19054TIP3    H278654   2.441   6.607   3.910  1.4029 -0.4016 -0.3526
19055TIP3   OH278655   2.427   4.166   6.490  0.3960  0.6261 -0.9796
19055TIP3    H178656   2.476   4.177   6.571  1.2802  1.6041 -1.6310
19055TIP3    H278657   2.358   4.103   6.511  1.7606 -0.5489  0.0296
19056TIP3   OH278658   2.643   2.411   4.954 -0.2126  0.9975 -0.1784
19056TIP3    H178659   2.724   2.433   5.000 -0.5496 -1.3095  1.5845
19056TIP3    H278660   2.664   2.332   4.903 -0.5845  2.0275 -1.9971
19057TIP3   OH278661   5.747   0.499   3.917  0.0588  0.0086 -0.4650
19057TIP3    H178662   5.799   0.424   3.947 -1.0028 -0.8849 -0.8618
19057TIP3    H278663   5.765   0.567   3.982  1.0766 -0.5644 -0.1305
19058TIP3   OH278664   6.761   5.530   4.265  0.4338 -0.1372 -0.4332
19058TIP3    H178665   6.684   5.566   4.310 -1.0163 -2.7539 -0.7526
19058TIP3    H278666   6.750   5.556   4.174 -0.6626 -1.4396 -0.6830
19059TIP3   OH278667   0.493   5.135  11.783  0.5105  0.5350  0.0745
19059TIP3    H178668   0.489   5.192  11.860 -1.5003 -0.8620  1.0281
19059TIP3    H278669   0.515   5.049  11.818  0.1060  0.0016 -0.9717
19060TIP3   OH278670   2.805   2.057  13.529 -0.3709 -0.4768 -0.3502
19060TIP3    H178671   2.771   2.008  13.454  0.4484 -1.6491  0.0403
19060TIP3    H278672   2.839   2.138  13.491  0.5103 -1.2895 -1.3356
19061TIP3   OH278673   5.039   1.782   0.671 -0.4644 -0.4996  0.1165
19061TIP3    H178674   5.057   1.736   0.753 -0.4638 -0.9245 -0.1200
19061TIP3    H278675   5.005   1.715   0.612 -1.6414  0.0586  0.1550
19062TIP3   OH278676   6.302   0.803   0.138  0.0173  0.2114  0.8543
19062TIP3    H178677   6.354   0.796   0.218 -0.8803 -0.7909  1.3577
19062TIP3    H278678   6.308   0.895   0.114 -0.0897  0.6158  2.3352
19063TIP3   OH278679   6.672   6.041  11.246  0.0468  0.8665  0.5866
19063TIP3    H178680   6.616   6.071  11.318 -0.9289  2.7042 -0.9092
19063TIP3    H278681   6.614   6.037  11.171  1.2348 -0.3382 -0.2812
19064TIP3   OH278682   4.660   3.529   0.661 -0.1071 -0.1522 -0.1078
19064TIP3    H178683   4.674   3.594   0.592 -1.0153 -1.1533 -1.2595
19064TIP3    H278684   4.566   3.532   0.678 -0.0395 -0.6602  0.3553
19065TIP3   OH278685   3.302   2.928  14.962  0.3192 -0.1113 -0.4013
19065TIP3    H178686   3.216   2.912  15.000  0.0245  0.4882 -0.8165
19065TIP3    H278687   3.307   3.023  14.951  0.3195 -0.2870 -2.0627
19066TIP3   OH278688   4.898   1.803  13.220  0.2027 -0.6835 -0.4714
19066TIP3    H178689   4.861   1.739  13.281  1.0613 -0.7737 -0.0408
19066TIP3    H278690   4.936   1.870  13.276 -0.7161  0.2269 -0.9228
19067TIP3   OH278691   3.870   1.805  12.086  0.1358 -0.5158  0.6685
19067TIP3    H178692   3.826   1.881  12.047 -0.0923 -1.6534 -1.3208
19067TIP3    H278693   3.819   1.786  12.165 -0.8515  0.3084  0.2448
19068TIP3   OH278694   6.185   3.291   1.670 -0.0739  0.3842 -0.1786
19068TIP3    H178695   6.189   3.257   1.580  0.5628  1.1191 -0.4290
19068TIP3    H278696   6.242   3.368   1.669  0.9129 -0.3229  1.1725
19069TIP3   OH278697   1.373   3.821  14.215  0.1853  0.2424 -0.4275
19069TIP3    H178698   1.423   3.890  14.258 -0.6227  0.2175  0.5850
19069TIP3    H278699   1.378   3.747  14.276  1.9314 -0.9423 -1.9946
19070TIP3   OH278700   3.277   5.676   1.365 -0.2399  0.2880 -0.4162
19070TIP3    H178701   3.317   5.759   1.388 -2.2356  1.7195 -1.9495
19070TIP3    H278702   3.349   5.613   1.366  0.7089  1.2828  4.1358
19071TIP3   OH278703   1.188   4.566  11.422 -0.1060  0.1439 -0.2234
19071TIP3    H178704   1.151   4.633  11.364 -0.5217 -1.5782 -1.9699
19071TIP3    H278705   1.278   4.555  11.391  0.4735  1.0274  1.0990
19072TIP3   OH278706   1.076   2.055   2.834  0.5201  0.2357  0.1550
19072TIP3    H178707   1.024   2.082   2.758  1.5891  0.5281 -0.4979
19072TIP3    H278708   1.021   1.992   2.880 -0.0029 -0.2272 -1.0667
19073TIP3   OH278709   5.370   1.410   3.895 -0.4988  0.4834 -0.1156
19073TIP3    H178710   5.352   1.490   3.846 -0.0032  0.1275 -0.8925
19073TIP3    H278711   5.366   1.436   3.987 -2.7682  0.8858 -0.3028
19074TIP3   OH278712   3.843   0.499   2.508 -0.0277  0.1142 -0.2528
19074TIP3    H178713   3.919   0.442   2.518 -0.0423  0.3647  1.5865
19074TIP3    H278714   3.840   0.521   2.415  3.4664  1.8854 -0.0235
19075TIP3   OH278715   5.971   3.787   2.907 -0.7423  0.2939  0.2699
19075TIP3    H178716   6.017   3.705   2.893 -0.4340  0.2344  1.5709
19075TIP3    H278717   5.943   3.784   2.998 -2.8561  0.5727 -0.3515
19076TIP3   OH278718   0.643   0.813   0.625  0.0145  0.8044  0.1501
19076TIP3    H178719   0.737   0.798   0.632 -0.0239  0.9362  1.0222
19076TIP3    H278720   0.631   0.904   0.654 -0.1590  1.4043 -1.7682
19077TIP3   OH278721   5.130   3.960  15.836 -0.3141 -0.4702 -0.4338
19077TIP3    H178722   5.114   3.905  15.760  2.1675  0.2480 -1.5171
19077TIP3    H278723   5.107   3.905  15.911 -4.9152 -0.4305 -1.6923
19078TIP3   OH278724   6.562   4.363   1.507  0.2922 -0.8150 -0.4255
19078TIP3    H178725   6.583   4.309   1.431  0.0319 -0.5185 -0.7131
19078TIP3    H278726   6.502   4.309   1.559 -0.4490 -0.5723 -1.0161
19079TIP3   OH278727   3.661   5.504  15.834 -0.0057 -0.4062  0.0394
19079TIP3    H178728   3.611   5.423  15.839 -0.1762 -0.2938  0.1864
19079TIP3    H278729   3.614   5.558  15.770  1.1998 -1.1741 -1.5420
19080TIP3   OH278730   5.853   1.494  13.087  0.4079  0.2734  0.2157
19080TIP3    H178731   5.825   1.580  13.057 -0.3138 -0.9553 -2.7503
19080TIP3    H278732   5.934   1.477  13.038 -0.1879 -1.3117 -0.2312
19081TIP3   OH278733   6.724   1.554   2.873 -0.3157  0.6208  0.5706
19081TIP3    H178734   6.701   1.509   2.791  2.7060  0.2307 -0.1362
19081TIP3    H278735   6.757   1.484   2.930  1.1111  1.4227  0.7534
19082TIP3   OH278736   3.030   1.292   2.035  0.2384 -0.3304 -0.3333
19082TIP3    H178737   3.050   1.385   2.026 -2.0457  0.1339 -1.0082
19082TIP3    H278738   3.036   1.275   2.129  2.1469  0.1278 -0.3610
19083TIP3   OH278739   0.925   4.566   2.494  0.1848  0.2742  0.0523
19083TIP3    H178740   0.984   4.629   2.536 -0.1898  1.4268 -1.1481
19083TIP3    H278741   0.855   4.618   2.457 -1.0319 -1.0067  0.5054
19084TIP3   OH278742   0.593   6.087  13.795  0.2187 -0.2387  0.2879
19084TIP3    H178743   0.648   6.024  13.842  0.9056  0.0862 -0.0757
19084TIP3    H278744   0.558   6.144  13.864  1.2436  0.2501  0.4141
19085TIP3   OH278745   0.282   1.023   1.942 -0.3990 -0.4969 -0.5265
19085TIP3    H178746   0.368   1.020   1.985  1.0401  1.8958 -3.0682
19085TIP3    H278747   0.273   0.938   1.900 -0.0317 -1.3705  1.1198
19086TIP3   OH278748   3.539   1.836   2.927  0.0082 -0.2946  0.1112
19086TIP3    H178749   3.535   1.744   2.900  4.1130 -0.5503  0.0603
19086TIP3    H278750   3.483   1.882   2.865 -1.2275 -2.5888 -0.5451
19087TIP3   OH278751   4.738   0.770  11.779 -0.1124 -0.2873  0.2891
19087TIP3    H178752   4.765   0.678  11.786 -0.6458 -0.3376  1.7325
19087TIP3    H278753   4.760   0.809  11.863 -1.7054  0.4152  0.4063
19088TIP3   OH278754   0.151   2.239   4.020 -0.4857 -0.3622  0.1422
19088TIP3    H178755   0.142   2.144   4.033 -0.7930 -0.2542  0.7288
19088TIP3    H278756   0.227   2.248   3.962  0.5667 -0.8919  1.4034
19089TIP3   OH278757   1.094   3.878  11.513 -0.0363  0.0032 -0.1864
19089TIP3    H178758   1.030   3.948  11.516 -0.5810 -0.5329  0.8821
19089TIP3    H278759   1.146   3.896  11.434  0.0725  1.8034  0.2730
19090TIP3   OH278760   2.872   5.343  13.319  0.3881 -0.2764 -0.2030
19090TIP3    H178761   2.880   5.415  13.256  1.3090 -2.2328 -2.3675
19090TIP3    H278762   2.780   5.345  13.345 -0.4460 -0.5628 -3.0054
19091TIP3   OH278763   6.534   4.197  13.489  0.5183 -0.1480 -0.0890
19091TIP3    H178764   6.606   4.254  13.515  0.2568 -0.3371  1.1007
19091TIP3    H278765   6.560   4.110  13.519 -0.1965 -0.2144  0.3593
19092TIP3   OH278766   0.336   6.486   5.435 -0.6047  0.2209 -0.1859
19092TIP3    H178767   0.322   6.426   5.508 -0.4902 -1.1785 -1.3110
19092TIP3    H278768   0.289   6.447   5.361  0.5911  0.7942 -1.2731
19093TIP3   OH278769   4.402   5.909   0.712  0.4349  0.4615 -0.0655
19093TIP3    H178770   4.492   5.915   0.678  0.2677 -0.1783 -0.6345
19093TIP3    H278771   4.411   5.863   0.795  0.2902 -2.5724 -1.6520
19094TIP3   OH278772   1.435   1.610   6.301 -0.1050  0.0913  0.5441
19094TIP3    H178773   1.346   1.578   6.315 -0.0260 -0.0299  0.7842
19094TIP3    H278774   1.491   1.546   6.345  0.0206  0.8079  1.4685
19095TIP3   OH278775   3.089   4.654   7.049  0.0361 -0.4569 -0.5171
19095TIP3    H178776   3.068   4.704   6.970 -0.0141 -1.2599 -1.0245
19095TIP3    H278777   3.169   4.607   7.026  0.2518 -0.3614  0.0583
19096TIP3   OH278778   4.171   2.358  13.229  0.6647 -0.5653 -0.1701
19096TIP3    H178779   4.175   2.268  13.261  0.6006 -1.1356 -1.7289
19096TIP3    H278780   4.085   2.390  13.256  0.8897 -0.7935  0.8294
19097TIP3   OH278781   5.011   6.323  15.582 -0.1867 -0.0176 -0.2805
19097TIP3    H178782   4.977   6.303  15.669 -0.3345  0.8735 -0.1315
19097TIP3    H278783   5.001   6.418  15.573  0.5937  0.0102 -0.9437
19098TIP3   OH278784   5.484   1.357   1.335 -0.3749  0.1205  0.5270
19098TIP3    H178785   5.434   1.433   1.304  0.6683  0.6446  0.1277
19098TIP3    H278786   5.445   1.336   1.420  0.0246  1.7724  1.1341
19099TIP3   OH278787   6.726   6.548   2.622 -0.7314 -0.0855 -0.0519
19099TIP3    H178788   6.639   6.511   2.613 -1.1760  0.8648  0.2834
19099TIP3    H278789   6.777   6.506   2.552 -0.8859 -2.2507  1.0996
19100TIP3   OH278790   5.166   0.152   1.157 -0.1331 -0.5333 -0.7945
19100TIP3    H178791   5.187   0.177   1.247  0.1328  0.9461 -1.2722
19100TIP3    H278792   5.249   0.155   1.111 -0.2462 -1.4427 -1.0649
19101TIP3   OH278793   3.687   0.547  12.135 -0.8473  0.0924  0.1264
19101TIP3    H178794   3.738   0.467  12.144 -0.5378  0.3090  0.3276
19101TIP3    H278795   3.752   0.614  12.114 -1.4724 -0.2891 -3.1950
19102TIP3   OH278796   2.754   1.770  15.031 -0.4975  0.7367 -0.4453
19102TIP3    H178797   2.743   1.856  14.990 -0.1750  1.1180  0.2728
19102TIP3    H278798   2.677   1.760  15.088 -1.6152 -0.3375 -2.0743
19103TIP3   OH278799   2.392   2.631  15.786  0.8042 -0.3925 -0.2404
19103TIP3    H178800   2.441   2.561  15.827  0.6194 -0.7147 -0.5641
19103TIP3    H278801   2.438   2.648  15.704  1.1516  0.2239  0.0765
19104TIP3   OH278802   2.049   2.199   5.347 -0.3315  0.2416  0.5040
19104TIP3    H178803   2.050   2.104   5.360  0.2773  0.0139 -1.0296
19104TIP3    H278804   2.116   2.232   5.406 -0.3452 -0.3240  0.8374
19105TIP3   OH278805   3.572   3.622   5.171 -0.2005  0.8007 -0.2333
19105TIP3    H178806   3.641   3.668   5.219  1.2598 -0.7250 -0.8216
19105TIP3    H278807   3.494   3.674   5.186  0.5461  1.2134  2.5188
19106TIP3   OH278808   4.983   2.008  10.645 -0.3473 -0.5474  0.0415
19106TIP3    H178809   4.888   2.012  10.634 -0.2876  0.5421 -0.2012
19106TIP3    H278810   5.015   1.973  10.562 -0.3730  1.4168 -0.8200
19107TIP3   OH278811   1.179   0.478  15.531  0.3571  0.3065  0.7723
19107TIP3    H178812   1.189   0.555  15.587 -2.8197  1.7142 -0.4581
19107TIP3    H278813   1.123   0.508  15.459  1.4076 -2.4007 -1.2756
19108TIP3   OH278814   4.712   1.811  11.003  0.0805  0.0684 -0.3309
19108TIP3    H178815   4.672   1.781  11.085 -1.8293  0.6669 -1.0110
19108TIP3    H278816   4.698   1.906  11.003  1.4418  0.2674 -0.6190
19109TIP3   OH278817   1.295   1.421  16.270  0.3558  0.0129 -0.2818
19109TIP3    H178818   1.229   1.373  16.321 -0.0410 -1.7958 -2.4002
19109TIP3    H278819   1.376   1.410  16.319 -0.6288  1.1470  1.6690
19110TIP3   OH278820   0.912   1.818   2.376 -0.1845 -0.4437  0.1216
19110TIP3    H178821   0.876   1.821   2.464 -0.7384 -0.6077 -0.0950
19110TIP3    H278822   0.978   1.749   2.379  0.2760  0.0208  0.5838
19111TIP3   OH278823   5.207   1.408  13.813 -0.5391  0.3911 -0.3188
19111TIP3    H178824   5.186   1.434  13.723  2.1251  0.5935 -0.9137
19111TIP3    H278825   5.176   1.318  13.819 -1.3174  0.5840 -1.2319
19112TIP3   OH278826   5.652   3.614  15.013  0.4093  0.2220 -0.3271
19112TIP3    H178827   5.614   3.546  14.958  0.6832  0.0253 -0.2800
19112TIP3    H278828   5.596   3.617  15.091  0.5740 -0.1709 -0.1890
19113TIP3   OH278829   0.226   0.169  16.150  0.1162  0.3063 -0.0023
19113TIP3    H178830   0.280   0.121  16.088  1.1224  1.6774 -0.2189
19113TIP3    H278831   0.137   0.164  16.114  0.7465  1.3973 -1.7814
19114TIP3   OH278832   0.917   2.562  12.297 -0.0222 -0.4625  0.0923
19114TIP3    H178833   0.923   2.489  12.236  2.0001  0.3406 -0.7031
19114TIP3    H278834   1.001   2.608  12.289 -0.3946  0.6646  2.2013
19115TIP3   OH278835   3.210   0.733   0.329 -0.2290 -0.1673 -0.0432
19115TIP3    H178836   3.269   0.693   0.393  0.0960  0.5670  0.1116
19115TIP3    H278837   3.188   0.818   0.365 -1.4387 -0.4537 -0.0688
19116TIP3   OH278838   1.144   4.755   1.258 -0.1477 -0.2827  0.7033
19116TIP3    H178839   1.111   4.824   1.201  1.1682 -0.6876 -0.5743
19116TIP3    H278840   1.068   4.700   1.276 -0.9925  0.9330  0.9396
19117TIP3   OH278841   5.176   2.944   5.332 -0.0861  0.4374  0.0517
19117TIP3    H178842   5.145   2.961   5.421 -0.1655 -1.6605  0.4577
19117TIP3    H278843   5.097   2.928   5.281  0.0337  0.2852 -0.0877
19118TIP3   OH278844   3.162   4.422   3.403  0.6101 -0.3156 -1.0935
19118TIP3    H178845   3.177   4.516   3.410  0.3376 -0.3189 -0.4532
19118TIP3    H278846   3.111   4.412   3.323 -1.2631  0.3027 -0.0028
19119TIP3   OH278847   3.480   2.590  13.661  0.0062  0.0061 -0.7472
19119TIP3    H178848   3.527   2.672  13.643 -0.4516  0.7445  1.2784
19119TIP3    H278849   3.509   2.531  13.592  0.4634  1.8201 -2.1718
19120TIP3   OH278850   2.622   1.076  11.342 -0.3406  0.6681  0.2614
19120TIP3    H178851   2.530   1.078  11.368  0.7163  0.2713  4.3688
19120TIP3    H278852   2.661   1.150  11.388  1.8678 -0.6721  0.5924
19121TIP3   OH278853   3.336   0.146   6.181  0.4806  0.4139  0.6414
19121TIP3    H178854   3.339   0.055   6.151  0.8509  0.3326  0.9140
19121TIP3    H278855   3.261   0.151   6.239 -0.5445  0.6938 -0.6845
19122TIP3   OH278856   2.537   3.459  10.653 -0.4020  0.2197  0.3201
19122TIP3    H178857   2.496   3.462  10.740  0.0739  0.2684  0.5422
19122TIP3    H278858   2.626   3.429  10.669 -0.8089 -1.3982 -0.3338
19123TIP3   OH278859   3.099   6.284   0.217  0.4677  0.4697  0.0434
19123TIP3    H178860   3.157   6.221   0.173  0.1468  0.8340 -0.9055
19123TIP3    H278861   3.157   6.333   0.275  1.3348  1.6156 -1.7622
19124TIP3   OH278862   3.569   0.981   0.299 -0.3794 -0.2799 -0.2480
19124TIP3    H178863   3.523   0.910   0.255  0.2919 -0.9596  0.1526
19124TIP3    H278864   3.587   1.045   0.230  1.4976 -1.7530 -1.1375
19125TIP3   OH278865   4.885   5.722   2.357  0.3955 -0.0101 -0.2102
19125TIP3    H178866   4.966   5.771   2.340 -0.0249  1.4793  1.9032
19125TIP3    H278867   4.831   5.782   2.408 -1.4132 -1.5838 -0.2178
19126TIP3   OH278868   5.896   2.031   0.269 -0.0311 -0.2103 -0.2670
19126TIP3    H178869   5.940   1.953   0.301 -0.8623 -0.1709  1.0001
19126TIP3    H278870   5.803   2.015   0.285 -0.1264  1.4954  1.0851
19127TIP3   OH278871   3.002   6.254   6.128  0.4930 -0.3482 -0.3483
19127TIP3    H178872   2.912   6.226   6.115  0.3849  0.0158 -0.3844
19127TIP3    H278873   3.041   6.253   6.041  0.4233 -0.1712 -0.3832
19128TIP3   OH278874   6.125   6.686   1.504 -0.5719  0.3171  0.6000
19128TIP3    H178875   6.193   6.619   1.507 -0.1120  0.7239 -0.3732
19128TIP3    H278876   6.057   6.655   1.564 -0.2289 -0.8607  0.3855
19129TIP3   OH278877   5.112   0.685  14.917  0.7361  0.4190  0.4441
19129TIP3    H178878   5.080   0.774  14.912  3.7981  1.5038 -1.4692
19129TIP3    H278879   5.185   0.689  14.979  1.4883 -0.5389 -0.3534
19130TIP3   OH278880   4.081   0.298  12.966 -0.0463  0.3654  0.4310
19130TIP3    H178881   4.018   0.359  13.006 -0.8027 -0.1550  0.0386
19130TIP3    H278882   4.031   0.251  12.900  0.5104 -0.7548  0.7892
19131TIP3   OH278883   0.893   2.060   2.151 -0.4068 -0.6339 -0.4127
19131TIP3    H178884   0.927   2.004   2.221 -0.1486  0.6014  0.4589
19131TIP3    H278885   0.828   2.005   2.107  0.2224 -1.8029  0.1000
19132TIP3   OH278886   0.269   0.191  14.498  0.3550 -0.0080  0.2567
19132TIP3    H178887   0.235   0.163  14.414 -2.1151  0.5468  1.0330
19132TIP3    H278888   0.283   0.109  14.547 -2.1691 -0.1556  0.7721
19133TIP3   OH278889   2.579   5.774   0.439 -0.4288 -0.0941  0.5389
19133TIP3    H178890   2.510   5.805   0.381  0.9520  0.6426 -0.7680
19133TIP3    H278891   2.534   5.728   0.509 -2.3318  1.7690  0.5870
19134TIP3   OH278892   3.081   6.102  15.285  0.5691 -0.4172  0.2799
19134TIP3    H178893   3.093   6.194  15.262 -1.6484 -0.0708  0.4806
19134TIP3    H278894   3.084   6.100  15.380 -2.1432 -0.1388  0.3928
19135TIP3   OH278895   3.966   1.945  10.165 -0.4561 -0.0211 -0.1298
19135TIP3    H178896   4.057   1.938  10.137 -0.6041  0.8602 -0.8537
19135TIP3    H278897   3.970   1.955  10.260  0.3703  3.0597 -0.4407
19136TIP3   OH278898   3.579   2.661   3.243  0.0423 -0.1822 -0.1375
19136TIP3    H178899   3.567   2.720   3.168  0.1209  0.3668  0.2749
19136TIP3    H278900   3.526   2.584   3.222 -2.1024  1.0800  0.4325
19137TIP3   OH278901   1.344   4.424   3.041  0.0796 -0.0166  0.2209
19137TIP3    H178902   1.264   4.420   2.989  0.6512  1.4010 -0.8201
19137TIP3    H278903   1.339   4.349   3.100 -0.7761 -1.4370 -1.6154
19138TIP3   OH278904   5.793   0.424  11.306  0.6910 -0.1979 -0.4012
19138TIP3    H178905   5.823   0.347  11.258  0.8273  0.3909 -1.2815
19138TIP3    H278906   5.715   0.453  11.258  0.3980 -0.0343  0.1708
19139TIP3   OH278907   0.434   5.862   6.558 -0.1002  0.4967  0.0826
19139TIP3    H178908   0.437   5.948   6.598 -0.9563  0.2408  0.7105
19139TIP3    H278909   0.428   5.801   6.631 -0.7741 -0.0281 -0.4002
19140TIP3   OH278910   4.121   3.028   2.868  0.3568  0.1721  0.7431
19140TIP3    H178911   4.157   3.109   2.904  2.0582 -0.2929  0.1039
19140TIP3    H278912   4.039   3.015   2.916  0.1354  2.1779  0.9737
19141TIP3   OH278913   6.795   4.529  16.695  0.0667  0.5991 -0.3348
19141TIP3    H178914   6.832   4.449  16.657  1.2881  1.7093 -1.5263
19141TIP3    H278915   6.850   4.548  16.771  0.8288  1.2377 -1.0413
19142TIP3   OH278916   3.845   4.796   1.796 -0.5399  0.2610  0.5304
19142TIP3    H178917   3.779   4.766   1.733 -1.2458 -0.2106  1.4888
19142TIP3    H278918   3.816   4.883   1.822 -0.4280  0.3169  0.4698
19143TIP3   OH278919   1.975   0.147  11.454  0.2392 -0.4589 -0.1392
19143TIP3    H178920   2.058   0.111  11.422  0.5080 -0.3267  0.4123
19143TIP3    H278921   1.964   0.228  11.406 -0.2830 -1.1852 -1.2692
19144TIP3   OH278922   4.344   1.199   5.420 -0.1561 -0.7471 -0.2721
19144TIP3    H178923   4.407   1.224   5.488 -0.3634 -0.2234 -0.2762
19144TIP3    H278924   4.268   1.166   5.468  0.5935 -2.5622 -0.2726
19145TIP3   OH278925   6.802   1.440  12.029 -0.3219 -0.1406 -0.2899
19145TIP3    H178926   6.793   1.490  12.111  0.7397 -1.5287  0.7000
19145TIP3    H278927   6.727   1.381  12.030  0.1651 -0.7553  0.1138
19146TIP3   OH278928   5.470   2.210  16.974 -0.5098  0.2915 -0.3197
19146TIP3    H178929   5.526   2.249  17.041 -1.6202 -0.3137  0.9742
19146TIP3    H278930   5.497   2.118  16.972 -1.3044  0.0435  0.1629
19147TIP3   OH278931   3.785   2.508   1.316  0.0871  0.6428 -0.0078
19147TIP3    H178932   3.768   2.414   1.321 -0.1481  0.7107  0.4630
19147TIP3    H278933   3.742   2.545   1.393 -0.4647  1.2334 -0.5910
19148TIP3   OH278934   1.272   5.469  15.221 -0.0187 -0.4076 -0.4648
19148TIP3    H178935   1.312   5.384  15.237 -0.1149 -0.3132  0.2874
19148TIP3    H278936   1.347   5.530  15.216 -0.0728 -0.1932  1.1777
19149TIP3   OH278937   1.481   2.611  16.461 -0.6095 -0.4798 -0.3421
19149TIP3    H178938   1.406   2.665  16.488 -0.4988  0.6443 -2.2108
19149TIP3    H278939   1.548   2.627  16.528 -1.6338 -0.6452  0.7487
19150TIP3   OH278940   0.015   2.533  11.735  0.5204 -0.2162 -0.4770
19150TIP3    H178941   0.024   2.607  11.796 -0.1360 -0.3647 -0.1879
19150TIP3    H278942   0.017   2.456  11.792 -1.3697 -0.3085 -0.4800
19151TIP3   OH278943   4.783   4.229   1.644  0.1850  0.0770 -0.0500
19151TIP3    H178944   4.766   4.322   1.654 -0.2203  0.1006 -0.9118
19151TIP3    H278945   4.776   4.213   1.550  0.9242 -0.6890  0.0130
19152TIP3   OH278946   1.283   2.189   0.017 -0.0778  0.7031 -0.0540
19152TIP3    H178947   1.260   2.276   0.048 -0.3903  1.4905 -2.3869
19152TIP3    H278948   1.292   2.136   0.097 -0.9350  2.5926  1.3233
19153TIP3   OH278949   4.288   3.110  16.800 -0.0721  0.5287  0.2650
19153TIP3    H178950   4.242   3.037  16.842 -0.2269 -0.1311 -1.0207
19153TIP3    H278951   4.368   3.071  16.765  0.3075  1.1766  0.4070
19154TIP3   OH278952   4.436   5.474   6.629 -0.2270 -0.4417  0.1333
19154TIP3    H178953   4.360   5.441   6.675 -1.5024  0.4030 -1.3201
19154TIP3    H278954   4.427   5.569   6.630  1.5235 -0.2571  1.1256
19155TIP3   OH278955   5.129   2.189  15.872  0.2065  0.1333 -0.1500
19155TIP3    H178956   5.075   2.228  15.940 -1.2082  0.8546 -1.6796
19155TIP3    H278957   5.078   2.115  15.839  0.9066 -0.2488 -0.4089
19156TIP3   OH278958   3.056   1.646   1.979  0.4648  0.2299 -0.0653
19156TIP3    H178959   3.112   1.594   1.921 -0.1195 -0.3027 -0.1714
19156TIP3    H278960   3.057   1.734   1.941 -0.8710 -0.3780 -1.6335
19157TIP3   OH278961   2.920   0.509  13.447  0.4926  0.2164 -0.1815
19157TIP3    H178962   2.991   0.560  13.408 -0.1262  0.8105 -0.5536
19157TIP3    H278963   2.862   0.489  13.374 -1.7713  3.1231  0.7002
19158TIP3   OH278964   2.211   1.702   0.872  0.3467  0.2343  0.4203
19158TIP3    H178965   2.272   1.640   0.912  0.3802  0.0750  0.1286
19158TIP3    H278966   2.229   1.696   0.778  0.9340  1.3209  0.4629
19159TIP3   OH278967   0.558   3.464  17.226  0.0292 -0.1563  0.0047
19159TIP3    H178968   0.649   3.492  17.214 -0.3053  0.3806 -1.4280
19159TIP3    H278969   0.507   3.525  17.172 -1.2378 -0.1041  1.2423
19160TIP3   OH278970   2.361   2.967  11.064  0.2642 -0.2670 -0.0435
19160TIP3    H178971   2.383   2.966  10.971 -0.6064  2.7050 -0.3613
19160TIP3    H278972   2.269   2.992  11.067  0.0689 -1.1013  1.5900
19161TIP3   OH278973   3.745   4.697  12.767 -0.4331 -0.0060  0.2815
19161TIP3    H178974   3.799   4.720  12.692 -0.4811 -0.2161  0.1806
19161TIP3    H278975   3.778   4.611  12.794  1.7295  1.4275  2.4598
19162TIP3   OH278976   3.698   3.414   0.098  0.2455  0.3599  0.0042
19162TIP3    H178977   3.790   3.408   0.125  0.1049 -0.7042  0.2863
19162TIP3    H278978   3.656   3.466   0.166  0.9347  2.1372 -0.9126
19163TIP3   OH278979   3.810   2.479  16.629 -0.2743 -0.4116  0.0893
19163TIP3    H178980   3.768   2.547  16.681 -0.3434  0.5971 -1.2766
19163TIP3    H278981   3.904   2.489  16.647 -0.3356 -0.3642  0.3808
19164TIP3   OH278982   4.476   1.962  14.377 -0.4126  0.0098  0.5526
19164TIP3    H178983   4.418   1.899  14.420 -2.2429  1.1816 -0.1473
19164TIP3    H278984   4.472   2.040  14.431  0.5767  0.0830  0.5312
19165TIP3   OH278985   2.402   4.026   3.636 -0.2684  0.4161 -0.2384
19165TIP3    H178986   2.403   4.072   3.552  0.2733 -0.3844 -0.6882
19165TIP3    H278987   2.474   4.065   3.685 -1.4291  1.8053  0.3762
19166TIP3   OH278988   2.067   0.758   2.543  0.1803 -0.1548 -0.0601
19166TIP3    H178989   2.130   0.760   2.615 -1.5519  0.9328  1.4378
19166TIP3    H278990   2.037   0.667   2.541 -0.0563 -0.1009  0.8402
19167TIP3   OH278991   0.375   1.791  14.676 -0.2427 -0.1832  0.2478
19167TIP3    H178992   0.434   1.766  14.605 -0.2733 -1.4393  0.6463
19167TIP3    H278993   0.317   1.855  14.637  0.7077  0.2707 -0.4444
19168TIP3   OH278994   1.328   4.295   4.616 -0.4292  0.5314 -0.0553
19168TIP3    H178995   1.239   4.324   4.634 -1.8065 -2.7463 -1.1067
19168TIP3    H278996   1.317   4.213   4.568  3.1655  0.9647 -1.7822
19169TIP3   OH278997   1.662   5.151   2.528 -0.2381  0.4566 -0.8651
19169TIP3    H178998   1.661   5.224   2.466 -0.3103  1.7041  0.5715
19169TIP3    H278999   1.754   5.127   2.537 -0.2649  0.0298 -1.7334
19170TIP3   OH279000   4.949   4.039   1.413  0.0557 -0.1602 -0.8447
19170TIP3    H179001   4.926   3.991   1.492  0.1095 -0.5139 -1.0455
19170TIP3    H279002   4.914   4.127   1.428 -2.3121 -0.9235 -1.5499
19171TIP3   OH279003   4.068   0.439   6.605 -0.2187 -0.5164  0.7100
19171TIP3    H179004   4.056   0.360   6.552  0.8405  0.0924 -0.4561
19171TIP3    H279005   4.162   0.453   6.605 -0.4483  1.0444  0.4778
19172TIP3   OH279006   2.066   5.639  11.803  0.2027  0.2701 -0.0882
19172TIP3    H179007   2.028   5.590  11.731  0.1789 -0.1705  0.2219
19172TIP3    H279008   2.030   5.598  11.882 -0.9000  1.6622  0.1549
19173TIP3   OH279009   2.178   3.391  11.027 -0.0240 -0.2671 -0.2572
19173TIP3    H179010   2.186   3.306  10.984 -0.8573  0.4436 -1.8549
19173TIP3    H279011   2.143   3.371  11.114  0.2583 -1.5901 -0.4423
19174TIP3   OH279012   4.833   3.066   2.400  0.5072 -0.4633  0.0313
19174TIP3    H179013   4.777   3.000   2.359 -0.2975  0.0813  0.2580
19174TIP3    H279014   4.920   3.050   2.362 -0.0090 -0.6623 -1.0829
19175TIP3   OH279015   0.001   5.933   0.424 -0.9946  0.2994  0.5676
19175TIP3    H179016   0.024   5.971   0.509 -1.2007  0.9911  0.3181
19175TIP3    H279017  -0.053   5.856   0.445 -0.5774  0.1435  1.0759
19176TIP3   OH279018   0.793   4.747  13.089  0.0428 -0.0629  0.0586
19176TIP3    H179019   0.876   4.756  13.043  0.6781 -0.1200  1.1849
19176TIP3    H279020   0.786   4.653  13.107  0.5538  0.1575  1.4565
19177TIP3   OH279021   1.230   0.416   4.294 -0.2486  0.9493 -0.3275
19177TIP3    H179022   1.231   0.342   4.233  0.4866  0.7342 -0.0538
19177TIP3    H279023   1.286   0.388   4.367 -0.5689  1.4781  0.1269
19178TIP3   OH279024   0.078   0.810   2.810  0.8915 -0.1849  0.8038
19178TIP3    H179025   0.038   0.848   2.732  1.4068 -1.1215  0.0885
19178TIP3    H279026   0.153   0.866   2.828  1.0615 -0.2672  0.3454
19179TIP3   OH279027   1.148   5.331  12.741  0.6790 -0.0393 -0.5297
19179TIP3    H179028   1.133   5.423  12.722  1.0680 -0.1094 -1.1816
19179TIP3    H279029   1.134   5.286  12.658  0.9641 -0.5172 -0.3263
19180TIP3   OH279030   4.977   1.455   5.075 -0.7609 -0.3737  0.4862
19180TIP3    H179031   4.924   1.517   5.025  1.3993  0.9274 -0.2737
19180TIP3    H279032   5.049   1.508   5.110  0.9950 -2.3661  0.0374
19181TIP3   OH279033   5.216   5.602  14.374  0.0266  0.1578  0.2676
19181TIP3    H179034   5.122   5.584  14.362  0.7671 -4.4764  0.4060
19181TIP3    H279035   5.257   5.564  14.297  1.9699  0.1995  1.2685
19182TIP3   OH279036   0.430   3.618  13.887 -0.1226 -0.6680  0.2293
19182TIP3    H179037   0.466   3.538  13.849 -0.8414 -0.8458 -0.0916
19182TIP3    H279038   0.339   3.597  13.906 -1.1132  0.9430 -2.4912
19183TIP3   OH279039   1.404   5.663   4.355  0.3282 -0.4768  0.2234
19183TIP3    H179040   1.489   5.666   4.398  1.0548 -1.6604 -1.0572
19183TIP3    H279041   1.398   5.573   4.321 -0.7062  0.0786 -1.1074
19184TIP3   OH279042   5.197   5.896   0.991  0.0241  0.4331  0.3387
19184TIP3    H179043   5.232   5.807   1.004  1.8743  1.3542  1.9289
19184TIP3    H279044   5.188   5.904   0.896 -0.1509 -1.4490  0.1709
19185TIP3   OH279045   2.703   2.946  13.128  0.5227 -0.1693 -0.6256
19185TIP3    H179046   2.650   2.956  13.049  1.0353 -0.2245 -0.9777
19185TIP3    H279047   2.727   3.035  13.154 -0.6251 -0.0766  0.1389
19186TIP3   OH279048   4.824   3.579   2.329 -0.1444  0.2995  0.3491
19186TIP3    H179049   4.913   3.544   2.334 -0.0681  0.2004 -1.3875
19186TIP3    H279050   4.833   3.671   2.354  1.1805  1.3964 -3.7541
19187TIP3   OH279051   2.906   6.612  14.728  0.1051 -0.2512  0.0932
19187TIP3    H179052   3.000   6.619  14.711  0.2968 -0.9991  0.8289
19187TIP3    H279053   2.894   6.651  14.814 -0.3606  0.4561 -0.2941
19188TIP3   OH279054   1.591   0.977  14.932 -0.0447 -0.6849  0.3454
19188TIP3    H179055   1.532   0.976  15.007  1.9865  1.1716  2.0199
19188TIP3    H279056   1.675   0.950  14.966  0.7593 -0.4928 -1.4091
19189TIP3   OH279057   6.454   0.568  14.153  0.8869 -0.3326 -0.6218
19189TIP3    H179058   6.397   0.569  14.076  0.1016 -1.6542 -0.0656
19189TIP3    H279059   6.465   0.476  14.175  2.3205 -0.0438 -0.0198
19190TIP3   OH279060   6.604   5.982  14.514 -0.6474 -0.2125  0.2225
19190TIP3    H179061   6.555   6.001  14.434 -0.6807 -3.5130 -0.6553
19190TIP3    H279062   6.550   5.918  14.561 -1.1248  2.4465  3.4883
19191TIP3   OH279063   0.005   6.604  14.387  0.2681  0.3135  0.0720
19191TIP3    H179064   0.085   6.565  14.423  0.5062  0.2809 -0.4776
19191TIP3    H279065   0.037   6.661  14.316 -0.2650 -0.4706 -0.8078
19192TIP3   OH279066   0.066   1.951  11.200 -0.0361  0.3734  0.3381
19192TIP3    H179067   0.032   2.040  11.201 -1.0036  0.0483 -1.8203
19192TIP3    H279068   0.122   1.947  11.123  0.1777 -0.8233  0.5388
19193TIP3   OH279069   4.575   5.371  13.429  0.0613 -0.2676  0.1640
19193TIP3    H179070   4.592   5.437  13.362  1.7035  0.5347  1.3115
19193TIP3    H279071   4.607   5.411  13.510 -0.3374 -1.8723  1.1408
19194TIP3   OH279072   4.522   3.154   2.426 -0.7716 -0.1378 -0.1263
19194TIP3    H179073   4.547   3.246   2.441 -0.7694 -0.2537  0.6214
19194TIP3    H279074   4.604   3.110   2.405 -0.5370 -0.2438  0.9526
19195TIP3   OH279075   1.942   5.594   1.530  0.2906 -1.1741  0.2874
19195TIP3    H179076   1.983   5.666   1.578 -0.6378 -1.8024  2.0883
19195TIP3    H279077   1.984   5.595   1.444  0.4529  1.3636  0.3619
19196TIP3   OH279078   6.760   4.168  14.975 -0.1522  1.0003  0.4302
19196TIP3    H179079   6.674   4.197  14.944  0.4282  2.9226  0.5415
19196TIP3    H279080   6.748   4.153  15.069 -0.5662  0.4146  0.2889
19197TIP3   OH279081   6.143   4.744  13.425 -0.0707 -0.0108 -0.4691
19197TIP3    H179082   6.157   4.834  13.397  1.0756 -0.5194 -1.6372
19197TIP3    H279083   6.123   4.750  13.518 -0.1965  1.4628 -0.5811
19198TIP3   OH279084   0.118   4.480  15.494  0.3500  0.3927 -0.1433
19198TIP3    H179085   0.046   4.503  15.553 -0.9097  2.9453 -2.5989
19198TIP3    H279086   0.111   4.542  15.422  4.3844 -0.0281 -0.9879
19199TIP3   OH279087   6.026   1.735   0.016  0.3704 -0.6879  0.4944
19199TIP3    H179088   6.056   1.819  -0.020 -0.6640 -0.9482 -1.0117
19199TIP3    H279089   6.016   1.752   0.110 -0.5600  1.1039  0.1016
19200TIP3   OH279090   3.178   3.366   3.757  0.1303  0.1535 -0.2634
19200TIP3    H179091   3.188   3.292   3.817  0.0633  0.2329 -0.1529
19200TIP3    H279092   3.119   3.334   3.689  1.9134 -0.6442 -1.4564
19201TIP3   OH279093   6.144   3.782  16.482  0.0875  0.1734  0.3871
19201TIP3    H179094   6.117   3.854  16.539 -1.0294  0.8438 -0.9628
19201TIP3    H279095   6.183   3.825  16.406  0.2578 -0.6835 -0.0162
19202TIP3   OH279096   6.502   2.586  11.895 -0.0266  0.3591  0.6818
19202TIP3    H179097   6.471   2.592  11.985 -1.9976 -0.3880  0.0661
19202TIP3    H279098   6.509   2.493  11.878  1.0245  0.5068  0.2776
19203TIP3   OH279099   5.369   5.448  14.967 -0.3366  0.0283 -0.0762
19203TIP3    H179100   5.369   5.386  14.894 -0.2331  0.3239 -0.3278
19203TIP3    H279101   5.299   5.509  14.946 -1.0443 -0.5334  0.6277
19204TIP3   OH279102   4.491   0.853  16.090  0.0919 -0.1956  0.2002
19204TIP3    H179103   4.503   0.944  16.116  0.9453 -0.7139  1.6342
19204TIP3    H279104   4.556   0.840  16.020  1.3896 -0.2829  1.4077
19205TIP3   OH279105   0.327   3.197   0.855  0.7204 -0.0842  0.3883
19205TIP3    H179106   0.361   3.125   0.802  1.7076 -0.0236  0.9334
19205TIP3    H279107   0.383   3.272   0.833  0.0407  0.3843  0.2267
19206TIP3   OH279108   4.430   0.436   3.404 -0.1965  0.3739  0.2540
19206TIP3    H179109   4.400   0.520   3.370 -1.6075 -1.7910 -4.0942
19206TIP3    H279110   4.350   0.389   3.428  0.3489 -1.0581 -0.6600
19207TIP3   OH279111   3.659   2.230  14.509 -0.3799 -0.5872  0.2288
19207TIP3    H179112   3.673   2.257  14.600 -0.3446 -0.7326  0.2674
19207TIP3    H279113   3.638   2.137  14.514  0.5713 -0.8283  0.0207
19208TIP3   OH279114   3.908   3.807  16.678 -0.5753  0.8221  0.3219
19208TIP3    H179115   3.957   3.801  16.596 -0.3139  0.8614  0.4772
19208TIP3    H279116   3.934   3.891  16.716  2.4401 -1.0018  2.4604
19209TIP3   OH279117   6.461   3.749   0.917 -0.0547 -0.1637 -0.3180
19209TIP3    H179118   6.370   3.752   0.889 -0.5961  0.7986  1.4684
19209TIP3    H279119   6.463   3.684   0.987  0.9313 -1.2528 -1.3414
19210TIP3   OH279120   1.296   4.772   5.856 -0.0187 -0.3542  0.3486
19210TIP3    H179121   1.274   4.831   5.784  0.7684 -1.6026 -0.9386
19210TIP3    H279122   1.279   4.685   5.821 -0.8751 -0.9308  2.1200
19211TIP3   OH279123   1.729   3.318   0.021 -0.4764  0.4241  0.0270
19211TIP3    H179124   1.639   3.288   0.010 -0.9043  1.2393  1.2193
19211TIP3    H279125   1.761   3.271   0.098  0.1074  0.1678 -0.3685
19212TIP3   OH279126   3.491   3.426  15.966 -0.3427 -0.1549  0.0034
19212TIP3    H179127   3.582   3.400  15.951 -0.0131  0.8540  0.1958
19212TIP3    H279128   3.439   3.360  15.920  0.3931 -2.4258  2.2666
19213TIP3   OH279129   3.334   3.383   0.668  0.3858  0.0840 -0.3308
19213TIP3    H179130   3.353   3.442   0.595  0.0938  0.5666 -0.0166
19213TIP3    H279131   3.337   3.439   0.746  0.0992 -0.3131 -0.0339
19214TIP3   OH279132   1.818   6.539  10.649 -0.5220 -0.1040  0.0853
19214TIP3    H179133   1.814   6.541  10.553 -0.8495  0.8118  0.1140
19214TIP3    H279134   1.831   6.447  10.671  0.7062 -0.1805 -0.8954
19215TIP3   OH279135   3.855   1.144  14.266 -0.1089  0.2867 -0.1901
19215TIP3    H179136   3.887   1.076  14.207 -0.4988  1.4038 -1.6937
19215TIP3    H279137   3.926   1.155  14.330  0.3938 -0.7848 -0.5526
19216TIP3   OH279138   1.096   2.932  11.655  0.1716  0.3652 -0.7267
19216TIP3    H179139   1.174   2.984  11.636 -0.3482  1.7726  0.8359
19216TIP3    H279140   1.069   2.961  11.742 -2.0006 -0.2023 -1.1803
19217TIP3   OH279141   3.614   6.138   1.836  0.3014  0.3029  0.1227
19217TIP3    H179142   3.694   6.098   1.803  0.2286  1.9135 -2.1288
19217TIP3    H279143   3.630   6.151   1.929  2.1723 -0.5495 -0.0618
19218TIP3   OH279144   4.720   5.216   1.804  0.0581  0.3082  0.4859
19218TIP3    H179145   4.723   5.224   1.709 -2.2048  1.2671  0.4562
19218TIP3    H279146   4.628   5.200   1.824  0.1730  2.1481  2.6713
19219TIP3   OH279147   1.320   6.236   5.244 -0.2813  0.1895 -0.1110
19219TIP3    H179148   1.322   6.283   5.327  0.9597  3.0731 -1.7036
19219TIP3    H279149   1.356   6.149   5.265  0.3384  0.9826  2.2820
19220TIP3   OH279150   4.787   0.316  15.177 -0.2229 -0.5410  0.8415
19220TIP3    H179151   4.797   0.330  15.083 -1.1948 -0.6679  0.7073
19220TIP3    H279152   4.850   0.375  15.217 -1.7196  1.5661  0.1746
19221TIP3   OH279153   3.021   0.219  10.930 -0.5139 -0.4447 -0.2149
19221TIP3    H179154   3.093   0.262  10.977 -1.0709  0.4905 -0.2100
19221TIP3    H279155   3.002   0.279  10.858 -1.1468 -0.8070 -0.3438
19222TIP3   OH279156   4.706   4.019  10.647  0.1965 -0.4656  0.2390
19222TIP3    H179157   4.790   4.033  10.691 -0.6078 -3.0927  2.7751
19222TIP3    H279158   4.645   4.077  10.693 -0.1722 -1.5202  1.1014
19223TIP3   OH279159   1.436   3.458  16.143  0.2789  0.2561  0.0480
19223TIP3    H179160   1.362   3.419  16.095 -0.1203 -0.6989  1.4144
19223TIP3    H279161   1.452   3.541  16.098 -1.1747  0.1463 -0.7088
19224TIP3   OH279162   4.100   1.223  17.236 -0.4337  0.4733 -0.2581
19224TIP3    H179163   4.025   1.232  17.295 -0.7472  0.0465 -0.5788
19224TIP3    H279164   4.094   1.298  17.177 -1.0877  0.0151 -0.7961
19225TIP3   OH279165   0.936   0.498  13.940  0.5701  0.0316 -0.3991
19225TIP3    H179166   1.010   0.439  13.928  1.3408  1.2631 -1.7485
19225TIP3    H279167   0.862   0.452  13.900  1.4821  0.6344 -2.8244
19226TIP3   OH279168   3.639   2.047  17.160  0.0292 -0.3299  0.0025
19226TIP3    H179169   3.573   2.089  17.215 -0.0346 -0.2321 -0.1468
19226TIP3    H279170   3.589   1.986  17.105 -0.1839  1.0624 -1.3873
19227TIP3   OH279171   1.473   4.383   4.863  0.1274 -0.0767 -0.4370
19227TIP3    H179172   1.548   4.328   4.882  1.8289  1.2365 -3.0172
19227TIP3    H279173   1.412   4.326   4.816  1.3576 -0.0917 -2.0413
19228TIP3   OH279174   6.110   5.310   4.857  0.2188 -0.5148  0.2765
19228TIP3    H179175   6.191   5.303   4.907  1.7882  0.4198 -2.0315
19228TIP3    H279176   6.139   5.323   4.766 -2.5078  0.5867 -0.4840
19229TIP3   OH279177   4.483   1.389   2.128 -0.2230 -0.3103  0.0227
19229TIP3    H179178   4.442   1.343   2.055  2.3853 -1.2081 -0.9431
19229TIP3    H279179   4.577   1.379   2.113  0.3751  0.9702  2.5848
19230TIP3   OH279180   3.918   4.310  14.674  0.6423  0.5333 -0.4725
19230TIP3    H179181   3.887   4.231  14.719  1.9830  0.2422 -0.0222
19230TIP3    H279182   3.893   4.382  14.731  0.2189  0.3564 -0.4343
19231TIP3   OH279183   2.170   3.667  11.330  0.2464  0.5686 -0.2023
19231TIP3    H179184   2.145   3.662  11.423  0.0746  1.8292 -0.1805
19231TIP3    H279185   2.177   3.760  11.312  2.1974  0.3006 -0.9540
19232TIP3   OH279186   6.528   2.110   0.810 -0.0184  0.0501  0.0840
19232TIP3    H179187   6.563   2.114   0.721 -1.5738 -0.4057 -0.5510
19232TIP3    H279188   6.586   2.049   0.856 -0.4475 -1.3050 -1.1738
19233TIP3   OH279189   2.780   0.570  12.591 -0.2976  0.2369  0.2570
19233TIP3    H179190   2.692   0.589  12.558 -0.0000  0.7735 -0.2188
19233TIP3    H279191   2.769   0.568  12.686 -0.6371  1.2385  0.2434
19234TIP3   OH279192   1.542   1.123  17.053 -0.1566  0.2866  0.2165
19234TIP3    H179193   1.627   1.147  17.089  0.5822  0.6419 -1.7008
19234TIP3    H279194   1.507   1.058  17.114  0.7994  1.2608  1.8470
19235TIP3   OH279195   3.528   4.233   4.087  0.9290  0.3321 -0.0575
19235TIP3    H179196   3.542   4.180   4.009 -1.2828  0.5019 -0.5952
19235TIP3    H279197   3.450   4.284   4.068  1.6568  2.0332  1.4042
19236TIP3   OH279198   4.671   2.644   0.912  0.1861 -0.2775 -0.2653
19236TIP3    H179199   4.584   2.607   0.898 -0.3544  0.6745  0.4644
19236TIP3    H279200   4.710   2.589   0.981 -0.2653 -0.0330  0.1875
19237TIP3   OH279201   4.927   1.254   1.779 -0.1742 -0.1526 -0.0084
19237TIP3    H179202   4.948   1.256   1.686  1.8339 -1.6965  0.3741
19237TIP3    H279203   5.009   1.278   1.823 -1.1950  0.9198  1.3542
19238TIP3   OH279204   2.531   4.759  16.666  0.5183  0.4284  0.5545
19238TIP3    H179205   2.601   4.707  16.626 -0.5645 -1.1339  0.6397
19238TIP3    H279206   2.571   4.844  16.684  2.1868 -0.2178 -0.0383
19239TIP3   OH279207   5.718   2.294  12.757  0.1280 -0.2712  0.2344
19239TIP3    H179208   5.790   2.357  12.760  0.4534 -0.6381  0.1406
19239TIP3    H279209   5.640   2.346  12.778  0.3722  0.1920  0.0084
19240TIP3   OH279210   6.362   4.140  12.727  0.5971  0.3718  0.5472
19240TIP3    H179211   6.323   4.095  12.652  1.0565  0.5317  0.2058
19240TIP3    H279212   6.288   4.181  12.772  0.4683  1.4329 -0.6049
19241TIP3   OH279213   3.959   5.953  12.734 -0.1453  0.2067 -0.1508
19241TIP3    H179214   4.006   5.875  12.762  1.3398  0.6339 -1.3669
19241TIP3    H279215   3.958   5.947  12.639 -0.1192  1.5952 -0.2492
19242TIP3   OH279216   5.841   3.350   5.876  0.1972 -0.1813  0.0810
19242TIP3    H179217   5.753   3.318   5.856  0.4007 -0.9531  0.3994
19242TIP3    H279218   5.874   3.290   5.943 -0.3048  2.1287  2.4863
19243TIP3   OH279219   1.604   1.067   1.022  0.2496  0.0215 -0.1616
19243TIP3    H179220   1.656   0.989   1.039 -0.1028 -0.4637 -1.2576
19243TIP3    H279221   1.545   1.074   1.097  2.1240  0.7804  1.2741
19244TIP3   OH279222   1.421   3.012   0.899 -0.2547  0.4387  0.2228
19244TIP3    H179223   1.474   2.978   0.971 -0.3635 -0.3882 -0.0920
19244TIP3    H279224   1.332   2.983   0.919 -0.2331 -0.0572 -0.4127
19245TIP3   OH279225   3.533   4.732   1.957 -0.2611 -0.0167 -0.6312
19245TIP3    H179226   3.555   4.750   2.048 -2.0720  1.0285 -0.3748
19245TIP3    H279227   3.454   4.678   1.962  0.0936 -0.6340 -1.5727
19246TIP3   OH279228   4.599   2.465  17.251 -0.0199 -0.4743 -0.6016
19246TIP3    H179229   4.640   2.491  17.168 -0.4409  1.1210 -0.3351
19246TIP3    H279230   4.563   2.547  17.286 -0.6880 -1.3079  0.6847
19247TIP3   OH279231   4.622   6.177   3.336 -0.1333 -0.0014  0.0858
19247TIP3    H179232   4.547   6.119   3.348 -0.6738  0.2574 -1.7989
19247TIP3    H279233   4.678   6.160   3.412 -1.6945 -0.7934  1.0894
19248TIP3   OH279234   1.673   2.689  16.657 -0.2685  0.1570  0.2382
19248TIP3    H179235   1.727   2.672  16.734  1.6750  1.3507 -0.8251
19248TIP3    H279236   1.610   2.756  16.685  0.3969  0.5451  0.8144
19249TIP3   OH279237   5.165   0.227   4.324 -0.6401  0.4234  0.2540
19249TIP3    H179238   5.257   0.241   4.304 -0.2428  0.0259  1.7609
19249TIP3    H279239   5.163   0.207   4.418 -2.3550  1.4421  0.4617
19250TIP3   OH279240   5.137   1.443   5.617  0.3672 -0.1253 -0.3564
19250TIP3    H179241   5.073   1.444   5.689  1.7059  0.7851  0.8469
19250TIP3    H279242   5.190   1.365   5.635  1.4155  0.7274  0.2994
19251TIP3   OH279243   5.310   0.169  11.045  0.5974 -0.1451 -0.0024
19251TIP3    H179244   5.284   0.144  11.134 -0.7410  0.9549 -0.0698
19251TIP3    H279245   5.313   0.264  11.047  0.1060 -0.0967 -1.2738
19252TIP3   OH279246   6.053   3.337  12.352 -0.3339  0.0824  0.0822
19252TIP3    H179247   5.968   3.381  12.355 -0.5430 -0.1508 -1.9075
19252TIP3    H279248   6.034   3.251  12.316  0.7623  0.0443 -0.4125
19253TIP3   OH279249   3.868   3.929  13.440  0.6893 -0.1510  0.1937
19253TIP3    H179250   3.924   3.976  13.502  1.8875 -1.4934  0.1602
19253TIP3    H279251   3.914   3.846  13.424 -1.4182 -1.3917  0.3316
19254TIP3   OH279252   1.295   2.892  12.761 -0.6617  0.0134 -0.2027
19254TIP3    H179253   1.283   2.937  12.844 -0.8422  1.8050 -1.1732
19254TIP3    H279254   1.379   2.923  12.728 -0.5735 -0.7151 -0.6773
19255TIP3   OH279255   1.349   1.606  12.733  0.0527 -0.9112  0.4983
19255TIP3    H179256   1.366   1.679  12.674  0.0002 -1.2624  0.0485
19255TIP3    H279257   1.416   1.614  12.801 -0.2920 -0.1209  0.7543
19256TIP3   OH279258   3.265   1.582  16.759  0.4882 -0.3376 -0.0574
19256TIP3    H179259   3.215   1.582  16.677  1.3928 -1.6471 -0.6409
19256TIP3    H279260   3.355   1.597  16.732  0.6439  0.3818  0.8297
19257TIP3   OH279261   6.189   1.950   1.095 -0.1681 -0.1849  0.4219
19257TIP3    H179262   6.221   2.026   1.046  0.5611 -0.4724  0.4499
19257TIP3    H279263   6.170   1.985   1.182 -2.4752  0.5598 -0.3301
19258TIP3   OH279264   6.135   3.388   2.362  0.7072 -0.2247 -0.5214
19258TIP3    H179265   6.073   3.441   2.312 -0.3024 -1.7671 -0.9172
19258TIP3    H279266   6.220   3.403   2.319  0.4583  1.1101 -0.5804
19259TIP3   OH279267   5.667   2.215   4.472  0.2469  0.1573  0.0313
19259TIP3    H179268   5.609   2.277   4.427  0.2554  0.8260  0.9229
19259TIP3    H279269   5.650   2.230   4.565 -1.4607 -2.8279  0.2458
19260TIP3   OH279270   5.540   3.001   4.922  0.1622  0.3534  0.0855
19260TIP3    H179271   5.482   2.974   4.994  0.3039  1.1288  0.4976
19260TIP3    H279272   5.618   3.035   4.966  1.2920 -1.4268 -0.4723
19261TIP3   OH279273   4.177   6.636   4.507 -0.1284 -0.1852 -0.2744
19261TIP3    H179274   4.138   6.704   4.562  0.4331 -0.1269  0.0524
19261TIP3    H279275   4.194   6.563   4.566  1.8113  0.4076 -0.0551
19262TIP3   OH279276   2.873   2.899   4.432  0.1474 -0.0028 -0.4171
19262TIP3    H179277   2.791   2.850   4.429 -0.8536  1.6505 -0.7897
19262TIP3    H279278   2.932   2.845   4.486 -1.7118 -0.3899  1.2688
19263TIP3   OH279279   3.304   3.472  14.080 -0.0245  0.5822 -0.1323
19263TIP3    H179280   3.320   3.447  14.171  1.4261  0.1141 -0.5035
19263TIP3    H279281   3.336   3.398  14.029  0.2396  1.3403 -1.0679
19264TIP3   OH279282   5.783   6.364   5.648  0.4512  0.0862  0.1042
19264TIP3    H179283   5.841   6.343   5.574  2.1214  0.6774  1.2268
19264TIP3    H279284   5.701   6.321   5.626  1.8492 -2.2747 -0.6829
19265TIP3   OH279285   0.217   0.459   1.606  0.3329 -0.4348  0.4805
19265TIP3    H179286   0.149   0.486   1.545  0.7309 -0.9601 -0.1931
19265TIP3    H279287   0.285   0.525   1.597  0.7890 -1.0090 -0.3071
19266TIP3   OH279288   6.504   2.892   4.812 -0.3336  0.3287 -0.3813
19266TIP3    H179289   6.566   2.921   4.746  0.7195  0.0549  0.4833
19266TIP3    H279290   6.493   2.798   4.795  0.8104  0.0226  0.5387
19267TIP3   OH279291   5.776   0.673   3.230  0.0821  0.0155 -0.2213
19267TIP3    H179292   5.691   0.699   3.194 -0.9552 -2.3337  0.4471
19267TIP3    H279293   5.779   0.717   3.315 -0.5914 -0.0858 -0.1396
19268TIP3   OH279294   5.167   3.116  13.084  0.3866 -0.4387 -0.8066
19268TIP3    H179295   5.221   3.044  13.117  0.3992  0.4092  1.0221
19268TIP3    H279296   5.216   3.149  13.008  1.2736 -1.1981 -0.5786
19269TIP3   OH279297   5.159   1.007  10.383  0.2625  0.2922  0.1708
19269TIP3    H179298   5.128   1.097  10.378  1.0031  0.5662  0.4927
19269TIP3    H279299   5.180   0.994  10.476 -1.1347 -0.6485  0.3849
19270TIP3   OH279300   5.386   6.419  11.311  0.4776  0.0221  0.0350
19270TIP3    H179301   5.429   6.364  11.377 -0.9588  0.4813  1.3928
19270TIP3    H279302   5.442   6.412  11.234  1.0512 -2.2534  0.6134
19271TIP3   OH279303   2.763   4.416   3.197  0.6728  0.2104  0.2726
19271TIP3    H179304   2.720   4.497   3.168 -0.1188 -0.2922  0.0074
19271TIP3    H279305   2.741   4.409   3.290  1.9099  1.0170  0.6370
19272TIP3   OH279306   3.549   1.867  11.198  0.5883 -0.4066 -0.2125
19272TIP3    H179307   3.534   1.908  11.113  0.1461  0.7304  0.4020
19272TIP3    H279308   3.625   1.810  11.184 -0.3081 -1.2482 -1.6936
19273TIP3   OH279309   5.291   1.019   4.064  0.5097  0.1174 -0.3306
19273TIP3    H179310   5.273   0.925   4.070  3.1550 -0.3439  0.9504
19273TIP3    H279311   5.332   1.029   3.978 -0.4324  0.2317 -0.7728
19274TIP3   OH279312   2.196   6.019   1.794  0.0838  0.2537  0.2656
19274TIP3    H179313   2.223   6.100   1.836 -1.8145  1.6343 -1.1130
19274TIP3    H279314   2.132   6.045   1.728  0.2742 -2.2405 -0.9932
19275TIP3   OH279315   0.814   1.516   2.701  0.2682 -0.0984  0.8421
19275TIP3    H179316   0.852   1.574   2.767 -0.6106  0.2987  0.9997
19275TIP3    H279317   0.890   1.472   2.662  1.0050  1.7656  0.1405
19276TIP3   OH279318   6.013   0.932   5.539 -0.1278 -0.2580  0.4083
19276TIP3    H179319   6.095   0.889   5.516  1.3486  1.4294  2.2950
19276TIP3    H279320   6.015   1.015   5.491  0.3906  0.8088  2.2048
19277TIP3   OH279321   0.678   1.435   3.361 -0.2931  0.0801 -0.2487
19277TIP3    H179322   0.719   1.514   3.397  2.5929 -0.9702 -1.0881
19277TIP3    H279323   0.623   1.466   3.290 -0.5525  1.4951  0.5618
19278TIP3   OH279324   2.418   0.936  14.482 -0.0598 -0.2894  0.2041
19278TIP3    H179325   2.337   0.947  14.532 -1.0833  1.7770 -1.8358
19278TIP3    H279326   2.404   0.985  14.401  2.7086 -1.0632 -0.8193
19279TIP3   OH279327   5.042   0.531   3.251 -0.1568 -0.3824  0.0037
19279TIP3    H179328   4.967   0.484   3.214 -1.7664  1.4676  0.8155
19279TIP3    H279329   5.059   0.486   3.334 -1.9028  0.6149  0.9419
19280TIP3   OH279330   2.452   4.243   3.102  0.0854  0.2167  0.2208
19280TIP3    H179331   2.543   4.256   3.074 -0.1484 -0.0919 -0.6797
19280TIP3    H279332   2.411   4.196   3.030 -1.0288  1.1421  0.2377
19281TIP3   OH279333   6.460   4.662   4.165 -0.9528 -0.1857  0.1783
19281TIP3    H179334   6.429   4.664   4.256  1.9160  0.5173  1.2315
19281TIP3    H279335   6.504   4.747   4.154 -1.9756  0.0565 -2.1453
19282TIP3   OH279336   4.996   3.409   1.973 -0.0641 -0.0870 -0.1848
19282TIP3    H179337   5.071   3.467   1.953 -0.0893 -0.5431 -1.7148
19282TIP3    H279338   4.934   3.426   1.901 -0.1915 -1.7970 -0.4881
19283TIP3   OH279339   6.734   0.299   2.905  0.8195 -0.5741 -0.0997
19283TIP3    H179340   6.788   0.370   2.870  1.8122 -1.3485 -0.1652
19283TIP3    H279341   6.657   0.297   2.849  0.9299  0.2575 -0.2836
19284TIP3   OH279342   4.760   2.242   3.142 -0.7741 -0.4099 -0.0621
19284TIP3    H179343   4.784   2.304   3.211 -0.7372  0.4777 -0.8688
19284TIP3    H279344   4.741   2.161   3.189  2.3398 -0.7309  0.7523
19285TIP3   OH279345   4.020   6.539  17.163  0.9310  0.0104 -0.4431
19285TIP3    H179346   4.004   6.545  17.258  0.8470 -0.1800 -0.4449
19285TIP3    H279347   3.993   6.450  17.140 -1.0205  0.7268 -1.0279
19286TIP3   OH279348   4.122   1.872   4.111 -0.0828  0.3534 -0.1575
19286TIP3    H179349   4.035   1.908   4.091 -0.6283 -0.3649  0.8725
19286TIP3    H279350   4.109   1.777   4.112  0.4778  0.2815  1.0689
19287TIP3   OH279351   0.520   4.409  14.118 -0.0647 -0.4377 -0.3836
19287TIP3    H179352   0.450   4.400  14.183  0.3474  1.0781  0.2893
19287TIP3    H279353   0.474   4.419  14.035 -0.6286 -0.7270 -0.1124
19288TIP3   OH279354   0.067   4.383   1.155 -0.1323 -0.2137  0.0494
19288TIP3    H179355   0.046   4.321   1.085  1.1913 -0.5680 -0.0568
19288TIP3    H279356  -0.018   4.411   1.188 -0.8578  2.1656 -3.5691
19289TIP3   OH279357   2.804   3.796  16.684 -0.0290 -0.3539 -0.0282
19289TIP3    H179358   2.818   3.887  16.711  2.4135 -0.3143 -1.2457
19289TIP3    H279359   2.835   3.744  16.759  0.0209 -0.1929  0.0630
19290TIP3   OH279360   4.038   1.408  16.252 -0.0640 -0.0881  0.1355
19290TIP3    H179361   4.090   1.333  16.282  1.0713  0.1012 -1.2438
19290TIP3    H279362   4.054   1.410  16.157  0.2347  2.1255  0.2121
19291TIP3   OH279363   2.914   5.937   4.948 -0.1376  0.2866  0.4302
19291TIP3    H179364   2.940   5.857   4.993 -1.1461 -0.6292 -0.5591
19291TIP3    H279365   2.875   5.906   4.866 -0.7179  1.7880  0.1217
19292TIP3   OH279366   3.969   5.141  14.591  0.4317 -0.2275 -0.1841
19292TIP3    H179367   3.936   5.230  14.578  3.3251  1.1113  1.3114
19292TIP3    H279368   3.954   5.122  14.683  0.0817 -1.2297 -0.4307
19293TIP3   OH279369   6.104   6.180   1.463  0.1145  0.3495  0.2167
19293TIP3    H179370   6.114   6.185   1.368  0.8046 -0.5029  0.2318
19293TIP3    H279371   6.193   6.165   1.495  0.0004  1.4363  1.0583
19294TIP3   OH279372   3.156   5.778   2.208 -0.1771  0.1455 -0.3228
19294TIP3    H179373   3.222   5.747   2.146  0.3740 -0.0087  0.3357
19294TIP3    H279374   3.093   5.826   2.154 -1.0675 -2.1292 -1.3783
19295TIP3   OH279375   5.467   0.325  11.511 -0.2976 -0.1143 -0.4225
19295TIP3    H179376   5.372   0.330  11.501 -0.3613 -1.8436 -0.9013
19295TIP3    H279377   5.495   0.272  11.436  0.8305 -1.1623  0.7201
19296TIP3   OH279378   3.090   6.779  14.506  0.0142 -0.0208  0.0767
19296TIP3    H179379   3.177   6.756  14.538  0.3866  0.0993 -0.8120
19296TIP3    H279380   3.055   6.841  14.570 -0.3656 -1.8579  1.6703
19297TIP3   OH279381   2.908   3.484  14.733 -0.0206 -0.5828 -0.6134
19297TIP3    H179382   2.950   3.562  14.696 -0.8317 -0.8476 -2.1280
19297TIP3    H279383   2.919   3.417  14.666 -2.1173 -0.8944 -0.6763
19298TIP3   OH279384   6.746   4.884   1.775 -0.3226  0.7738  0.3228
19298TIP3    H179385   6.651   4.885   1.762 -0.2824  0.9923  0.0351
19298TIP3    H279386   6.778   4.951   1.715  0.1363 -0.2126 -0.5461
19299TIP3   OH279387   0.929   0.499  14.535 -0.5641  0.4740 -0.3222
19299TIP3    H179388   0.860   0.446  14.495  0.2104 -1.8559  1.3027
19299TIP3    H279389   1.010   0.452  14.514  0.3331  1.9822 -0.3257
19300TIP3   OH279390   0.572   1.860  16.428  0.0110 -0.2924  0.9560
19300TIP3    H179391   0.647   1.896  16.380 -0.5446  0.5696  0.7041
19300TIP3    H279392   0.499   1.869  16.366 -0.7343  0.9100  1.9994
19301TIP3   OH279393   5.356   6.024  11.456 -0.4019  0.4522 -0.1878
19301TIP3    H179394   5.370   5.929  11.457 -1.0626  0.3270 -1.6126
19301TIP3    H279395   5.264   6.034  11.436 -0.2340  1.4121 -0.4731
19302TIP3   OH279396   3.972   0.606   4.846  0.2412 -0.0987 -0.0867
19302TIP3    H179397   4.042   0.546   4.823 -0.1698 -0.2965 -0.8512
19302TIP3    H279398   4.008   0.660   4.916  0.9129 -0.6518 -0.0059
19303TIP3   OH279399   3.350   1.745  12.100 -0.4400  0.0699 -0.0700
19303TIP3    H179400   3.284   1.693  12.145  2.0177 -1.6009  1.7564
19303TIP3    H279401   3.362   1.822  12.154  0.8987 -0.8666  1.0191
19304TIP3   OH279402   5.803   4.668  14.472  0.6474  0.2418  0.0727
19304TIP3    H179403   5.851   4.726  14.413 -0.1817 -0.2607 -1.1228
19304TIP3    H279404   5.841   4.581  14.456 -1.0292 -0.2615 -1.3216
19305TIP3   OH279405   1.850   2.995  15.250  0.0591  0.6980  0.0501
19305TIP3    H179406   1.830   2.961  15.337 -0.6657 -1.1240 -0.7974
19305TIP3    H279407   1.798   3.074  15.242  2.8536  2.9226  2.6152
19306TIP3   OH279408   4.897   4.512   3.812  0.2355  0.1329 -0.1868
19306TIP3    H179409   4.950   4.588   3.836 -0.0548  0.7077 -1.3049
19306TIP3    H279410   4.809   4.531   3.843  0.2341  0.1134 -0.1765
19307TIP3   OH279411   2.896   0.873  11.992  0.3075  0.0439  0.6399
19307TIP3    H179412   2.927   0.855  12.080 -0.3637  0.1590  0.8975
19307TIP3    H279413   2.898   0.788  11.948  1.3967  0.1175  0.5224
19308TIP3   OH279414   3.794   3.730  15.657  0.0154 -0.2334 -0.1289
19308TIP3    H179415   3.716   3.682  15.629 -0.9061  0.5418  1.0697
19308TIP3    H279416   3.842   3.667  15.711  0.0503 -0.6020 -0.5841
19309TIP3   OH279417   2.066   1.244   4.704  0.1643  0.2186 -0.5320
19309TIP3    H179418   2.064   1.339   4.714 -0.8076  0.2600 -1.0365
19309TIP3    H279419   2.039   1.230   4.613  0.3794 -0.5418 -0.4776
19310TIP3   OH279420   6.336   0.380  13.117  0.0493 -0.0549  0.2375
19310TIP3    H179421   6.257   0.327  13.103 -0.6422  0.6096  1.5214
19310TIP3    H279422   6.334   0.401  13.211  2.0376 -0.4797  0.3912
19311TIP3   OH279423   2.338   3.343  12.389  0.3158  0.2948  0.0404
19311TIP3    H179424   2.313   3.395  12.466 -0.7244 -0.9280  0.5475
19311TIP3    H279425   2.431   3.324  12.402  0.2589  0.4911  0.7650
19312TIP3   OH279426   1.290   1.105   5.481 -0.4356 -0.1214 -0.0806
19312TIP3    H179427   1.286   1.011   5.462 -0.0836 -0.1682  0.0705
19312TIP3    H279428   1.363   1.114   5.543 -0.9477  0.1465  0.4988
19313TIP3   OH279429   0.960   4.228   5.143 -0.3828  0.0184 -0.4473
19313TIP3    H179430   1.030   4.200   5.083  0.2763  0.8546 -0.0788
19313TIP3    H279431   1.005   4.281   5.208 -1.1660 -0.5663  0.5751
19314TIP3   OH279432   5.289   6.676   0.084  0.3321  0.4209  0.0065
19314TIP3    H179433   5.253   6.683  -0.004 -0.5601 -0.6170  0.2852
19314TIP3    H279434   5.217   6.697   0.142  0.2689 -1.2064  0.5489
19315TIP3   OH279435   2.469   2.351   5.505  0.0021 -0.5205 -0.0085
19315TIP3    H179436   2.421   2.276   5.541 -1.2368 -0.1083 -0.7608
19315TIP3    H279437   2.412   2.426   5.520  0.9076  0.1657  0.0600
19316TIP3   OH279438   5.835   5.444   3.648 -0.5391 -0.9555 -0.0082
19316TIP3    H179439   5.744   5.421   3.665 -0.9933 -0.7321 -1.9851
19316TIP3    H279440   5.871   5.368   3.603 -0.1276 -0.5194 -0.4185
19317TIP3   OH279441   5.186   4.092  16.372  0.3015  0.4358 -0.1858
19317TIP3    H179442   5.121   4.039  16.325 -0.8966  0.0490  1.8275
19317TIP3    H279443   5.160   4.182  16.353 -0.6061  0.2829  0.2592
19318TIP3   OH279444   1.898   1.227  12.700  0.0799  0.2340 -0.0422
19318TIP3    H179445   1.936   1.287  12.764 -2.4234 -1.1437  2.8392
19318TIP3    H279446   1.808   1.257  12.689 -0.9258 -2.3277  0.7320
19319TIP3   OH279447   1.990   2.573  16.178  1.0062 -0.3565 -0.0996
19319TIP3    H179448   2.055   2.621  16.229 -0.1589 -0.2743  1.3399
19319TIP3    H279449   1.910   2.579  16.229 -0.0489 -0.7899 -1.6629
19320TIP3   OH279450   5.099   1.554   3.105 -0.3912 -0.4661 -0.2631
19320TIP3    H179451   5.038   1.627   3.094 -1.8766 -1.6142  0.2124
19320TIP3    H279452   5.083   1.498   3.029  0.7784 -0.2776 -0.6526
19321TIP3   OH279453   4.747   5.291  12.902 -0.0191  0.5592  0.3194
19321TIP3    H179454   4.817   5.226  12.910 -1.9141 -1.2232  3.0801
19321TIP3    H279455   4.682   5.249  12.845 -0.3959  0.7950  0.5756
19322TIP3   OH279456   4.021   0.796  13.327 -0.2253 -0.1519 -0.2698
19322TIP3    H179457   3.972   0.756  13.399 -0.9048 -0.2164 -0.7683
19322TIP3    H279458   4.092   0.734  13.309  0.1539  0.0330  0.5756
19323TIP3   OH279459   5.731   4.615   6.442  0.7224  0.1291  0.4941
19323TIP3    H179460   5.755   4.613   6.349 -1.7142  1.0930 -0.1752
19323TIP3    H279461   5.681   4.695   6.453 -1.5153 -1.3939  1.9972
19324TIP3   OH279462   6.149   3.640  13.880  0.4222 -0.1964 -0.0082
19324TIP3    H179463   6.126   3.555  13.843  1.6880 -0.8860  0.7504
19324TIP3    H279464   6.138   3.701  13.807  2.2996 -1.4476 -1.3998
19325TIP3   OH279465   5.398   4.045  15.803 -0.7687 -0.1803 -0.0835
19325TIP3    H179466   5.341   3.977  15.838  0.9488 -1.6099  0.0325
19325TIP3    H279467   5.407   4.024  15.710  1.3800 -1.3706  0.3408
19326TIP3   OH279468   3.536   5.670  11.834 -0.1527  0.1751  0.4330
19326TIP3    H179469   3.500   5.704  11.752  0.4888  0.3112  0.2030
19326TIP3    H279470   3.554   5.749  11.886  2.1612  0.2887 -0.4398
19327TIP3   OH279471   6.592   0.970  13.849  0.5180 -0.6112  0.0754
19327TIP3    H179472   6.535   0.925  13.786 -0.1807  0.2149  0.1015
19327TIP3    H279473   6.538   1.042  13.881  2.6230  2.0549 -2.1399
19328TIP3   OH279474   6.729   5.297  11.992  0.5702 -0.0779 -0.1166
19328TIP3    H179475   6.699   5.294  12.083  0.2929 -0.6906 -0.2294
19328TIP3    H279476   6.696   5.381  11.959 -0.6614 -0.5531 -0.1120
19329TIP3   OH279477   4.235   6.467   4.742 -0.0653 -0.0038  0.1449
19329TIP3    H179478   4.233   6.492   4.835  0.9875 -1.8034  0.6745
19329TIP3    H279479   4.216   6.374   4.742 -1.1244  0.1830 -1.5692
19330TIP3   OH279480   2.800   0.465   3.863 -0.1811 -0.6201 -0.1060
19330TIP3    H179481   2.721   0.517   3.853  1.0541  1.4222  0.5137
19330TIP3    H279482   2.779   0.380   3.823 -2.1638  0.3955 -1.2539
19331TIP3   OH279483   2.599   4.435  10.785 -0.3757 -0.3577 -0.4070
19331TIP3    H179484   2.613   4.407  10.694 -0.4261  1.7338 -1.0861
19331TIP3    H279485   2.685   4.430  10.826 -0.3479 -1.2789 -0.5577
19332TIP3   OH279486   2.765   3.085  12.605 -0.1321 -0.0526 -0.1289
19332TIP3    H179487   2.810   3.098  12.521 -0.0383 -0.9888 -0.2227
19332TIP3    H279488   2.757   2.990  12.614  2.5503 -0.0919  2.3426
19333TIP3   OH279489   5.226   2.199   4.094  0.6448  0.0879 -0.6045
19333TIP3    H179490   5.228   2.201   3.999  0.7227  1.3345 -0.5902
19333TIP3    H279491   5.149   2.146   4.116 -0.5073  1.4266 -1.3644
19334TIP3   OH279492   4.631   5.163  12.503  0.0228  0.3099  0.1307
19334TIP3    H179493   4.619   5.085  12.557  0.5693  1.5818  2.1421
19334TIP3    H279494   4.548   5.210  12.508  0.2328  0.6710  0.2425
19335TIP3   OH279495   2.895   4.755  16.708 -0.2756  0.1588 -0.2772
19335TIP3    H179496   2.988   4.769  16.724  0.0502  0.2116 -2.0607
19335TIP3    H279497   2.855   4.841  16.723  0.1633  0.4514 -0.7398
19336TIP3   OH279498   3.568   6.394  15.488 -0.0907 -0.1007 -0.2681
19336TIP3    H179499   3.572   6.479  15.532  1.7181 -0.5956  0.5454
19336TIP3    H279500   3.477   6.367  15.496 -0.6984  1.7774 -0.5655
19337TIP3   OH279501   6.737   4.544   2.372 -0.0045  0.1978 -0.2459
19337TIP3    H179502   6.685   4.521   2.449  1.0700 -0.5979  0.2406
19337TIP3    H279503   6.783   4.464   2.348  1.1747  0.9455 -0.5530
19338TIP3   OH279504   0.794   5.766  16.114  0.0089 -0.3625  0.3096
19338TIP3    H179505   0.857   5.750  16.185  0.0870 -0.7351  0.1576
19338TIP3    H279506   0.802   5.860  16.095 -0.1417 -0.2239  0.9201
19339TIP3   OH279507   6.127   4.658  14.619  0.6910  0.4154 -0.1749
19339TIP3    H179508   6.089   4.575  14.589 -0.5183  0.8472  0.1423
19339TIP3    H279509   6.087   4.724  14.564  0.7390  0.9125  0.3816
19340TIP3   OH279510   2.436   0.167  12.135  0.0787 -0.1022 -0.4111
19340TIP3    H179511   2.431   0.172  12.040  0.1286 -2.6644 -0.5807
19340TIP3    H279512   2.356   0.211  12.165  0.1825  0.9465 -1.6042
19341TIP3   OH279513   2.125   0.788   4.666 -0.4025 -0.4338 -0.2879
19341TIP3    H179514   2.209   0.748   4.646 -0.7327 -0.8675 -0.8233
19341TIP3    H279515   2.080   0.794   4.581 -1.2856 -1.0712  0.1270
19342TIP3   OH279516   6.059   0.868   5.081 -0.4022 -0.5020  0.1935
19342TIP3    H179517   5.974   0.901   5.108  0.4853  1.0800  1.1054
19342TIP3    H279518   6.047   0.844   4.989 -2.0935 -1.2783  0.5920
19343TIP3   OH279519   4.474   1.173  15.549 -0.1767  0.0480  0.3721
19343TIP3    H179520   4.505   1.093  15.507 -0.7999  1.0165 -2.0378
19343TIP3    H279521   4.393   1.148  15.592 -0.4375 -0.6139 -0.4840
19344TIP3   OH279522   0.608   5.464  17.099 -0.1349 -0.3481 -0.2709
19344TIP3    H179523   0.533   5.510  17.061  2.3083  1.6686 -2.8648
19344TIP3    H279524   0.610   5.380  17.052  0.3078  0.3759 -1.5937
19345TIP3   OH279525   4.490   3.012   2.751 -0.0466 -0.4846 -0.0949
19345TIP3    H179526   4.495   2.965   2.834  0.5835  1.6317  1.0920
19345TIP3    H279527   4.566   3.069   2.751 -0.1731 -0.2845 -2.0477
19346TIP3   OH279528   0.779   0.912  15.523 -0.0323 -0.0490  0.2168
19346TIP3    H179529   0.774   0.984  15.586  4.2750 -1.1339  1.9276
19346TIP3    H279530   0.835   0.945  15.453 -1.9092 -0.1312 -1.3797
19347TIP3   OH279531   2.396   2.615   4.176 -0.5861  0.2207 -0.2965
19347TIP3    H179532   2.401   2.707   4.203  0.0994  0.2292 -0.4510
19347TIP3    H279533   2.486   2.585   4.176 -0.9149 -0.7941  0.9149
19348TIP3   OH279534   0.971   1.611  14.105  0.3210  0.8827 -0.1319
19348TIP3    H179535   0.948   1.633  14.195 -0.9027  2.8565 -0.8932
19348TIP3    H279536   0.946   1.520  14.095  0.0437  0.7815  1.3958
19349TIP3   OH279537   5.773   6.210  15.442  0.0353 -0.1167  0.3746
19349TIP3    H179538   5.746   6.133  15.491 -0.0696 -0.9398 -0.9690
19349TIP3    H279539   5.705   6.222  15.375 -0.8950  2.1782  1.6664
19350TIP3   OH279540   5.174   6.013   0.048  0.0442  0.1254  0.3146
19350TIP3    H179541   5.123   5.935   0.028 -0.8851  0.7196  0.3588
19350TIP3    H279542   5.123   6.085   0.011  0.9222  0.7083  0.2257
19351TIP3   OH279543   3.625   5.047  16.788 -0.7109 -0.0466 -0.4365
19351TIP3    H179544   3.559   5.102  16.829 -2.4275 -1.2050 -1.6129
19351TIP3    H279545   3.580   4.967  16.765  0.5815 -0.1022 -3.0718
19352TIP3   OH279546   2.537   2.144  14.229 -0.0117 -0.2656 -0.3250
19352TIP3    H179547   2.622   2.163  14.269  0.4559 -1.0249 -0.9182
19352TIP3    H279548   2.501   2.073  14.282 -0.9623  1.0696  0.8344
19353TIP3   OH279549   6.025   6.586   3.546 -0.0360  0.5479  0.2811
19353TIP3    H179550   5.985   6.661   3.503  1.0843  1.0047  0.0264
19353TIP3    H279551   5.953   6.545   3.594 -0.3649  2.6831  1.6923
19354TIP3   OH279552   3.373   6.506   5.395 -0.1315 -0.8073 -0.0860
19354TIP3    H179553   3.286   6.477   5.423  1.8636 -2.6982  4.7404
19354TIP3    H279554   3.429   6.429   5.406  2.8122  1.2974  0.2721
19355TIP3   OH279555   1.817   6.146   0.710 -0.2579  0.3178 -0.8189
19355TIP3    H179556   1.827   6.072   0.770 -2.2271 -0.4348 -1.3927
19355TIP3    H279557   1.886   6.134   0.645 -0.4630 -0.9253 -0.8115
19356TIP3   OH279558   0.013   0.597  10.659 -0.2875  0.4496 -0.0306
19356TIP3    H179559   0.099   0.629  10.633 -0.1339  0.7166  0.7706
19356TIP3    H279560   0.025   0.502  10.669 -0.6845  0.1539 -2.1777
19357TIP3   OH279561   0.233   2.339  11.590 -0.5107  0.8414 -0.2106
19357TIP3    H179562   0.284   2.269  11.548 -0.5592  1.1853 -0.8579
19357TIP3    H279563   0.297   2.386  11.644  0.0816  1.8548 -1.7567
19358TIP3   OH279564   4.107   3.019  13.149 -0.0095 -0.8652  0.9338
19358TIP3    H179565   4.169   3.037  13.079  0.4424 -2.4546  0.8934
19358TIP3    H279566   4.154   3.040  13.229  0.0183 -0.5380  0.8314
19359TIP3   OH279567   3.065   5.225   1.802 -0.2589 -0.2196 -0.1654
19359TIP3    H179568   3.063   5.281   1.880 -0.0921 -0.7494  0.2216
19359TIP3    H279569   3.040   5.138   1.835 -0.7135 -0.3326 -0.7974
19360TIP3   OH279570   3.642   4.690  11.547 -0.4983  0.1905 -0.1165
19360TIP3    H179571   3.608   4.601  11.556  0.6696 -0.1739  0.9479
19360TIP3    H279572   3.705   4.698  11.618 -0.4937  1.8327 -0.2881
19361TIP3   OH279573   6.076   2.210  15.422 -0.2239 -0.4085 -0.1849
19361TIP3    H179574   6.168   2.185  15.426 -0.2572 -0.5987 -0.5564
19361TIP3    H279575   6.077   2.292  15.372 -0.3029 -0.6783 -0.6368
19362TIP3   OH279576   5.406   0.068   0.987  0.2825 -0.3449 -0.1322
19362TIP3    H179577   5.443   0.006   0.924 -2.4319 -1.8664 -0.2932
19362TIP3    H279578   5.432   0.154   0.954  1.7516 -1.2750 -1.4495
19363TIP3   OH279579   0.704   3.460   5.048  0.1170 -0.5132 -0.5605
19363TIP3    H179580   0.696   3.409   4.967  1.7468 -1.8732  0.0860
19363TIP3    H279581   0.664   3.404   5.115  1.1075 -0.5633 -0.0004
19364TIP3   OH279582   1.952   5.822   6.920  0.3662 -0.8495 -0.7223
19364TIP3    H179583   1.968   5.867   7.003 -0.9740 -2.8396  0.6894
19364TIP3    H279584   1.895   5.880   6.871  0.3166 -0.1195  0.1969
19365TIP3   OH279585   1.221   4.405   1.004  0.2628  0.0987  0.8456
19365TIP3    H179586   1.199   4.342   0.936  2.3338  0.0082  0.2334
19365TIP3    H279587   1.183   4.369   1.084  0.2784 -1.2338  0.2607
19366TIP3   OH279588   4.291   3.027   4.598  0.1253 -0.6068 -0.5028
19366TIP3    H179589   4.329   3.107   4.635 -1.0797  0.0368 -0.6143
19366TIP3    H279590   4.333   2.956   4.645  0.3903  0.1352  0.3947
19367TIP3   OH279591   3.613   5.369  11.175 -1.1613 -0.7942  0.0612
19367TIP3    H179592   3.646   5.329  11.095  0.0493  1.8947 -0.8645
19367TIP3    H279593   3.551   5.435  11.144 -1.6351 -0.6066  1.4096
19368TIP3   OH279594   4.123   2.911  16.904 -0.2043 -0.1762 -0.3154
19368TIP3    H179595   4.126   2.816  16.909  0.3465 -0.2263 -1.4968
19368TIP3    H279596   4.074   2.938  16.982  1.1530 -1.3153  0.9677
19369TIP3   OH279597   3.269   3.911   2.535  0.5723 -0.0886  0.0574
19369TIP3    H179598   3.287   3.855   2.459  0.4071 -2.1273  1.4876
19369TIP3    H279599   3.348   3.903   2.589 -0.0056  0.0350  0.9127
19370TIP3   OH279600   4.655   5.767  15.951 -0.6162  0.1212  0.4584
19370TIP3    H179601   4.710   5.816  15.890 -0.7669  0.0157  0.2366
19370TIP3    H279602   4.597   5.833  15.989 -0.4927  0.1947  0.5221
19371TIP3   OH279603   6.577   3.647  16.856  0.3903  0.4395 -0.2298
19371TIP3    H179604   6.600   3.554  16.848 -1.8503 -0.3429  1.8040
19371TIP3    H279605   6.536   3.669  16.773 -1.6690 -1.2097  0.3130
19372TIP3   OH279606   0.177   6.211  15.203  0.5770 -0.6598 -0.3592
19372TIP3    H179607   0.236   6.286  15.194 -1.1046  0.9917  1.8737
19372TIP3    H279608   0.101   6.233  15.149  0.5052 -1.2248 -0.4934
19373TIP3   OH279609   3.620   3.161  12.954 -0.4063 -0.2080 -0.4938
19373TIP3    H179610   3.700   3.109  12.954  1.1524  2.0955  0.2507
19373TIP3    H279611   3.623   3.211  12.872 -0.1889  1.1475  0.3202
19374TIP3   OH279612   4.629   5.456  16.347 -0.3575 -0.1219 -0.6424
19374TIP3    H179613   4.678   5.538  16.335  0.9759 -1.0940 -2.1216
19374TIP3    H279614   4.651   5.405  16.269 -1.9397 -1.5014 -0.1885
19375TIP3   OH279615   0.017   3.887  16.755 -0.5441 -0.0838 -0.2780
19375TIP3    H179616  -0.018   3.838  16.681 -1.8534  0.4200 -0.0175
19375TIP3    H279617   0.005   3.829  16.830  1.5875 -0.9427 -0.5859
19376TIP3   OH279618   5.855   4.875   3.363 -0.4350  0.1161  0.8810
19376TIP3    H179619   5.813   4.799   3.322 -0.3965  1.0104 -0.8320
19376TIP3    H279620   5.782   4.926   3.398 -0.7241  1.0784 -1.0760
19377TIP3   OH279621   1.569   4.827  12.993 -0.1289 -0.7119 -0.4117
19377TIP3    H179622   1.588   4.737  12.967  0.5541 -0.9114  0.7401
19377TIP3    H279623   1.654   4.863  13.019 -0.7570 -0.5298  1.5143
19378TIP3   OH279624   1.060   1.406   4.760  0.0265 -0.6717  0.3823
19378TIP3    H179625   1.056   1.425   4.667  1.8008 -2.1508  0.0010
19378TIP3    H279626   1.048   1.311   4.767 -0.6738 -0.5102  1.7043
19379TIP3   OH279627   1.614   5.348  13.761  0.5586 -0.0216 -0.7333
19379TIP3    H179628   1.547   5.296  13.716  0.7498 -3.6694  2.9121
19379TIP3    H279629   1.697   5.316  13.726  0.5905 -0.3505 -0.3634
19380TIP3   OH279630   0.878   4.448   5.880  0.1702  0.0061 -0.2685
19380TIP3    H179631   0.803   4.403   5.919  0.1611  0.9792  0.8520
19380TIP3    H279632   0.846   4.537   5.863  1.3405  0.6969  1.0469
19381TIP3   OH279633   2.702   1.868   3.761  0.5797  0.1126  0.0218
19381TIP3    H179634   2.693   1.783   3.717 -1.7078 -0.6064  1.7860
19381TIP3    H279635   2.636   1.924   3.720  0.8299  0.4924  0.1347
19382TIP3   OH279636   1.729   5.845  12.566 -0.1310 -0.4089 -0.0798
19382TIP3    H179637   1.654   5.818  12.620  0.2952 -0.7379  0.3495
19382TIP3    H279638   1.803   5.795  12.601  0.2980 -0.0558 -0.4804
19383TIP3   OH279639   6.064   4.291  12.179 -0.2007 -0.2554 -0.0073
19383TIP3    H179640   6.058   4.265  12.271 -2.1407 -0.3405 -0.1254
19383TIP3    H279641   6.154   4.321  12.168 -0.9933  3.6636  3.0135
19384TIP3   OH279642   0.276   5.778  17.224 -0.1795 -0.4667 -0.3883
19384TIP3    H179643   0.286   5.806  17.315  0.6108 -0.0883 -0.5842
19384TIP3    H279644   0.228   5.849  17.182 -1.4836 -1.1269 -0.0304
19385TIP3   OH279645   3.322   0.035   1.882 -0.3527  0.4421 -0.2977
19385TIP3    H179646   3.385   0.101   1.910 -0.1084  0.7199 -1.4711
19385TIP3    H279647   3.376  -0.039   1.855 -0.6612 -0.7323  2.1659
19386TIP3   OH279648   2.984   1.969   3.172  0.3428  0.2067  0.4027
19386TIP3    H179649   2.930   1.931   3.102  0.0617 -0.6372  1.0696
19386TIP3    H279650   3.064   1.917   3.170  1.4791  1.9519 -1.0935
19387TIP3   OH279651   0.962   2.996   1.617  0.1936  0.1823 -0.3805
19387TIP3    H179652   0.925   2.922   1.570  0.1676 -0.1632  0.1945
19387TIP3    H279653   0.906   3.008   1.693  0.9061  0.0387  0.1650
19388TIP3   OH279654   1.688   5.286   3.705  0.1002  0.0012  0.5119
19388TIP3    H179655   1.766   5.323   3.664  1.3962 -2.4815  0.6683
19388TIP3    H279656   1.633   5.362   3.723  1.4681  1.5743 -1.6742
19389TIP3   OH279657   0.239   4.427  16.349  0.0534 -0.1231 -0.5716
19389TIP3    H179658   0.302   4.383  16.293  1.9903  0.4441  1.1164
19389TIP3    H279659   0.213   4.504  16.299  1.9249  0.4957 -0.6250
19390TIP3   OH279660   5.985   4.516  11.612 -0.6855 -0.5474  0.4169
19390TIP3    H179661   5.952   4.458  11.544 -1.8273  0.0045  0.4935
19390TIP3    H279662   5.911   4.571  11.636  0.1501  0.3891  0.9354
19391TIP3   OH279663   1.353   0.428  12.933  0.6387  0.1343  0.4025
19391TIP3    H179664   1.310   0.369  12.995 -2.1155  0.8179 -0.7513
19391TIP3    H279665   1.351   0.514  12.976  0.6920  0.2071  0.2595
19392TIP3   OH279666   6.626   5.122  14.001 -0.2514  0.1306  0.1341
19392TIP3    H179667   6.604   5.164  14.084  0.9130 -0.4869  0.7716
19392TIP3    H279668   6.636   5.029  14.022 -1.7052 -0.3058 -1.0539
19393TIP3   OH279669   3.265   6.514   4.443 -0.1782 -0.4725 -0.1793
19393TIP3    H179670   3.267   6.448   4.374  0.3344 -1.2197  0.5327
19393TIP3    H279671   3.204   6.480   4.508 -0.8790  0.3631 -0.3916
19394TIP3   OH279672   3.406   2.986  16.157 -0.2239 -0.4548 -0.1504
19394TIP3    H179673   3.329   3.037  16.133 -0.7023 -0.4239  1.4068
19394TIP3    H279674   3.475   3.052  16.171 -0.9273 -0.1686  2.1792
19395TIP3   OH279675   5.516   0.475   3.753 -0.0568 -0.3672  0.3755
19395TIP3    H179676   5.601   0.473   3.798 -0.1180 -1.1369  0.4587
19395TIP3    H279677   5.467   0.543   3.798  0.0494 -0.8217  1.1771
19396TIP3   OH279678   3.802   0.506   3.505  0.5024  0.1698 -0.0911
19396TIP3    H179679   3.856   0.585   3.514 -0.7430  1.0342 -0.2278
19396TIP3    H279680   3.739   0.512   3.576 -0.4603 -0.0245 -0.9265
19397TIP3   OH279681   4.094   0.298  14.241 -0.2805  0.0347 -0.1685
19397TIP3    H179682   4.106   0.297  14.146  0.4086  1.3707 -0.1147
19397TIP3    H279683   4.025   0.363  14.255 -2.0966 -1.9255  0.0812
19398TIP3   OH279684   1.077   6.814  15.549 -0.0650 -0.3890 -0.3612
19398TIP3    H179685   1.124   6.744  15.503  1.9493  0.6233  0.0915
19398TIP3    H279686   1.104   6.805  15.640  1.1969  1.7021 -0.4914
19399TIP3   OH279687   4.532   2.615  11.899  0.3092  0.6912  0.2499
19399TIP3    H179688   4.468   2.683  11.878 -0.5127 -0.1524  0.0127
19399TIP3    H279689   4.533   2.611  11.994  0.0284  0.7153  0.2537
19400TIP3   OH279690   4.531   1.607  13.988 -0.2434  0.0124 -0.5763
19400TIP3    H179691   4.436   1.609  13.980 -0.6810 -2.4607  2.5830
19400TIP3    H279692   4.555   1.697  14.010 -2.3961 -0.1215  2.7477
19401TIP3   OH279693   1.637   6.176   5.478  0.0686 -0.1537 -0.0607
19401TIP3    H179694   1.616   6.126   5.556 -2.6247 -2.3943 -2.1172
19401TIP3    H279695   1.571   6.244   5.473 -0.2863 -0.5378 -0.7961
19402TIP3   OH279696   5.029   5.310  11.348  0.7241  0.1128  0.3086
19402TIP3    H179697   5.041   5.293  11.255  1.7119 -1.4048  0.6938
19402TIP3    H279698   5.010   5.224  11.385 -0.3771  0.8159  1.4046
19403TIP3   OH279699   1.489   0.100  11.158 -0.4145 -0.4577 -0.0359
19403TIP3    H179700   1.418   0.108  11.095  0.2353 -0.3180 -0.7612
19403TIP3    H279701   1.519   0.010  11.150  0.3540 -0.1512 -0.6832
19404TIP3   OH279702   2.375   4.178  13.216  1.0730 -0.1600  0.3329
19404TIP3    H179703   2.429   4.235  13.271  0.9837  1.1426 -0.9163
19404TIP3    H279704   2.432   4.154  13.144  0.6643 -0.5404  0.1343
19405TIP3   OH279705   6.155   1.938  16.243 -0.5230  0.1635  0.0649
19405TIP3    H179706   6.108   1.923  16.325 -1.8249  0.3334 -0.6310
19405TIP3    H279707   6.087   1.934  16.176  0.4908  0.2964 -0.9780
19406TIP3   OH279708   1.901   4.824  12.610  0.2376  0.7262 -0.7261
19406TIP3    H179709   1.823   4.861  12.569 -1.4147 -1.0256  0.7563
19406TIP3    H279710   1.915   4.741  12.566  1.6473  1.2785 -1.3793
19407TIP3   OH279711   3.990   2.441   0.723 -0.1837  0.0277 -0.0782
19407TIP3    H179712   3.909   2.476   0.760 -0.0808 -0.1075  0.2710
19407TIP3    H279713   3.977   2.445   0.628  0.2054  1.9285 -0.0684
19408TIP3   OH279714   0.525   2.256   2.408  0.1204 -0.3167  0.5146
19408TIP3    H179715   0.440   2.218   2.432 -0.1245  0.2343  0.5305
19408TIP3    H279716   0.511   2.292   2.320 -0.0054  0.8154  0.9845
19409TIP3   OH279717   4.413   6.393  11.200  0.5860 -0.3025 -0.2551
19409TIP3    H179718   4.474   6.431  11.262  1.3190 -1.2118 -0.3985
19409TIP3    H279719   4.441   6.428  11.115  0.7177 -0.4646 -0.2805
19410TIP3   OH279720   4.279   0.458  10.699 -0.4044 -0.0159 -0.2446
19410TIP3    H179721   4.284   0.364  10.682 -0.5704 -0.0720  0.0188
19410TIP3    H279722   4.304   0.498  10.616 -1.1862 -0.2959 -0.6192
19411TIP3   OH279723   3.824   4.043   1.495  0.2227  0.1059 -0.0331
19411TIP3    H179724   3.843   4.068   1.586  0.2903 -3.1157  0.9028
19411TIP3    H279725   3.900   3.991   1.469 -0.4467 -0.1767 -1.4481
19412TIP3   OH279726   6.167   4.025  14.764  0.0774 -0.2381  0.0450
19412TIP3    H179727   6.175   3.930  14.758 -1.3016 -0.6012  3.0435
19412TIP3    H279728   6.255   4.056  14.781  0.6577 -0.8892 -1.6729
19413TIP3   OH279729   3.037   0.124  15.035 -0.0393 -0.6277 -0.3569
19413TIP3    H179730   2.987   0.044  15.024  0.1888 -0.8492  0.2047
19413TIP3    H279731   3.005   0.183  14.966  1.0781 -1.8489 -1.9636
19414TIP3   OH279732   2.742   6.732  13.243  0.3223  0.7660  0.3671
19414TIP3    H179733   2.679   6.691  13.303  0.4388 -0.4903 -0.3393
19414TIP3    H279734   2.734   6.826  13.259 -0.6573  0.5220  1.3438
19415TIP3   OH279735   0.136   3.965  11.921 -0.1930 -0.5293 -0.2727
19415TIP3    H179736   0.185   3.885  11.905 -0.7715 -1.0756  0.6184
19415TIP3    H279737   0.156   4.022  11.847  1.4570 -0.8930 -0.1092
19416TIP3   OH279738   0.595   5.988   4.270  0.0026 -0.3185  0.0148
19416TIP3    H179739   0.550   5.982   4.355 -0.1181 -0.3026 -0.0468
19416TIP3    H279740   0.637   5.903   4.259 -0.7982 -0.6687 -0.3574
19417TIP3   OH279741   2.128   1.554  16.252  0.1676 -0.0536 -0.2264
19417TIP3    H179742   2.056   1.613  16.272  1.2649  1.4651 -0.6666
19417TIP3    H279743   2.140   1.561  16.157 -0.4192 -1.8498 -0.4497
19418TIP3   OH279744   1.456   2.664  14.549 -0.1475 -0.3846 -0.4372
19418TIP3    H179745   1.374   2.633  14.588  1.4367 -2.3728  1.4430
19418TIP3    H279746   1.456   2.628  14.461 -0.2001 -2.3716  0.3626
19419TIP3   OH279747   6.604   5.088   1.046 -0.2272  0.2747 -0.1111
19419TIP3    H179748   6.555   5.171   1.043  0.1722  0.5061 -0.2710
19419TIP3    H279749   6.538   5.021   1.032 -0.3380  0.6416 -1.3812
19420TIP3   OH279750   6.210   4.041   0.085 -0.0912 -0.5706 -0.0220
19420TIP3    H179751   6.165   4.118   0.118  1.1339 -0.0547  0.4966
19420TIP3    H279752   6.272   4.075   0.020 -0.6981 -1.3012 -0.9984
19421TIP3   OH279753   6.297   6.523   1.071 -0.1133  0.0181  0.3926
19421TIP3    H179754   6.379   6.572   1.059 -0.7029  0.7824 -0.6108
19421TIP3    H279755   6.234   6.589   1.100 -0.9499 -0.1062 -1.1146
19422TIP3   OH279756   2.182   3.260  10.450  0.4335  0.5701 -0.3697
19422TIP3    H179757   2.124   3.234  10.378  0.3434 -1.5692  0.4444
19422TIP3    H279758   2.237   3.329  10.412 -1.6822  1.6680 -1.5543
19423TIP3   OH279759   1.893   3.576   4.771 -0.3076  0.1022 -0.4799
19423TIP3    H179760   1.819   3.557   4.712  0.4748 -1.3337 -1.0026
19423TIP3    H279761   1.881   3.517   4.845 -0.5495  0.9841  0.2037
19424TIP3   OH279762   4.025   1.263  13.947  0.6120 -0.5790 -0.6273
19424TIP3    H179763   3.946   1.318  13.941  0.9362 -0.1780 -1.2337
19424TIP3    H279764   4.059   1.261  13.858  0.5752 -1.8173 -0.6259
19425TIP3   OH279765   0.621   1.385  15.998  0.5810  0.3252  0.2358
19425TIP3    H179766   0.644   1.425  15.915  1.1222 -0.0744  0.1860
19425TIP3    H279767   0.704   1.351  16.032  0.0933 -1.0016  0.1301
19426TIP3   OH279768   5.570   6.631   5.161 -0.3288  0.1014 -0.6547
19426TIP3    H179769   5.542   6.638   5.253 -1.1728  1.3039 -0.9917
19426TIP3    H279770   5.633   6.558   5.161  2.2469  2.2046  1.5029
19427TIP3   OH279771   1.952   2.262   0.447  0.4223  0.1693  0.1501
19427TIP3    H179772   1.977   2.308   0.527  2.0943 -2.2361  1.0542
19427TIP3    H279773   2.024   2.279   0.386  0.6436 -0.5566  0.2090
19428TIP3   OH279774   0.401   1.863  13.394  0.0927  0.1552 -0.0130
19428TIP3    H179775   0.474   1.873  13.455  1.1953 -1.0375 -1.0932
19428TIP3    H279776   0.418   1.780  13.350 -1.6560  0.1143 -0.6528
19429TIP3   OH279777   3.804   6.452   2.504  0.2324  0.2502  0.7185
19429TIP3    H179778   3.877   6.430   2.561 -0.8629 -0.0174  2.0514
19429TIP3    H279779   3.842   6.508   2.436  1.3923  1.3223  2.2178
19430TIP3   OH279780   0.025   6.661   3.034 -0.0483  0.4204  0.8773
19430TIP3    H179781   0.048   6.573   3.063  2.6618  0.5035 -0.8713
19430TIP3    H279782   0.068   6.720   3.096 -0.0752  0.5317  0.7922
19431TIP3   OH279783   1.084   1.741   5.125 -0.0069  0.7857  0.3596
19431TIP3    H179784   1.016   1.803   5.101  0.9578  1.7298  0.0259
19431TIP3    H279785   1.113   1.704   5.041 -2.2660 -1.9686  0.7129
19432TIP3   OH279786   5.789   2.588  16.428 -0.2434 -0.1995 -0.6284
19432TIP3    H179787   5.741   2.621  16.352 -0.8925  2.2973  0.7938
19432TIP3    H279788   5.844   2.661  16.455 -2.0747 -0.0183  2.9425
19433TIP3   OH279789   2.924   0.167  11.676 -1.0632  0.1064 -0.2793
19433TIP3    H179790   2.905   0.199  11.764  1.5730  0.4391  0.2031
19433TIP3    H279791   2.919   0.072  11.683 -0.0150  0.0987  0.4537
19434TIP3   OH279792   0.036   0.455  15.986 -0.0225  0.8432  0.0569
19434TIP3    H179793   0.118   0.423  15.948  0.2184 -1.6656  2.5058
19434TIP3    H279794   0.058   0.537  16.028  1.6878 -0.6269  2.1419
19435TIP3   OH279795   4.482   2.537  11.033 -0.4629  0.6425  0.2713
19435TIP3    H179796   4.457   2.480  10.960 -0.1413  0.3006  0.4271
19435TIP3    H279797   4.466   2.484  11.111 -1.7799  1.3656  0.5154
19436TIP3   OH279798   6.120   1.674  14.909  0.6518  0.7492 -0.5064
19436TIP3    H179799   6.203   1.695  14.952  0.4186  0.4181  0.1133
19436TIP3    H279800   6.145   1.649  14.820  1.2387  0.4029 -0.2491
19437TIP3   OH279801   3.145   2.716  17.136 -0.0166 -0.4379  0.3096
19437TIP3    H179802   3.200   2.794  17.144 -0.8532  0.1193  0.7408
19437TIP3    H279803   3.158   2.670  17.219  0.3887 -0.7063  0.0999
19438TIP3   OH279804   4.794   5.462   2.661  0.2318 -0.2268  0.1858
19438TIP3    H179805   4.740   5.484   2.585 -0.2199  0.7545  0.7860
19438TIP3    H279806   4.844   5.541   2.679  2.1972 -1.2619 -0.6055
19439TIP3   OH279807   4.340   0.579  15.568 -0.1910  0.1862 -0.2457
19439TIP3    H179808   4.361   0.635  15.493 -1.2852  0.2828 -0.4882
19439TIP3    H279809   4.388   0.617  15.641  1.2817 -0.1962 -0.9934
19440TIP3   OH279810   6.243   3.962   2.437 -0.2619  0.3468 -0.1668
19440TIP3    H179811   6.293   4.014   2.374  1.7990 -0.3769  0.8393
19440TIP3    H279812   6.253   3.872   2.407 -0.3013  0.1160  0.5054
19441TIP3   OH279813   6.288   3.866   1.200 -0.1730  0.2290 -0.1725
19441TIP3    H179814   6.240   3.789   1.229  1.5864 -0.5316  0.8220
19441TIP3    H279815   6.231   3.907   1.134 -1.5385 -1.3812 -0.0237
19442TIP3   OH279816   1.377   4.298   2.542  0.0517 -0.0323 -0.7847
19442TIP3    H179817   1.295   4.274   2.500 -0.0906 -0.3133 -0.3424
19442TIP3    H279818   1.418   4.214   2.566 -1.0221  0.1676  1.8868
19443TIP3   OH279819   5.014   1.382  16.422 -0.2712  0.2898 -0.1147
19443TIP3    H179820   5.028   1.308  16.363 -0.2497 -0.6037  0.9913
19443TIP3    H279821   5.100   1.423  16.429 -0.3378  0.5889 -0.9355
19444TIP3   OH279822   2.683   4.230   2.911 -0.1273 -0.5030 -0.6746
19444TIP3    H179823   2.754   4.285   2.878 -0.8084  1.0107  0.3039
19444TIP3    H279824   2.727   4.166   2.967  0.5095  0.3326 -0.1899
19445TIP3   OH279825   4.532   2.988   4.278 -0.7366  0.0755 -0.1988
19445TIP3    H179826   4.530   3.077   4.245 -0.1646 -0.5877 -2.1102
19445TIP3    H279827   4.577   2.994   4.363 -2.0578  1.7871  0.3961
19446TIP3   OH279828   2.798   3.575  16.339  0.5705 -0.4058  0.0454
19446TIP3    H179829   2.837   3.565  16.426  0.1960 -1.1477  0.1324
19446TIP3    H279830   2.731   3.642  16.351 -0.6385 -1.7093  0.7307
19447TIP3   OH279831   6.323   0.296  15.794  0.2648  0.9446  0.0126
19447TIP3    H179832   6.233   0.300  15.762 -0.2241 -2.0347  0.8258
19447TIP3    H279833   6.348   0.387  15.808 -3.2439  1.7444  1.5408
19448TIP3   OH279834   5.275   2.363  11.723  0.7713 -0.0750  0.7954
19448TIP3    H179835   5.318   2.414  11.792 -3.1184  0.9395  2.5603
19448TIP3    H279836   5.203   2.417  11.693  0.0810 -2.1255 -1.4350
19449TIP3   OH279837   4.235   6.759   1.150 -0.9370  0.6826 -0.4156
19449TIP3    H179838   4.216   6.841   1.103 -0.8975  1.0822  0.2536
19449TIP3    H279839   4.327   6.767   1.176 -1.8604  2.0833  2.8096
19450TIP3   OH279840   3.015   0.288   3.762 -0.1898  0.3305 -0.5396
19450TIP3    H179841   3.102   0.290   3.722  0.5021 -1.0453  0.8374
19450TIP3    H279842   2.992   0.380   3.774  2.7336  0.7831  2.4846
19451TIP3   OH279843   0.206   4.737  12.909  0.2043  0.1616  0.0382
19451TIP3    H179844   0.124   4.688  12.922 -0.2201  0.4760 -1.3673
19451TIP3    H279845   0.209   4.797  12.983 -0.8028  0.0984  0.1494
19452TIP3   OH279846   5.780   3.662  14.642  0.3343 -0.8728 -0.1428
19452TIP3    H179847   5.852   3.599  14.631  1.0510 -0.4375  1.8684
19452TIP3    H279848   5.734   3.660  14.558  2.1815 -1.7925 -1.1771
19453TIP3   OH279849   6.409   5.485   3.209  0.2045 -0.1203  0.4270
19453TIP3    H179850   6.392   5.425   3.282  1.7049  0.5839  1.3800
19453TIP3    H279851   6.327   5.534   3.199 -0.9943 -2.2338 -0.3028
19454TIP3   OH279852   5.332   4.237   1.999  0.0663  0.5912  0.1456
19454TIP3    H179853   5.348   4.253   1.906  0.1214  0.2026  0.0862
19454TIP3    H279854   5.327   4.324   2.038  2.4513  0.7631  0.1909
19455TIP3   OH279855   3.621   5.808  15.106 -0.6407  0.1824  0.3158
19455TIP3    H179856   3.544   5.864  15.103 -0.4018  0.5085  0.2407
19455TIP3    H279857   3.649   5.809  15.197 -1.1698 -0.5479  0.4930
19456TIP3   OH279858   1.478   3.770  15.122  0.6318  0.7756  0.1858
19456TIP3    H179859   1.439   3.810  15.200  0.9403  0.1857  0.6517
19456TIP3    H279860   1.405   3.760  15.061  0.4779  1.6680  0.2177
19457TIP3   OH279861   0.306   4.819   0.835  0.7317 -0.8037 -0.0153
19457TIP3    H179862   0.249   4.759   0.787  0.9783 -1.7101  0.8159
19457TIP3    H279863   0.251   4.895   0.853 -0.5839 -2.1771  1.8395
19458TIP3   OH279864   1.514   2.894   2.296  0.4289  0.5856  0.9952
19458TIP3    H179865   1.488   2.836   2.368 -0.1032 -0.0666  0.2817
19458TIP3    H279866   1.497   2.844   2.217 -2.1042  2.4755  0.2542
19459TIP3   OH279867   0.172   3.166  12.305  0.2062  0.1701 -0.1879
19459TIP3    H179868   0.249   3.113  12.287  1.7800  2.2552  0.2421
19459TIP3    H279869   0.145   3.141  12.394 -1.2278 -2.4380 -1.2973
19460TIP3   OH279870   2.808   5.277  14.609  0.0267 -0.0466 -0.6527
19460TIP3    H179871   2.835   5.248  14.696  1.9099 -2.2675 -1.9302
19460TIP3    H279872   2.783   5.197  14.563 -1.2170  1.1337 -2.0863
19461TIP3   OH279873   1.024   4.256   2.177  0.0415 -0.0527  0.0097
19461TIP3    H179874   1.011   4.251   2.082 -1.2449  0.7040  0.1453
19461TIP3    H279875   0.940   4.285   2.212  0.7125  0.3617  1.3179
19462TIP3   OH279876   1.531   2.372  17.221  0.0531  0.1499 -0.3833
19462TIP3    H179877   1.453   2.341  17.267 -0.8903  0.2941 -1.8591
19462TIP3    H279878   1.498   2.404  17.137  1.7257  0.0035 -1.1101
19463TIP3   OH279879   1.131   5.270   3.728  0.1471 -0.0871 -0.4123
19463TIP3    H179880   1.051   5.315   3.755  0.5084  1.0570 -1.2168
19463TIP3    H279881   1.197   5.299   3.791  0.0482 -0.6520 -0.0431
19464TIP3   OH279882   1.462   5.940  12.626  0.4105  0.1164 -0.0111
19464TIP3    H179883   1.468   6.034  12.611  1.3862  0.2531  1.1819
19464TIP3    H279884   1.394   5.910  12.565 -1.0708  1.8518  0.7499
19465TIP3   OH279885   4.875   2.119  15.816  0.1392  0.3898  0.1537
19465TIP3    H179886   4.869   2.048  15.751  2.3939 -0.4461  0.8199
19465TIP3    H279887   4.829   2.085  15.892 -3.3773  1.7590 -1.2786
19466TIP3   OH279888   0.810   4.662  17.003  0.2991  0.1185 -0.5854
19466TIP3    H179889   0.834   4.750  16.976  0.2420  0.7610  1.3638
19466TIP3    H279890   0.827   4.661  17.097 -2.0721 -1.1461 -0.1366
19467TIP3   OH279891   4.202   1.791  14.757  0.1558 -0.2074  0.1480
19467TIP3    H179892   4.184   1.710  14.805 -2.3300 -0.2229 -0.7563
19467TIP3    H279893   4.127   1.847  14.775  2.6848  2.6928  2.2960
19468TIP3   OH279894   3.473   3.823   3.355  0.1036 -0.0330  0.2364
19468TIP3    H179895   3.494   3.885   3.285 -0.8044 -0.3783 -0.3486
19468TIP3    H279896   3.494   3.737   3.317 -2.3722 -0.3983 -0.3867
19469TIP3   OH279897   5.074   0.926   5.616  0.5798  1.1075 -0.1342
19469TIP3    H179898   5.008   0.983   5.656  0.2963  1.7220 -1.4499
19469TIP3    H279899   5.120   0.982   5.554  0.3663 -0.0617 -1.3786
19470TIP3   OH279900   1.197   5.105   3.320 -0.5903  0.0606  0.1914
19470TIP3    H179901   1.235   5.100   3.232  1.0669 -1.1752  0.9568
19470TIP3    H279902   1.154   5.191   3.323  1.0583  0.9551 -1.1295
19471TIP3   OH279903   6.451   2.329   5.925 -0.2076 -0.1427 -0.3695
19471TIP3    H179904   6.477   2.305   6.014 -0.0382 -0.0466 -0.3918
19471TIP3    H279905   6.482   2.419   5.914  1.6694 -0.8655 -1.2624
19472TIP3   OH279906   1.089   1.252  16.418 -0.8316  0.1411  0.4052
19472TIP3    H179907   1.141   1.202  16.480  0.4997 -0.6693 -1.3476
19472TIP3    H279908   1.007   1.204  16.411 -0.1333 -0.9804 -0.1411
19473TIP3   OH279909   5.586   3.773   4.371 -0.0247 -0.1153  0.1097
19473TIP3    H179910   5.564   3.828   4.295  0.4858  2.5670  1.8285
19473TIP3    H279911   5.515   3.709   4.375 -1.7066  1.6042 -0.8794
19474TIP3   OH279912   5.823   1.172  13.196 -0.0390 -0.0728  0.0572
19474TIP3    H179913   5.892   1.135  13.141 -2.8554 -1.2696 -2.8220
19474TIP3    H279914   5.852   1.262  13.215  3.4193 -1.3210  1.0283
19475TIP3   OH279915   2.349   0.532  13.799 -0.3757  0.2182  0.4718
19475TIP3    H179916   2.275   0.583  13.767  0.4037  1.3296  0.3979
19475TIP3    H279917   2.325   0.508  13.888 -0.9440  0.3257  0.3498
19476TIP3   OH279918   1.025   5.950  10.982 -0.2429 -0.2065  0.5563
19476TIP3    H179919   1.063   5.862  10.981  0.5447  0.1021  1.8217
19476TIP3    H279920   1.066   5.992  11.058  0.4135  1.7081 -0.8365
19477TIP3   OH279921   1.797   5.491   6.435 -0.1088 -0.6842 -0.1926
19477TIP3    H179922   1.775   5.545   6.511  0.6321  0.9320 -1.0908
19477TIP3    H279923   1.887   5.463   6.451 -0.3894 -1.3937  0.1293
19478TIP3   OH279924   5.493   5.283   4.657  0.4441  0.0422  0.1021
19478TIP3    H179925   5.517   5.315   4.744 -0.6370  0.1881  0.3554
19478TIP3    H279926   5.429   5.347   4.625 -0.2864 -0.8347 -0.1855
19479TIP3   OH279927   1.612   3.717  15.900  0.0561 -0.2762  0.4907
19479TIP3    H179928   1.616   3.811  15.914 -0.7772 -0.3362  1.1394
19479TIP3    H279929   1.579   3.681  15.982 -2.2554 -0.8776 -0.6347
19480TIP3   OH279930   1.105   6.468  15.715 -0.4818 -0.0827 -0.4105
19480TIP3    H179931   1.023   6.487  15.670 -1.5646 -0.3216  1.4215
19480TIP3    H279932   1.123   6.548  15.765 -0.7324 -0.8399  0.8823
19481TIP3   OH279933   6.222   6.580  12.781  0.6804 -0.0090  1.2946
19481TIP3    H179934   6.314   6.566  12.757  0.4503  1.3127 -0.4403
19481TIP3    H279935   6.189   6.641  12.715 -1.6079 -0.9369  1.5360
19482TIP3   OH279936   6.547   5.079   5.902 -0.3553  0.5083 -0.7380
19482TIP3    H179937   6.594   5.155   5.866 -1.7880  2.3057  1.0856
19482TIP3    H279938   6.578   5.072   5.992  0.6196 -1.8132 -1.2323
19483TIP3   OH279939   0.353   2.750  14.729  0.0640  0.2135  0.3699
19483TIP3    H179940   0.423   2.782  14.786 -0.3839  0.7880  0.6021
19483TIP3    H279941   0.394   2.682  14.675  1.0999  1.4073 -0.3497
19484TIP3   OH279942   5.433   3.243   2.202  0.5633 -0.0421  0.5696
19484TIP3    H179943   5.442   3.337   2.218  0.3102 -0.0536  0.7775
19484TIP3    H279944   5.412   3.206   2.288 -0.6392 -0.1256  0.2385
19485TIP3   OH279945   4.373   5.748  12.609 -0.3695 -0.2068 -0.1053
19485TIP3    H179946   4.372   5.687  12.535  0.9784  1.3620 -1.4843
19485TIP3    H279947   4.466   5.760  12.629 -0.6311  1.1234  0.3616
19486TIP3   OH279948   2.649   4.583  13.643  0.4371  0.0043  0.0470
19486TIP3    H179949   2.635   4.614  13.733  0.8773  0.7138 -0.1230
19486TIP3    H279950   2.704   4.506  13.653  0.3107 -0.0456  0.4001
19487TIP3   OH279951   0.139   1.730   0.472 -0.0397 -0.0100  0.1757
19487TIP3    H179952   0.209   1.794   0.460 -0.1942  0.0968 -0.1692
19487TIP3    H279953   0.112   1.707   0.383 -0.3519 -0.1504  0.3045
19488TIP3   OH279954   2.806   3.675   3.488  0.3974  0.2120 -0.0891
19488TIP3    H179955   2.793   3.726   3.409  1.3582  0.5120 -0.0577
19488TIP3    H279956   2.797   3.738   3.559 -2.8269 -0.4810  0.1808
19489TIP3   OH279957   6.507   2.887   5.866  0.3403 -0.2763 -0.7190
19489TIP3    H179958   6.414   2.905   5.882  0.1063 -1.2415 -0.9500
19489TIP3    H279959   6.546   2.884   5.953 -0.0030 -0.6584 -0.5728
19490TIP3   OH279960   4.935   2.100  13.049  0.2578  0.0147  0.4863
19490TIP3    H179961   4.919   2.137  12.963 -0.6689  0.9692  1.0565
19490TIP3    H279962   4.924   2.006  13.037 -0.3969  0.1877 -0.3172
19491TIP3   OH279963   0.331   6.806  16.360 -0.2388 -0.5165 -0.5348
19491TIP3    H179964   0.425   6.790  16.372  0.0537 -0.8563 -2.9743
19491TIP3    H279965   0.326   6.898  16.334 -0.7474 -0.0848  1.0251
19492TIP3   OH279966   5.695   3.256   5.090  0.2998  0.2319  0.5294
19492TIP3    H179967   5.740   3.262   5.175  1.8955 -0.5792 -0.2387
19492TIP3    H279968   5.603   3.276   5.110  1.2471  3.5647  1.8490
19493TIP3   OH279969   1.334   4.829   2.548 -0.0798 -0.4159 -0.1280
19493TIP3    H179970   1.429   4.820   2.551 -0.1650 -0.8409  1.8285
19493TIP3    H279971   1.301   4.742   2.573 -0.9908 -0.2183 -0.6144
19494TIP3   OH279972   5.332   4.951   3.499 -0.1572 -0.1336  0.1277
19494TIP3    H179973   5.294   5.002   3.571 -2.0794  0.2044 -1.0748
19494TIP3    H279974   5.387   4.885   3.542 -0.4178  0.7532  1.8457
19495TIP3   OH279975   6.518   2.859   3.073 -0.4617  0.3014 -0.0327
19495TIP3    H179976   6.602   2.816   3.085  0.1374  1.6699  0.7840
19495TIP3    H279977   6.499   2.849   2.980  0.1366 -0.8596 -0.0338
19496TIP3   OH279978   2.973   1.054  11.487  0.0823  0.1990 -0.5961
19496TIP3    H179979   2.957   0.984  11.550 -0.1657  0.2710 -0.5762
19496TIP3    H279980   3.027   1.014  11.419  0.1885  0.0684 -0.4338
19497TIP3   OH279981   5.964   0.528   5.683  0.2913  0.2900 -0.1780
19497TIP3    H179982   5.916   0.557   5.760 -0.9464 -3.4431  0.5382
19497TIP3    H279983   6.037   0.476   5.717  0.4313 -0.3970 -1.4672
19498TIP3   OH279984   2.525   1.768  13.538 -0.1629 -0.4530  0.3390
19498TIP3    H179985   2.439   1.769  13.497 -0.8747 -1.1427  1.7893
19498TIP3    H279986   2.581   1.816  13.476 -1.8507  1.1556  0.0004
19499TIP3   OH279987   1.041   1.897   3.529 -0.1796  0.2449  0.7059
19499TIP3    H179988   1.043   1.848   3.446  1.4658  0.3799  0.6518
19499TIP3    H279989   0.948   1.915   3.543 -0.4812  0.3239 -1.1779
19500TIP3   OH279990   2.818   1.265  11.425  0.4543  0.0297  0.6289
19500TIP3    H179991   2.869   1.184  11.436 -0.3716 -0.6567 -0.5016
19500TIP3    H279992   2.851   1.303  11.344 -0.1764  0.0719  0.3937
19501TIP3   OH279993   4.140   3.841  11.440 -0.5525  0.3008  0.3683
19501TIP3    H179994   4.106   3.921  11.481 -1.2690 -0.1889  0.7351
19501TIP3    H279995   4.158   3.783  11.514  1.2101  0.5953  0.1911
19502TIP3   OH279996   6.700   0.986  11.275 -0.0693  0.0502  0.1579
19502TIP3    H179997   6.642   0.996  11.199  0.2305  0.3041 -0.0351
19502TIP3    H279998   6.702   0.892  11.291  1.5243 -0.1889 -1.4247
19503TIP3   OH279999   1.604   6.555   3.195  0.3941  0.5447 -0.1576
19503TIP3    H180000   1.687   6.552   3.147  1.1298 -0.9825  1.1664
19503TIP3    H280001   1.627   6.527   3.284 -1.5369  0.1457  0.2292
19504TIP3   OH280002   1.208   2.359  13.950  0.1776  0.1171  0.0889
19504TIP3    H180003   1.122   2.367  13.907  0.7267 -0.6250 -1.1770
19504TIP3    H280004   1.239   2.273  13.924  1.6005  0.6509 -0.0060
19505TIP3   OH280005   0.035   1.330  10.743  0.1093  0.3702  0.4381
19505TIP3    H180006   0.059   1.258  10.685  1.6183  0.9035  0.3703
19505TIP3    H280007   0.015   1.403  10.684 -0.4612  0.2891  0.5312
19506TIP3   OH280008   0.641   4.912  15.616 -0.1394 -0.0096  0.4417
19506TIP3    H180009   0.598   4.835  15.652  0.3590 -0.5623 -0.1326
19506TIP3    H280010   0.734   4.893  15.623  0.0557  1.4808  2.3436
19507TIP3   OH280011   6.477   2.927  16.383 -0.1448  0.2214  0.2172
19507TIP3    H180012   6.493   2.963  16.296 -1.7632  0.1950 -0.1116
19507TIP3    H280013   6.516   2.990  16.444 -0.0512  0.8304 -0.4806
19508TIP3   OH280014   4.757   6.156  14.267 -0.0272 -0.8285 -0.0037
19508TIP3    H180015   4.736   6.083  14.208  1.7699 -0.9180 -0.5472
19508TIP3    H280016   4.851   6.150  14.281 -0.2748 -0.2372  2.1607
19509TIP3   OH280017   6.292   3.307   1.137  0.7551 -0.7933 -0.1315
19509TIP3    H180018   6.386   3.311   1.120  0.6467  0.3562 -0.5434
19509TIP3    H280019   6.255   3.373   1.078  0.0370  1.1960  2.4576
19510TIP3   OH280020   2.616   4.006   0.623  0.1206 -0.1535  0.1551
19510TIP3    H180021   2.632   4.021   0.530 -0.4163  0.5616  0.1743
19510TIP3    H280022   2.657   3.921   0.641 -0.9336 -0.9376 -1.0336
19511TIP3   OH280023   1.976   2.279  11.893 -0.2007  0.0741 -0.1071
19511TIP3    H180024   1.948   2.293  11.803 -0.2461 -0.9242 -0.2544
19511TIP3    H280025   1.917   2.211  11.926 -0.0807  0.3219  0.6184
19512TIP3   OH280026   2.847   5.916  17.267 -0.1909 -0.0686 -0.7977
19512TIP3    H180027   2.773   5.922  17.328 -0.1645  0.0013 -0.7726
19512TIP3    H280028   2.909   5.858  17.310  0.8958  1.8878  0.3476
19513TIP3   OH280029   4.833   2.024   0.857 -0.2639 -0.0678 -0.2381
19513TIP3    H180030   4.888   1.998   0.931 -0.1964  0.0265 -0.2554
19513TIP3    H280031   4.772   2.088   0.894  0.8195  1.2065 -0.6189
19514TIP3   OH280032   1.052   3.217   4.363  0.2378 -0.5709  0.0330
19514TIP3    H180033   1.076   3.157   4.293  0.9199  0.3169 -0.5037
19514TIP3    H280034   1.128   3.275   4.372  0.0602 -0.5264  1.3388
19515TIP3   OH280035   1.334   1.239  12.631 -0.7499  0.5430 -0.4274
19515TIP3    H180036   1.282   1.164  12.601 -1.2773  0.1653  1.3523
19515TIP3    H280037   1.317   1.307  12.566 -0.6478 -0.7114 -1.8150
19516TIP3   OH280038   0.360   3.605  17.060  0.6219  0.5351  0.3135
19516TIP3    H180039   0.445   3.635  17.029  2.3711 -2.8858  1.5327
19516TIP3    H280040   0.329   3.674  17.119  2.7770  1.5922  0.2371
19517TIP3   OH280041   5.358   1.637   5.703 -0.1018 -0.0919  0.9110
19517TIP3    H180042   5.280   1.586   5.683  1.4968 -1.6897 -1.5112
19517TIP3    H280043   5.334   1.728   5.683 -2.0527 -0.2431  2.4906
19518TIP3   OH280044   2.123   4.510   1.883  0.2021  0.4328 -0.8251
19518TIP3    H180045   2.055   4.456   1.923 -1.6828  2.2742 -1.4145
19518TIP3    H280046   2.148   4.462   1.803 -0.4870 -0.2049 -0.6593
19519TIP3   OH280047   4.470   6.233  15.696 -0.0642 -0.3856 -0.4369
19519TIP3    H180048   4.442   6.324  15.685  1.1282  0.4550  2.6749
19519TIP3    H280049   4.430   6.186  15.624 -0.9143  2.5796 -1.9773
19520TIP3   OH280050   4.175   5.583  15.815  0.0011 -0.1813 -0.0106
19520TIP3    H180051   4.207   5.651  15.756  0.4798  0.6925  1.2306
19520TIP3    H280052   4.086   5.564  15.784 -1.0080  2.6520  1.0046
19521TIP3   OH280053   5.374   4.881   1.559 -0.9418 -1.0021  0.0752
19521TIP3    H180054   5.385   4.886   1.654  0.0200  2.2378 -0.1268
19521TIP3    H280055   5.282   4.902   1.543 -0.6884  0.2483  0.2150
19522TIP3   OH280056   4.982   2.356   2.959 -0.2740  0.2785  0.4130
19522TIP3    H180057   4.918   2.305   3.010  1.2358 -1.6786  0.4017
19522TIP3    H280058   5.057   2.364   3.017  0.0628  1.2446 -0.1517
19523TIP3   OH280059   1.024   4.940   6.449 -0.0203 -0.0937  0.3158
19523TIP3    H180060   0.940   4.908   6.415  0.6288 -0.4754 -0.9452
19523TIP3    H280061   1.079   4.862   6.455  1.6461  0.7495 -2.9817
19524TIP3   OH280062   3.383   1.718  14.286  0.4290 -0.2276 -0.1389
19524TIP3    H180063   3.448   1.698  14.354  0.5128 -1.8853 -0.6918
19524TIP3    H280064   3.299   1.696  14.326  0.6736 -3.7262 -1.4528
19525TIP3   OH280065   4.125   3.742   3.989  0.2976 -0.4048 -0.8956
19525TIP3    H180066   4.133   3.658   4.035  1.4915 -0.1371 -0.6176
19525TIP3    H280067   4.081   3.719   3.907 -1.3370 -0.9721  0.1025
19526TIP3   OH280068   1.417   0.617  12.007 -0.0700 -0.1944  0.3858
19526TIP3    H180069   1.457   0.703  11.994  0.0716 -0.1469  1.1317
19526TIP3    H280070   1.389   0.617  12.098 -0.2032 -0.8884  0.3453
19527TIP3   OH280071   2.751   3.882   5.431 -0.2421  0.4642 -0.5005
19527TIP3    H180072   2.830   3.841   5.394 -1.1267 -1.3652 -0.4184
19527TIP3    H280073   2.693   3.895   5.356 -0.5082  0.3153 -0.3207
19528TIP3   OH280074   6.054   2.155   1.565  0.2966  0.3144  0.2215
19528TIP3    H180075   5.964   2.168   1.594  0.0849 -0.6329 -0.0025
19528TIP3    H280076   6.104   2.143   1.646  0.2981  1.2329  0.3681
19529TIP3   OH280077   3.199   2.644   2.400  0.0075  0.5901  0.0337
19529TIP3    H180078   3.250   2.657   2.479 -0.4764 -0.2584  0.4940
19529TIP3    H280079   3.210   2.551   2.380  0.3660  0.8557 -1.0640
19530TIP3   OH280080   3.018   2.971  14.547  0.3131 -0.1600 -0.0038
19530TIP3    H180081   2.970   2.903  14.593 -1.0190  0.4015 -0.5607
19530TIP3    H280082   3.023   2.941  14.456 -1.1498  0.9388 -0.4629
19531TIP3   OH280083   5.912   3.234   5.595  0.3659 -0.2382  0.0283
19531TIP3    H180084   5.905   3.329   5.602 -1.8517 -0.3384 -0.2700
19531TIP3    H280085   5.971   3.208   5.665  0.2672  1.2841  0.6818
19532TIP3   OH280086   1.486   4.495  15.243 -0.1331 -0.0648  0.4540
19532TIP3    H180087   1.566   4.547  15.243  0.3277 -0.7631 -0.3662
19532TIP3    H280088   1.481   4.459  15.155 -2.5042  1.7236 -0.1659
19533TIP3   OH280089   5.761   1.096  13.955  0.1694 -0.3477  0.2009
19533TIP3    H180090   5.808   1.078  13.874 -0.0785 -1.4201  0.2838
19533TIP3    H280091   5.742   1.190  13.952  1.6807 -0.0485 -0.1622
19534TIP3   OH280092   1.781   1.029   3.683 -0.2949  0.4292  0.6947
19534TIP3    H180093   1.718   1.040   3.754 -0.7487  1.2928  0.1737
19534TIP3    H280094   1.729   0.996   3.610 -0.2667  1.6680  0.0972
19535TIP3   OH280095   6.612   4.639  16.381  0.3087  0.2257  0.5755
19535TIP3    H180096   6.685   4.577  16.380 -1.7241 -2.2128 -2.5025
19535TIP3    H280097   6.628   4.697  16.307  0.0010  0.7369  0.9048
19536TIP3   OH280098   2.226   5.486  14.799 -0.0950 -0.3532  0.4115
19536TIP3    H180099   2.299   5.546  14.785  0.0006 -0.6564 -0.4408
19536TIP3    H280100   2.154   5.523  14.748 -0.1745 -0.7055  0.2663
19537TIP3   OH280101   2.672   5.756   5.549 -0.2484  0.1955  0.0052
19537TIP3    H180102   2.612   5.695   5.505  1.5536 -0.2394 -1.9772
19537TIP3    H280103   2.653   5.841   5.510 -0.1024  0.1864 -0.0884
19538TIP3   OH280104   4.735   6.299  12.644  0.0095  0.1456  0.4093
19538TIP3    H180105   4.651   6.268  12.610  0.3401 -0.7310  0.3782
19538TIP3    H280106   4.744   6.255  12.729  0.6272 -0.0908  0.2280
19539TIP3   OH280107   1.674   6.717   4.307 -0.4208 -0.7559  0.2474
19539TIP3    H180108   1.634   6.632   4.289 -1.8176 -0.3737  1.4742
19539TIP3    H280109   1.606   6.767   4.352  1.0627  0.3108  1.3613
19540TIP3   OH280110   0.973   5.121  15.839 -0.3810 -1.0425  0.0415
19540TIP3    H180111   1.052   5.148  15.887 -0.8497  0.4741 -0.0372
19540TIP3    H280112   0.913   5.090  15.907  0.1742 -1.9759  0.1245
19541TIP3   OH280113   6.596   6.100   6.702 -0.9793  0.2544  0.3032
19541TIP3    H180114   6.642   6.100   6.618  0.3156  2.1854  0.9898
19541TIP3    H280115   6.504   6.093   6.678 -0.6190  0.7424 -1.2984
19542TIP3   OH280116   1.858   6.807   3.848  0.4104 -0.4995 -0.4193
19542TIP3    H180117   1.848   6.902   3.859 -0.0552 -0.3820 -1.7104
19542TIP3    H280118   1.882   6.775   3.934  1.2582  0.8923 -0.1265
19543TIP3   OH280119   0.023   4.291  11.802  0.3123  0.2466 -0.2053
19543TIP3    H180120   0.048   4.211  11.754 -1.3391 -1.0341  1.0416
19543TIP3    H280121  -0.058   4.319  11.760  1.1341  1.5588 -0.9398
19544TIP3   OH280122   5.974   3.688   2.103 -0.9031  0.0593 -0.4219
19544TIP3    H180123   5.937   3.718   2.186  2.2667  0.5561  0.8754
19544TIP3    H280124   5.911   3.623   2.071 -1.1328 -1.7520  3.4122
19545TIP3   OH280125   3.504   1.879   2.175  0.7028  0.1006 -0.0139
19545TIP3    H180126   3.541   1.799   2.139 -2.4594 -1.4353  0.0162
19545TIP3    H280127   3.551   1.892   2.258  1.5945 -1.4092 -0.2634
19546TIP3   OH280128   2.799   0.173   1.281 -0.2628 -0.4070  0.0504
19546TIP3    H180129   2.788   0.207   1.370 -2.2715 -1.1798  0.1288
19546TIP3    H280130   2.816   0.079   1.293  2.0018 -0.0657 -0.2934
19547TIP3   OH280131   6.256   5.265  11.701  0.3314 -0.3603 -0.1825
19547TIP3    H180132   6.317   5.317  11.754  0.4547  0.7233 -1.3711
19547TIP3    H280133   6.204   5.330  11.654 -2.0956 -1.2493  1.1615
19548TIP3   OH280134   4.352   6.491  15.615  0.3046 -0.2067  0.2250
19548TIP3    H180135   4.271   6.521  15.655  0.3262  1.3141 -0.8296
19548TIP3    H280136   4.325   6.456  15.530  0.7863  0.7879 -0.3542
19549TIP3   OH280137   1.532   2.212   0.245 -0.1866 -0.7830  0.2775
19549TIP3    H180138   1.484   2.290   0.273 -0.5603 -0.3908 -1.4113
19549TIP3    H280139   1.621   2.226   0.278 -0.5588 -0.2647  1.0982
19550TIP3   OH280140   0.291   2.950  13.712  0.6952  0.3753  0.9053
19550TIP3    H180141   0.247   3.013  13.769 -0.4699  0.3404  0.0766
19550TIP3    H280142   0.349   2.901  13.770  2.4853  2.9539  1.3776
19551TIP3   OH280143   5.603   2.353   5.866 -0.3417 -0.2878 -0.0436
19551TIP3    H180144   5.549   2.295   5.920  0.2083  0.0541  0.9011
19551TIP3    H280145   5.679   2.300   5.841  0.0522 -0.0575  0.6361
19552TIP3   OH280146   1.730   1.438  10.706  0.0650 -0.4007 -0.0799
19552TIP3    H180147   1.690   1.351  10.710 -1.0442  0.0896 -0.4293
19552TIP3    H280148   1.672   1.489  10.650  1.4138  0.2068 -0.9432
19553TIP3   OH280149   1.511   4.045  16.132 -0.0028 -0.1428 -0.0353
19553TIP3    H180150   1.432   4.027  16.184  0.6898  0.9467  1.4069
19553TIP3    H280151   1.488   4.016  16.044 -1.4157 -1.4241  0.7340
19554TIP3   OH280152   2.594   5.729   3.406  0.0540  0.0032 -0.2487
19554TIP3    H180153   2.623   5.638   3.396  2.0858  0.4722  1.0081
19554TIP3    H280154   2.498   5.724   3.407  0.1536 -2.2315  0.7859
19555TIP3   OH280155   1.150   6.715   1.222 -0.5806 -0.9048 -0.5529
19555TIP3    H180156   1.221   6.660   1.191 -1.0586 -1.8270 -0.0269
19555TIP3    H280157   1.082   6.654   1.250 -2.0513 -0.0151 -2.1049
19556TIP3   OH280158   5.264   0.675   2.616 -0.6152  0.3511 -0.2735
19556TIP3    H180159   5.312   0.753   2.587 -0.8609  0.0850 -1.4246
19556TIP3    H280160   5.213   0.705   2.691 -0.3895  1.1989 -0.4481
19557TIP3   OH280161   5.165   1.715   4.691  0.7097  0.3805  0.2825
19557TIP3    H180162   5.098   1.781   4.672 -1.3755 -1.7328  0.0907
19557TIP3    H280163   5.214   1.706   4.609 -0.6458 -0.1591 -0.4667
19558TIP3   OH280164   1.693   1.440  12.361  0.1646  0.2437 -0.7756
19558TIP3    H180165   1.656   1.506  12.420 -0.1306 -0.7955  0.2144
19558TIP3    H280166   1.786   1.461  12.356  0.0762  0.7178 -0.4428
19559TIP3   OH280167   3.980   0.549  12.276 -0.2389 -0.0448 -0.1219
19559TIP3    H180168   3.936   0.629  12.305  1.5773  0.5995  1.0136
19559TIP3    H280169   3.916   0.480  12.291 -1.5076  1.0747 -0.2297
19560TIP3   OH280170   3.538   2.333   4.513  0.5182  0.3230 -0.0515
19560TIP3    H180171   3.491   2.318   4.431  0.1189  0.1437  0.2097
19560TIP3    H280172   3.623   2.291   4.501 -0.2748 -1.4127  0.3702
19561TIP3   OH280173   2.856   4.499  13.144 -0.0017  0.0900 -0.7478
19561TIP3    H180174   2.773   4.514  13.189 -0.1910  0.0168 -1.0695
19561TIP3    H280175   2.864   4.403  13.139  0.1456  0.0952 -0.6375
19562TIP3   OH280176   3.587   4.843  13.996  0.3482  0.3391  0.3288
19562TIP3    H180177   3.626   4.921  14.035  1.7165  0.3227 -0.9329
19562TIP3    H280178   3.528   4.877  13.929 -1.0226  0.3386  1.5222
19563TIP3   OH280179   6.341   5.952   5.199  0.0456  0.3624 -0.1242
19563TIP3    H180180   6.309   5.876   5.150  1.4520 -0.1485 -0.2558
19563TIP3    H280181   6.263   6.007   5.210 -0.3011  0.4953 -2.8974
19564TIP3   OH280182   1.838   1.948  13.819 -0.7344  0.0860 -0.3137
19564TIP3    H180183   1.926   1.926  13.789 -0.6967  0.5863 -0.5742
19564TIP3    H280184   1.799   1.997  13.747 -0.3654  1.9581  0.7321
19565TIP3   OH280185   4.165   3.986   2.373  0.2869  0.6939  0.4784
19565TIP3    H180186   4.197   3.903   2.409 -0.8429 -0.8046 -1.8662
19565TIP3    H280187   4.081   4.000   2.417  0.2282  0.3033  0.4956
19566TIP3   OH280188   0.469   3.624   4.207  0.0697  0.5872  0.2097
19566TIP3    H180189   0.442   3.537   4.235  3.3061 -0.4602  0.2357
19566TIP3    H280190   0.486   3.671   4.289 -1.2880  1.1328  0.1872
19567TIP3   OH280191   5.790   0.978  13.671 -0.1688 -0.1507  0.4470
19567TIP3    H180192   5.805   1.059  13.623  0.4596 -0.4223  0.1736
19567TIP3    H280193   5.851   0.915  13.631 -0.8117 -0.8131  0.5008
19568TIP3   OH280194   5.654   0.307   4.218 -0.5168  0.2704  0.2643
19568TIP3    H180195   5.593   0.290   4.289  1.3220 -2.2188  1.3331
19568TIP3    H280196   5.716   0.371   4.254 -1.0095  0.8720  0.0485
19569TIP3   OH280197   6.084   5.896   2.561 -0.4993 -0.1561 -0.1003
19569TIP3    H180198   6.150   5.929   2.622 -0.5760 -0.5013  0.1698
19569TIP3    H280199   6.037   5.974   2.532 -0.4465  0.0137  0.2639
19570TIP3   OH280200   5.389   4.227  13.252 -0.5670 -0.3472  0.0891
19570TIP3    H180201   5.485   4.221  13.252 -0.4267  1.5177  0.2323
19570TIP3    H280202   5.363   4.193  13.338 -0.0120 -0.6065  0.1569
19571TIP3   OH280203   0.738   4.498   5.295  0.7323 -0.3306  0.1166
19571TIP3    H180204   0.683   4.573   5.319  0.0977 -0.7070 -0.1386
19571TIP3    H280205   0.685   4.421   5.319  0.3764 -0.7110 -1.8416
19572TIP3   OH280206   4.112   1.192  13.639 -0.0614 -0.2681  0.2649
19572TIP3    H180207   4.019   1.172  13.625 -0.1737 -0.9103  1.8223
19572TIP3    H280208   4.156   1.107  13.628  0.3883  0.1015 -0.8260
19573TIP3   OH280209   5.504   2.214   0.671  0.7895  0.2337  0.2965
19573TIP3    H180210   5.511   2.130   0.624 -1.5130 -0.5715  1.3314
19573TIP3    H280211   5.412   2.239   0.662  1.1313  1.9105  1.2884
19574TIP3   OH280212   6.778   0.324   4.244  0.4827  0.0322  0.1926
19574TIP3    H180213   6.806   0.279   4.324  1.4435  0.7858  0.2846
19574TIP3    H280214   6.737   0.405   4.275  1.8770  0.8766 -0.1019
19575TIP3   OH280215   0.756   0.216  16.791 -0.0932 -0.1074  0.2105
19575TIP3    H180216   0.787   0.140  16.742 -0.8932 -1.3642  1.6107
19575TIP3    H280217   0.773   0.194  16.882 -1.2918  0.9404  0.6966
19576TIP3   OH280218   6.799   1.602  11.590  0.1508 -0.3979  0.2555
19576TIP3    H180219   6.858   1.531  11.563 -1.4428 -1.7744  0.2580
19576TIP3    H280220   6.821   1.675  11.533  1.8756 -0.8672  0.2914
19577TIP3   OH280221   1.300   2.491   5.367  0.4925  0.2439 -0.1283
19577TIP3    H180222   1.253   2.461   5.289 -2.2222  0.0766  1.5407
19577TIP3    H280223   1.293   2.586   5.364 -0.8194  0.1789  0.6292
19578TIP3   OH280224   4.427   3.694   2.893 -0.2848  0.2336 -0.5935
19578TIP3    H180225   4.436   3.785   2.864 -0.1711 -0.5365 -3.1086
19578TIP3    H280226   4.362   3.656   2.833  0.9362 -1.7829 -0.7013
19579TIP3   OH280227   5.557   3.743   0.507 -0.1589  0.2717 -0.3137
19579TIP3    H180228   5.632   3.801   0.491  0.3197  0.0261  0.9601
19579TIP3    H280229   5.480   3.796   0.488  0.2926  1.1643  0.3348
19580TIP3   OH280230   0.461   2.739  13.837  0.7648 -0.1487  0.2874
19580TIP3    H180231   0.479   2.665  13.894  0.4904  0.7932  1.6363
19580TIP3    H280232   0.488   2.710  13.750  0.2099 -1.9905  0.7080
19581TIP3   OH280233   3.735   4.315   2.157 -0.0878  0.1277  0.8054
19581TIP3    H180234   3.681   4.382   2.199 -0.1325  0.4204  0.2911
19581TIP3    H280235   3.686   4.293   2.077  0.6032  0.4751  0.2777
19582TIP3   OH280236   1.166   3.487  15.259  0.2740 -0.2851  0.2439
19582TIP3    H180237   1.115   3.443  15.327  1.4926 -2.6574 -0.3278
19582TIP3    H280238   1.252   3.445  15.262  1.2925  1.6520 -0.7592
19583TIP3   OH280239   1.190   3.526   1.389  0.5284 -0.2742  0.5299
19583TIP3    H180240   1.198   3.439   1.430  1.1129 -0.6173 -0.3096
19583TIP3    H280241   1.278   3.547   1.361  0.1145 -0.0672 -0.6196
19584TIP3   OH280242   5.960   1.173   2.343  0.0669  0.0727 -0.2696
19584TIP3    H180243   6.022   1.245   2.342  0.2245 -0.0488  0.3184
19584TIP3    H280244   5.922   1.175   2.431  0.8171 -1.1896  0.0914
19585TIP3   OH280245   3.943   2.155  14.814  0.0298 -0.0034 -0.2328
19585TIP3    H180246   3.891   2.076  14.795 -0.3592  0.0032  0.7659
19585TIP3    H280247   3.923   2.214  14.742  0.4734 -0.8899 -1.0926
19586TIP3   OH280248   6.220   5.342   4.563 -0.3522 -0.2946  0.0116
19586TIP3    H180249   6.248   5.373   4.477  1.4441  0.8720  0.9819
19586TIP3    H280250   6.276   5.266   4.581 -2.6041 -2.2663 -1.0015
19587TIP3   OH280251   2.681   6.001   0.222  0.8404 -0.6919  0.7125
19587TIP3    H180252   2.660   6.094   0.234  1.4374 -0.7080  1.9906
19587TIP3    H280253   2.775   5.996   0.241  1.2005 -1.2696 -1.0845
19588TIP3   OH280254   6.558   1.419   1.501  0.0410 -0.1845  0.4480
19588TIP3    H180255   6.636   1.371   1.531 -1.4126 -2.7317  0.2993
19588TIP3    H280256   6.486   1.378   1.548 -1.4120  0.9782 -0.7512
19589TIP3   OH280257   5.965   3.868  11.179  0.0061  0.0915 -0.0856
19589TIP3    H180258   6.000   3.800  11.121  3.9494  1.6000  0.3475
19589TIP3    H280259   5.958   3.945  11.123 -3.0867 -0.2053 -0.2181
19590TIP3   OH280260   3.087   5.437  12.212  0.6401  0.8221 -0.8399
19590TIP3    H180261   2.998   5.409  12.189  1.3407 -1.1720 -1.1992
19590TIP3    H280262   3.097   5.522  12.170 -0.7422  0.6036 -1.6399
19591TIP3   OH280263   2.078   5.178   5.483 -0.1026 -1.1879  0.1251
19591TIP3    H180264   2.126   5.240   5.428  1.3321 -1.7467  0.7224
19591TIP3    H280265   2.012   5.231   5.528 -0.2812 -0.4718 -0.9792
19592TIP3   OH280266   4.034   2.845   1.413 -0.2232  0.1545  0.1867
19592TIP3    H180267   4.094   2.779   1.378 -0.6308  1.1814 -2.5771
19592TIP3    H280268   4.090   2.903   1.465  1.0091  0.3891 -1.3533
19593TIP3   OH280269   4.665   2.400  15.149 -0.1417  0.1382  0.3598
19593TIP3    H180270   4.723   2.337  15.108 -1.5030  0.0958 -1.5428
19593TIP3    H280271   4.701   2.413  15.237  0.9345 -2.2280  0.2841
19594TIP3   OH280272   6.438   5.882  16.747  0.1644 -0.2982 -0.7733
19594TIP3    H180273   6.374   5.871  16.818  1.6091 -0.0055  0.5911
19594TIP3    H280274   6.431   5.975  16.723  1.4252  0.1883  0.6923
19595TIP3   OH280275   3.997   2.727   5.535  0.1987 -0.5779 -0.1899
19595TIP3    H180276   4.007   2.800   5.473 -0.9241  0.0529  0.3444
19595TIP3    H280277   4.030   2.762   5.618 -1.7093 -0.1513  0.4156
19596TIP3   OH280278   3.263   1.645   5.226  0.0277 -0.0537 -0.7725
19596TIP3    H180279   3.246   1.710   5.294  0.0699 -0.9964  0.1366
19596TIP3    H280280   3.263   1.696   5.144 -1.7693  0.8129 -0.2544
19597TIP3   OH280281   5.818   1.566   2.165  0.2715 -0.5921  0.0879
19597TIP3    H180282   5.770   1.491   2.129  0.5628 -1.1799  0.9262
19597TIP3    H280283   5.780   1.642   2.120 -0.9461 -1.1196  0.2035
19598TIP3   OH280284   5.117   4.354  16.921  0.2437  0.3180 -0.5255
19598TIP3    H180285   5.044   4.415  16.928  0.4322  0.5373 -0.4242
19598TIP3    H280286   5.083   4.280  16.872 -1.0300 -1.1027  2.3974
19599TIP3   OH280287   4.929   5.027   0.096 -0.1038  0.0911  0.0483
19599TIP3    H180288   4.884   5.005   0.014 -1.9116  2.5800  0.3264
19599TIP3    H280289   4.859   5.040   0.159  0.9727  3.3229  0.6848
19600TIP3   OH280290   0.446   0.980  14.224 -0.1821  0.1288  0.1753
19600TIP3    H180291   0.474   0.889  14.230  0.2585  0.2809  0.4756
19600TIP3    H280292   0.356   0.980  14.258  0.3564  0.0620  1.6402
19601TIP3   OH280293   0.855   1.555   6.030 -0.6244 -0.2703  0.4368
19601TIP3    H180294   0.876   1.623   5.965  2.1059  1.4267  2.9307
19601TIP3    H280295   0.933   1.500   6.033 -0.5575 -0.1273  2.4465
19602TIP3   OH280296   2.128   3.777  14.353 -0.0219 -0.0697  0.3889
19602TIP3    H180297   2.089   3.798  14.438 -0.0585 -1.6105  0.7673
19602TIP3    H280298   2.207   3.832  14.349 -0.6927  0.9512  0.8472
19603TIP3   OH280299   6.187   3.811   0.940 -0.0896 -0.0203  0.6085
19603TIP3    H180300   6.194   3.906   0.946  0.5355 -0.0558  0.4679
19603TIP3    H280301   6.102   3.795   0.898 -0.1448  0.4753  0.5350
19604TIP3   OH280302   4.279   4.235   2.391 -0.3660 -0.0203  0.0969
19604TIP3    H180303   4.263   4.142   2.374  0.6889  0.1561 -2.0816
19604TIP3    H280304   4.193   4.276   2.384 -0.9329 -0.9144  1.6827
19605TIP3   OH280305   0.734   0.906   5.921 -0.1967 -0.2435 -0.3901
19605TIP3    H180306   0.701   0.993   5.946  0.3613 -0.2054  0.2220
19605TIP3    H280307   0.789   0.923   5.845  1.4334  0.2065  0.8614
19606TIP3   OH280308   6.469   6.369   0.500 -0.0657 -0.0384  0.4907
19606TIP3    H180309   6.404   6.439   0.493  0.2514  0.3058  0.9721
19606TIP3    H280310   6.473   6.332   0.412  0.0098  0.7729  0.1422
19607TIP3   OH280311   1.297   6.128   4.432  0.3438 -0.0695  0.1267
19607TIP3    H180312   1.372   6.120   4.491  1.9180 -1.7526 -2.0127
19607TIP3    H280313   1.309   6.057   4.369 -3.4562 -0.8361  0.1508
19608TIP3   OH280314   0.350   2.292  15.365 -0.8106  0.3101  0.0825
19608TIP3    H180315   0.323   2.209  15.405  1.4287 -0.4369  0.0980
19608TIP3    H280316   0.430   2.316  15.412 -1.2182  2.2861 -0.2021
19609TIP3   OH280317   4.295   4.816   3.252  0.6334  0.0412  0.8215
19609TIP3    H180318   4.368   4.878   3.241 -0.7834  1.3907 -1.3938
19609TIP3    H280319   4.326   4.735   3.211  1.3972  0.1661  1.1283
19610TIP3   OH280320   2.756   4.374   1.320  0.6745  0.1004 -0.0960
19610TIP3    H180321   2.772   4.340   1.408 -2.3753  1.9766  1.2876
19610TIP3    H280322   2.692   4.314   1.282 -0.1327  0.8321  0.0733
19611TIP3   OH280323   1.461   3.530   5.236  0.0746 -0.3516 -0.4280
19611TIP3    H180324   1.480   3.524   5.329 -0.2085  0.1898 -0.3374
19611TIP3    H280325   1.537   3.573   5.197  0.0251 -0.2302 -0.3910
19612TIP3   OH280326   2.100   3.259   1.827  0.1869 -0.1267  0.0671
19612TIP3    H180327   2.092   3.302   1.912  0.4636  0.1769 -0.0567
19612TIP3    H280328   2.058   3.318   1.765 -0.6218 -0.6744  0.0933
19613TIP3   OH280329   1.116   0.013   5.058  0.0140 -0.3781 -0.5410
19613TIP3    H180330   1.079  -0.069   5.092 -0.1369 -1.2162 -2.6355
19613TIP3    H280331   1.058   0.037   4.986  1.3245  0.3700 -1.3670
19614TIP3   OH280332   3.938   5.112   5.464 -0.0721  0.4168  0.1061
19614TIP3    H180333   4.010   5.152   5.414 -0.5856  1.2250 -0.0021
19614TIP3    H280334   3.924   5.173   5.537 -0.5142  0.1614  0.2351
19615TIP3   OH280335   2.234   2.226   1.004 -0.2888 -0.2989 -0.1902
19615TIP3    H180336   2.201   2.224   1.094 -1.1398 -0.1493 -0.5006
19615TIP3    H280337   2.257   2.318   0.989  0.8236 -0.4949  0.2160
19616TIP3   OH280338   3.507   2.545  15.737  0.6666  0.2069  0.8339
19616TIP3    H180339   3.510   2.631  15.780  0.7285  0.8563 -0.4385
19616TIP3    H280340   3.569   2.553  15.664 -1.2204 -0.0405 -0.8288
19617TIP3   OH280341   6.617   6.134   5.616 -0.5999 -0.0284  0.6652
19617TIP3    H180342   6.527   6.136   5.585  0.4758 -0.6918 -2.7582
19617TIP3    H280343   6.660   6.205   5.569  0.8100 -0.0780  1.8367
19618TIP3   OH280344   2.191   4.814   4.500 -0.5734 -0.1357  0.3044
19618TIP3    H180345   2.201   4.865   4.420 -0.0301  0.5280  0.7916
19618TIP3    H280346   2.279   4.807   4.536 -0.8881  0.0054  1.1099
19619TIP3   OH280347   2.624   3.122   5.131  0.5607  0.1762 -0.5784
19619TIP3    H180348   2.569   3.200   5.127  1.7688  1.0128 -1.0176
19619TIP3    H280349   2.583   3.061   5.069 -0.2690  0.5241 -0.3808
19620TIP3   OH280350   5.807   1.340  13.816  0.2198 -0.2415  0.1130
19620TIP3    H180351   5.774   1.279  13.750  0.1016  0.9781 -0.9744
19620TIP3    H280352   5.799   1.426  13.775 -0.4746  0.6040  1.9727
19621TIP3   OH280353   3.657   0.196  13.909  0.2080  0.6972  0.7379
19621TIP3    H180354   3.629   0.142  13.983  1.0837 -1.4779 -0.4628
19621TIP3    H280355   3.682   0.133  13.841  1.1119  2.6250 -0.7806
19622TIP3   OH280356   4.070   6.091  13.866 -0.2027  0.0146 -0.0614
19622TIP3    H180357   4.043   6.139  13.944  0.2683  1.0143 -0.5061
19622TIP3    H280358   3.989   6.079  13.816 -0.8752 -2.4602  1.5444
19623TIP3   OH280359   6.460   5.865   0.420  0.0423 -0.3310  0.1294
19623TIP3    H180360   6.401   5.804   0.465  0.6079 -2.1628 -1.5562
19623TIP3    H280361   6.547   5.839   0.449  0.3598 -1.0409 -1.4291
19624TIP3   OH280362   3.045   2.514  16.909  0.3327  0.1693 -0.3868
19624TIP3    H180363   3.064   2.420  16.904  0.2769  0.1786 -0.8212
19624TIP3    H280364   2.991   2.524  16.987  1.4786  0.0347  0.4262
19625TIP3   OH280365   5.739   0.211   5.315  0.1246 -0.0798  0.0247
19625TIP3    H180366   5.775   0.300   5.305  3.0613 -1.2189 -0.2044
19625TIP3    H280367   5.720   0.183   5.225  0.6129 -0.2338 -0.0305
19626TIP3   OH280368   3.515   3.980   4.195 -0.3545  0.4338  0.5175
19626TIP3    H180369   3.483   4.039   4.127 -0.0946 -0.1594 -0.1241
19626TIP3    H280370   3.606   4.008   4.209  0.0863 -0.4579 -0.5074
19627TIP3   OH280371   1.963   6.161   0.470  0.0314  0.1301  0.1215
19627TIP3    H180372   1.965   6.256   0.457  0.1077  0.4260  2.0831
19627TIP3    H280373   1.998   6.124   0.389  2.1832  1.8776  0.2143
19628TIP3   OH280374   5.198   6.469  10.663  0.3728 -0.0458 -0.3649
19628TIP3    H180375   5.124   6.479  10.603 -0.7455 -1.7482  0.6917
19628TIP3    H280376   5.272   6.445  10.607 -0.5296 -1.0424 -1.1307
19629TIP3   OH280377   3.829   1.084   1.954 -0.3771  0.2993 -0.0594
19629TIP3    H180378   3.739   1.089   1.987  0.3505  0.2668  1.9969
19629TIP3    H280379   3.876   1.034   2.020  0.9774 -0.4570 -1.5658
19630TIP3   OH280380   5.309   2.681  15.120 -0.2213  0.8486 -0.2020
19630TIP3    H180381   5.386   2.710  15.071 -0.2355  1.1528 -0.0448
19630TIP3    H280382   5.236   2.727  15.079 -0.4291 -0.0637 -0.8826
19631TIP3   OH280383   0.257   1.466   0.496 -0.0567  0.0828 -0.1271
19631TIP3    H180384   0.302   1.425   0.569 -1.0437  0.2997  0.6279
19631TIP3    H280385   0.249   1.558   0.522 -1.4843 -0.0724  0.0667
19632TIP3   OH280386   4.812   4.461   6.129 -0.4230  0.1857 -0.0875
19632TIP3    H180387   4.818   4.512   6.210  0.7074 -2.7441  1.7293
19632TIP3    H280388   4.903   4.445   6.103 -0.7644 -0.5638 -0.8544
19633TIP3   OH280389   2.808   5.320  12.927 -0.7761  0.5164  0.2496
19633TIP3    H180390   2.807   5.264  13.004 -2.0086  2.5164  1.7510
19633TIP3    H280391   2.798   5.409  12.962 -0.1505  1.5735 -2.1307
19634TIP3   OH280392   1.267   4.738  16.754 -0.3066 -0.1076 -0.0004
19634TIP3    H180393   1.301   4.709  16.669  1.8645 -0.7985  1.0666
19634TIP3    H280394   1.173   4.719  16.749 -0.4088  0.8399 -2.6249
19635TIP3   OH280395   6.520   5.759   1.247  0.6305  0.2818 -0.7409
19635TIP3    H180396   6.462   5.707   1.302  0.8916 -1.2615 -1.8904
19635TIP3    H280397   6.569   5.813   1.309  1.5236 -2.0361  0.6435
19636TIP3   OH280398   3.575   1.973  14.523  0.0804  0.5402 -0.3176
19636TIP3    H180399   3.589   1.878  14.525  0.8537  0.6827  1.8705
19636TIP3    H280400   3.484   1.984  14.548  0.2982  0.4300  0.5317
19637TIP3   OH280401   4.893   4.073   0.654 -0.0794  0.4594 -0.8097
19637TIP3    H180402   4.814   4.046   0.699  0.8524 -3.1898 -1.1747
19637TIP3    H280403   4.961   4.075   0.722  0.1752  0.3825 -1.0583
19638TIP3   OH280404   2.871   3.610  14.480  0.6069  0.0246  0.2478
19638TIP3    H180405   2.902   3.576  14.396  0.3123 -1.8392  0.8693
19638TIP3    H280406   2.942   3.665  14.511  1.2720 -0.3350 -0.6085
19639TIP3   OH280407   4.363   2.453  12.454 -1.0433 -0.1986 -0.3736
19639TIP3    H180408   4.425   2.492  12.393 -1.9701  1.3635 -0.3403
19639TIP3    H280409   4.402   2.466  12.541 -0.4580 -1.0616 -0.4925
19640TIP3   OH280410   5.608   5.114  15.860 -0.6173  0.0844  0.6400
19640TIP3    H180411   5.686   5.160  15.828  0.1271 -1.5722 -0.0152
19640TIP3    H280412   5.535   5.154  15.812 -0.2147  1.8177  1.4310
19641TIP3   OH280413   0.454   3.330   2.807 -0.3050  0.4726 -0.0102
19641TIP3    H180414   0.428   3.288   2.889 -3.2652 -1.1538 -1.6721
19641TIP3    H280415   0.503   3.262   2.761 -1.6268  0.1775 -1.0109
19642TIP3   OH280416   6.293   5.335   4.264  0.7392  0.1506 -0.0902
19642TIP3    H180417   6.269   5.393   4.192 -0.5712  0.2083  0.3747
19642TIP3    H280418   6.250   5.252   4.243  1.2275 -0.1514  0.0967
19643TIP3   OH280419   1.463   6.606  14.615 -0.3679  0.2766  0.0120
19643TIP3    H180420   1.500   6.582  14.699  0.0899 -0.7604 -0.4781
19643TIP3    H280421   1.368   6.601  14.628 -0.2946 -0.0906  0.4030
19644TIP3   OH280422   4.567   1.321   0.964  0.3433  0.0620  0.0246
19644TIP3    H180423   4.546   1.392   1.024 -1.0105 -0.1192 -0.2107
19644TIP3    H280424   4.555   1.241   1.015  0.1041 -0.0557 -0.2095
19645TIP3   OH280425   6.744   1.689   5.626 -0.2011  0.4472  0.5335
19645TIP3    H180426   6.692   1.737   5.691 -2.4111  1.0686 -1.6218
19645TIP3    H280427   6.755   1.602   5.664 -0.4147  1.1478  2.2714
19646TIP3   OH280428   6.735   6.807  11.273  0.0507 -0.5821  0.2084
19646TIP3    H180429   6.669   6.828  11.339 -0.7595 -1.1707 -0.4228
19646TIP3    H280430   6.808   6.771  11.324  0.3536  1.1165  1.0181
19647TIP3   OH280431   2.170   5.062  16.770  0.4269 -0.1665  0.0611
19647TIP3    H180432   2.163   5.031  16.680 -0.9434 -2.1682  0.8222
19647TIP3    H280433   2.099   5.125  16.780  0.0595 -0.5741 -0.0025
19648TIP3   OH280434   5.778   0.766   0.051  0.3209  0.4922  0.4070
19648TIP3    H180435   5.774   0.693   0.113  0.7116 -0.5221 -0.7210
19648TIP3    H280436   5.692   0.766   0.009  0.8039 -0.2692 -0.6181
19649TIP3   OH280437   2.303   0.632   4.318 -0.1879  0.2902 -0.3243
19649TIP3    H180438   2.289   0.709   4.373  1.1815 -0.2352  0.7793
19649TIP3    H280439   2.216   0.612   4.283 -0.7452  1.7161  0.2012
19650TIP3   OH280440   2.106   2.990  15.335  0.2357 -0.3430  0.1993
19650TIP3    H180441   2.021   2.958  15.306  1.5011 -1.6187 -2.2478
19650TIP3    H280442   2.100   3.086  15.326 -0.8213 -0.4512 -0.2587
19651TIP3   OH280443   6.468   4.017  14.468  0.2136  0.0523  0.0107
19651TIP3    H180444   6.375   4.016  14.447  0.3133 -1.5190 -0.4477
19651TIP3    H280445   6.480   3.944  14.529  1.1962  0.0176 -0.2097
19652TIP3   OH280446   5.880   0.373   3.011  0.3912  0.2465  0.6308
19652TIP3    H180447   5.901   0.433   3.082 -0.7797  1.4115 -0.0076
19652TIP3    H280448   5.900   0.422   2.931  1.0356 -0.8118  0.1266
19653TIP3   OH280449   3.867   1.666   2.837  0.8548  0.0468 -0.0747
19653TIP3    H180450   3.832   1.657   2.925  0.4491  0.5506 -0.1882
19653TIP3    H280451   3.884   1.760   2.827 -2.4466  0.4988 -1.8246
19654TIP3   OH280452   6.066   3.565   5.100  0.2119 -0.2898 -0.5254
19654TIP3    H180453   6.070   3.562   5.004 -0.9402  1.7731 -0.6745
19654TIP3    H280454   6.033   3.479   5.125  1.1545 -1.0856 -1.9362
19655TIP3   OH280455   3.288   5.658   2.782  0.0828  0.0856 -0.4032
19655TIP3    H180456   3.259   5.744   2.812 -0.1286  0.9764 -3.0315
19655TIP3    H280457   3.243   5.645   2.698 -1.4343 -3.4637  0.8493
19656TIP3   OH280458   1.007   4.943  13.616  0.2185  0.1610  0.1681
19656TIP3    H180459   0.939   4.919  13.678  0.5619  3.2323  1.8348
19656TIP3    H280460   0.963   4.944  13.531 -1.4517  0.5360  1.0159
19657TIP3   OH280461   1.327   5.118   4.347 -0.4098  0.0405 -0.9598
19657TIP3    H180462   1.292   5.062   4.277 -4.3330 -0.6587  1.3750
19657TIP3    H280463   1.367   5.056   4.409 -2.1802  0.0187  0.2076
19658TIP3   OH280464   0.217   2.652   3.872 -0.5927  0.1092  0.3022
19658TIP3    H180465   0.141   2.679   3.820  0.1537 -0.5250 -1.1407
19658TIP3    H280466   0.221   2.557   3.861  1.7983  0.3701 -1.6161
19659TIP3   OH280467   2.643   2.208   3.606  0.9669  0.1235 -0.1151
19659TIP3    H180468   2.673   2.162   3.528  0.3381  2.5353 -1.8660
19659TIP3    H280469   2.565   2.256   3.577  1.4818  2.1254  1.6411
19660TIP3   OH280470   0.546   4.641  17.227  0.0486 -0.3492  0.3711
19660TIP3    H180471   0.630   4.656  17.271 -1.5197 -0.2242  3.4370
19660TIP3    H280472   0.538   4.545  17.224 -0.5104 -0.3506  1.7117
19661TIP3   OH280473   4.365   0.416  14.244  0.1036 -0.1423 -0.6493
19661TIP3    H180474   4.417   0.336  14.231  1.3583  0.3975  0.8999
19661TIP3    H280475   4.284   0.384  14.283  0.1304 -0.7752 -1.0888
19662TIP3   OH280476   3.273   0.999   1.350  0.3721 -0.3005  0.1256
19662TIP3    H180477   3.361   0.962   1.350  0.1426 -0.9016  1.6957
19662TIP3    H280478   3.224   0.944   1.412 -1.0854  0.0579 -0.6965
19663TIP3   OH280479   4.711   6.242  13.118 -0.1460  0.3739  0.1227
19663TIP3    H180480   4.649   6.254  13.191  1.4740  0.1315  1.5625
19663TIP3    H280481   4.785   6.298  13.140  1.7153 -2.0882  0.2516
19664TIP3   OH280482   2.018   3.009  14.488  0.0811  0.2573  0.0057
19664TIP3    H180483   1.936   3.051  14.514  0.5088  1.5759 -0.7247
19664TIP3    H280484   2.085   3.075  14.503  0.8839 -0.4704 -0.3216
19665TIP3   OH280485   5.655   1.816  14.806 -0.0043 -0.2859  0.5775
19665TIP3    H180486   5.596   1.753  14.764  0.5421 -0.3794 -0.0574
19665TIP3    H280487   5.702   1.765  14.871  0.5306 -0.5702 -0.0255
19666TIP3   OH280488   5.529   0.103   3.239 -0.2141  0.2334  0.2367
19666TIP3    H180489   5.547   0.161   3.165  1.6798  0.6137  0.9647
19666TIP3    H280490   5.519   0.016   3.200  1.2811  0.3409 -0.4152
19667TIP3   OH280491   1.657   2.477  15.979  0.2263 -0.0269 -0.4083
19667TIP3    H180492   1.717   2.551  15.974  0.9180 -0.4167  1.7297
19667TIP3    H280493   1.712   2.401  15.959  0.4890 -0.3861  1.5715
19668TIP3   OH280494   0.575   6.699  15.078 -0.5418 -0.0370  0.1128
19668TIP3    H180495   0.511   6.666  15.015 -1.0578  1.3798 -0.1366
19668TIP3    H280496   0.655   6.651  15.059 -1.6802 -2.3272  0.8544
19669TIP3   OH280497   0.384   6.711   3.600  0.0506 -0.0779 -0.0568
19669TIP3    H180498   0.318   6.653   3.561 -0.7783  0.3431  0.7022
19669TIP3    H280499   0.401   6.673   3.686  2.0941 -1.1697 -0.9026
19670TIP3   OH280500   1.545   4.635   4.040  0.1214 -0.0643 -0.7243
19670TIP3    H180501   1.516   4.659   3.952 -2.0451 -1.0067 -0.3073
19670TIP3    H280502   1.478   4.672   4.097  0.3180 -1.3828  0.3658
19671TIP3   OH280503   3.569   4.504   2.272  0.0974  0.8293  0.6565
19671TIP3    H180504   3.511   4.554   2.329  1.2897 -0.7563  3.3814
19671TIP3    H280505   3.656   4.542   2.286  0.4485  0.2554  0.1000
19672TIP3   OH280506   4.979   3.616  11.282  0.3067 -0.1145 -0.1715
19672TIP3    H180507   4.955   3.702  11.246  1.8565  0.0474 -0.8415
19672TIP3    H280508   4.935   3.553  11.226  3.1448  0.1167 -2.7527
19673TIP3   OH280509   6.284   3.265   5.572  0.3875  0.3486  0.4512
19673TIP3    H180510   6.225   3.265   5.648 -1.4825  0.9284 -0.9681
19673TIP3    H280511   6.365   3.305   5.605 -0.1795  0.0297  2.2909
19674TIP3   OH280512   1.548   3.041  14.931  0.1128  0.3841 -0.0635
19674TIP3    H180513   1.576   2.957  14.895 -1.1160  0.8541 -2.1858
19674TIP3    H280514   1.477   3.019  14.991  0.2104 -0.1495 -0.1436
19675TIP3   OH280515   5.210   1.940   1.897 -0.3120  0.2617  0.4996
19675TIP3    H180516   5.236   2.027   1.868  2.5448 -0.3432  1.0546
19675TIP3    H280517   5.246   1.881   1.830  0.6049 -0.6675  1.7766
19676TIP3   OH280518   6.792   0.841  15.302  0.4157 -0.4504  0.1629
19676TIP3    H180519   6.718   0.819  15.358  1.1307 -1.7174  0.6234
19676TIP3    H280520   6.841   0.759  15.293  1.9221  0.4296  0.1193
19677TIP3   OH280521   5.128   1.675   0.920 -0.7415  0.1261 -0.1904
19677TIP3    H180522   5.154   1.590   0.883 -2.0314 -0.0958 -0.6181
19677TIP3    H280523   5.200   1.699   0.977  0.4327 -0.4422 -1.3957
19678TIP3   OH280524   2.190   0.572  16.220 -0.6427  1.1028  0.1716
19678TIP3    H180525   2.262   0.516  16.248 -1.5122 -0.2954 -0.3544
19678TIP3    H280526   2.213   0.599  16.132 -0.4687  1.1559  0.2329
19679TIP3   OH280527   5.046   3.415   0.021  0.4807  0.3525  0.1108
19679TIP3    H180528   4.959   3.380   0.004  0.5501  0.3386 -0.2107
19679TIP3    H280529   5.077   3.364   0.097 -0.5320  1.6391  1.4193
19680TIP3   OH280530   0.402   2.316  14.249  0.9492 -0.0615 -0.2744
19680TIP3    H180531   0.424   2.407  14.228  0.4010  0.3831  0.9735
19680TIP3    H280532   0.320   2.299  14.203  0.5423  0.4091  0.2589
19681TIP3   OH280533   1.192   1.376   5.606 -1.0962 -0.4572  0.0935
19681TIP3    H180534   1.187   1.293   5.558 -1.4629 -1.2495  1.4724
19681TIP3    H280535   1.257   1.427   5.558  0.7782 -2.4046  0.4782
19682TIP3   OH280536   4.895   4.318  11.924  0.1310 -0.2044 -0.4816
19682TIP3    H180537   4.801   4.320  11.907 -0.2286 -0.6990  1.3954
19682TIP3    H280538   4.928   4.251  11.863 -1.0143 -1.4091  0.1934
19683TIP3   OH280539   4.611   5.501   5.645  0.4904 -0.0565 -0.2554
19683TIP3    H180540   4.605   5.536   5.734  0.3807  1.0060 -0.6757
19683TIP3    H280541   4.557   5.560   5.593  0.5144 -0.7081 -1.0223
19684TIP3   OH280542   2.297   2.834   5.214  0.0959  0.2944 -0.0560
19684TIP3    H180543   2.355   2.891   5.164 -0.2786  0.7567  0.0418
19684TIP3    H280544   2.331   2.839   5.303 -1.1021  1.8684  0.3244
19685TIP3   OH280545   1.892   5.994  13.674 -0.1315  0.7112 -0.2530
19685TIP3    H180546   1.877   6.000  13.579 -0.7463 -1.1492 -0.3039
19685TIP3    H280547   1.837   5.921  13.702 -0.7719  1.9203  1.7342
19686TIP3   OH280548   5.541   3.784  14.804 -0.4509  0.2413  0.2106
19686TIP3    H180549   5.587   3.807  14.723 -0.5581 -0.1858  0.0272
19686TIP3    H280550   5.608   3.741  14.857 -1.1435 -2.2999 -0.9045
19687TIP3   OH280551   5.888   5.138  15.336 -0.6311  0.1143  0.3039
19687TIP3    H180552   5.850   5.115  15.251  1.5274  0.9366 -0.9434
19687TIP3    H280553   5.861   5.067  15.394 -2.3442 -0.3510 -1.0127
19688TIP3   OH280554   6.396   5.897  11.758 -0.1664 -0.2024  0.1584
19688TIP3    H180555   6.307   5.863  11.759 -0.7120  1.1289 -1.4090
19688TIP3    H280556   6.451   5.822  11.739 -0.9439 -1.0204  1.0628
19689TIP3   OH280557   0.179   6.562  13.272 -0.1320  0.6576 -0.4544
19689TIP3    H180558   0.089   6.594  13.275 -0.4334  0.0840 -2.5264
19689TIP3    H280559   0.233   6.641  13.269 -0.6331  0.9849 -0.8328
19690TIP3   OH280560   3.766   1.011  17.261  0.1857 -0.0223 -0.5378
19690TIP3    H180561   3.755   0.919  17.283 -1.1822  0.1673 -0.3898
19690TIP3    H280562   3.795   1.011  17.170 -0.8812 -0.5624 -0.8831
19691TIP3   OH280563   2.393   1.870  16.488 -0.3223  0.2718 -0.1882
19691TIP3    H180564   2.411   1.909  16.574 -1.2261  0.7167 -0.1879
19691TIP3    H280565   2.313   1.818  16.502  0.1220 -0.4925 -0.5130
19692TIP3   OH280566   4.598   3.299  14.990 -0.2547  0.6742  0.5195
19692TIP3    H180567   4.560   3.382  15.021  0.1586  1.1056 -0.1333
19692TIP3    H280568   4.595   3.305  14.895 -0.0359  0.0165  0.4684
19693TIP3   OH280569   1.617   3.600  12.491  0.2007  0.0023 -0.0757
19693TIP3    H180570   1.590   3.514  12.521  4.5764 -1.7291 -0.6803
19693TIP3    H280571   1.664   3.637  12.567  0.8042  0.6308 -0.7514
19694TIP3   OH280572   5.589   5.752   2.229 -0.2718 -0.2722  0.1974
19694TIP3    H180573   5.664   5.811   2.240 -0.1969 -0.5402  1.2167
19694TIP3    H280574   5.515   5.799   2.266 -0.1925 -0.8393  1.1066
19695TIP3   OH280575   5.019   3.786  14.150 -0.3482 -0.1833  0.5175
19695TIP3    H180576   5.109   3.814  14.132 -0.9154  1.7961  0.7078
19695TIP3    H280577   5.001   3.818  14.238 -1.7247  0.6875 -0.0649
19696TIP3   OH280578   5.312   0.847  16.926 -0.3846  0.4864 -0.4364
19696TIP3    H180579   5.368   0.872  16.852 -0.0156  1.7281  0.2473
19696TIP3    H280580   5.284   0.931  16.964 -3.0469 -0.0995 -1.0099
19697TIP3   OH280581   3.025   2.587  14.621  0.0181  0.6989  0.5308
19697TIP3    H180582   3.061   2.586  14.532 -2.1790  0.6438 -0.3895
19697TIP3    H280583   3.086   2.533  14.672  0.6359 -0.2946 -1.2191
19698TIP3   OH280584   3.319   4.930   3.503 -0.2472  0.2793 -0.6021
19698TIP3    H180585   3.227   4.954   3.499 -0.2206  0.4745  0.0046
19698TIP3    H280586   3.322   4.852   3.558  0.0157  0.6101 -0.1446
19699TIP3   OH280587   5.062   1.092   2.655  0.3972  0.7777 -0.0167
19699TIP3    H180588   5.105   1.151   2.594  0.8270  0.4668 -0.0133
19699TIP3    H280589   5.064   1.007   2.612  0.2803  0.6521  0.2253
19700TIP3   OH280590   6.261   4.494  13.420  0.5086  0.1506  0.2866
19700TIP3    H180591   6.333   4.513  13.479  0.6386 -1.2505  0.5950
19700TIP3    H280592   6.203   4.570  13.427  0.6611  0.1243  1.9860
19701TIP3   OH280593   0.268   5.713   1.638  0.0346 -0.3639 -0.2486
19701TIP3    H180594   0.189   5.747   1.596  0.9146  0.5593 -1.1753
19701TIP3    H280595   0.260   5.618   1.631 -1.1201 -0.2899 -0.0832
19702TIP3   OH280596   5.637   1.308   1.760  0.5716  0.1959 -0.1168
19702TIP3    H180597   5.677   1.234   1.805 -1.1105 -0.4003  0.4242
19702TIP3    H280598   5.683   1.312   1.676 -0.4935 -2.5342 -0.8529
19703TIP3   OH280599   0.371   0.370  14.685  0.2421 -0.1085  0.1865
19703TIP3    H180600   0.313   0.357  14.760  1.9174 -3.8340  0.9637
19703TIP3    H280601   0.338   0.309  14.618  0.1803  1.4799 -1.2661
19704TIP3   OH280602   3.783   4.649   5.311 -0.1959 -0.1596  0.6460
19704TIP3    H180603   3.771   4.638   5.217  0.9944 -0.0881  0.4851
19704TIP3    H280604   3.711   4.707   5.338 -0.7364 -0.4578 -0.1509
19705TIP3   OH280605   3.014   2.042  14.500  0.6318 -0.2803 -0.4997
19705TIP3    H180606   2.977   1.992  14.426 -0.0367 -2.0102  0.9671
19705TIP3    H280607   2.970   2.006  14.577  3.0713 -0.1924  0.9814
19706TIP3   OH280608   3.404   3.682   1.429  0.6077 -0.4063 -0.2942
19706TIP3    H180609   3.463   3.754   1.448 -1.4429  1.3536 -0.4488
19706TIP3    H280610   3.425   3.657   1.339  0.2727  1.0227 -0.7783
19707TIP3   OH280611   2.447   0.576   3.032  0.2536 -0.3611 -0.1103
19707TIP3    H180612   2.487   0.564   3.118 -1.0179 -1.2548  0.3670
19707TIP3    H280613   2.512   0.625   2.982  0.5461  1.1966  1.7289
19708TIP3   OH280614   4.596   4.494   4.370 -0.0848  0.1442 -0.3005
19708TIP3    H180615   4.628   4.584   4.374 -0.8053  0.3684  0.7950
19708TIP3    H280616   4.662   4.446   4.319  1.2812  0.8811  0.7493
19709TIP3   OH280617   2.880   3.611   6.083 -0.2133 -0.5480  0.0016
19709TIP3    H180618   2.931   3.677   6.129 -2.2340 -0.3405  2.0111
19709TIP3    H280619   2.886   3.533   6.138  1.8650 -2.0052 -2.1771
19710TIP3   OH280620   4.140   5.322  16.310  0.4540  0.1291  0.4180
19710TIP3    H180621   4.161   5.366  16.228 -0.0797  0.4759  0.4705
19710TIP3    H280622   4.199   5.246  16.312 -0.1973 -0.4135 -0.7372
19711TIP3   OH280623   3.777   4.677  13.909 -0.1601 -0.2583  0.5528
19711TIP3    H180624   3.707   4.723  13.955 -0.5438  0.3327 -0.6271
19711TIP3    H280625   3.739   4.592  13.887 -1.2199  0.8217 -1.9118
19712TIP3   OH280626   1.887   3.446  14.440 -0.0771  0.0273  0.2850
19712TIP3    H180627   1.854   3.536  14.449  0.9744  0.5444 -1.0004
19712TIP3    H280628   1.862   3.419  14.352  2.1983  0.1475 -0.4347
19713TIP3   OH280629   5.448   4.255  16.237 -0.0203 -0.4804  0.1972
19713TIP3    H180630   5.411   4.202  16.166  1.0381 -0.3639 -0.4549
19713TIP3    H280631   5.448   4.196  16.312 -1.8689 -0.3607  0.3284
19714TIP3   OH280632   0.741   6.656  13.611 -0.8724 -0.1562  0.2824
19714TIP3    H180633   0.823   6.641  13.564 -1.6310 -2.5033 -0.3886
19714TIP3    H280634   0.740   6.750  13.630  0.8793  0.3059 -1.7296
19715TIP3   OH280635   1.576   3.992  15.644 -0.0026  0.2382 -0.2063
19715TIP3    H180636   1.651   3.986  15.585  0.1226  3.0115 -0.3817
19715TIP3    H280637   1.500   3.981  15.587  0.2061  0.0414 -0.4438
19716TIP3   OH280638   3.854   3.776  10.766  0.2934  0.3560 -0.1270
19716TIP3    H180639   3.763   3.745  10.768  1.4786 -3.3921  0.1309
19716TIP3    H280640   3.874   3.784  10.673  0.6479 -2.0601 -0.3027
19717TIP3   OH280641   3.400   3.463  12.731  0.7819 -0.4025  0.3234
19717TIP3    H180642   3.308   3.481  12.715  0.5285 -0.5951  1.5050
19717TIP3    H280643   3.424   3.521  12.804  1.1549 -1.5291  1.1128
19718TIP3   OH280644   4.454   3.982  15.289 -0.0344 -0.2845  0.0230
19718TIP3    H180645   4.387   3.925  15.328 -1.0652  0.7420 -0.2147
19718TIP3    H280646   4.498   4.021  15.364  0.8142 -1.5348  0.1911
19719TIP3   OH280647   2.377   2.951  14.531 -0.5368  0.2781  0.8818
19719TIP3    H180648   2.360   2.911  14.445  0.2189 -0.0318  0.8791
19719TIP3    H280649   2.345   3.041  14.522  0.1721  0.4531  0.0546
19720TIP3   OH280650   3.642   2.451  17.229  0.0599 -0.1652  0.0363
19720TIP3    H180651   3.552   2.420  17.218  0.1008  0.4786 -2.3441
19720TIP3    H280652   3.677   2.399  17.302 -2.5393  0.2886  1.6464
19721TIP3   OH280653   1.554   4.065   3.458  0.6782  0.2516 -0.2465
19721TIP3    H180654   1.473   4.101   3.494  0.6448 -1.9700  1.9680
19721TIP3    H280655   1.623   4.102   3.513  0.8362 -1.0687  0.4444
19722TIP3   OH280656   5.077   2.265  10.686 -0.1033  0.5935  0.0007
19722TIP3    H180657   5.083   2.169  10.688  0.0288  0.5503 -1.4920
19722TIP3    H280658   4.984   2.284  10.695 -0.0995  0.3395  0.5935
19723TIP3   OH280659   1.523   6.067   3.992 -0.3216 -0.4142  0.4578
19723TIP3    H180660   1.519   6.151   4.037  1.5714  0.2156 -0.4577
19723TIP3    H280661   1.567   6.008   4.054 -2.3961 -0.9656  1.4194
19724TIP3   OH280662   1.999   2.414   6.065  0.1426  0.3130  0.1461
19724TIP3    H180663   2.033   2.330   6.096  2.5611  1.4205  0.5633
19724TIP3    H280664   1.982   2.464   6.144 -2.8664 -0.3068 -0.0246
19725TIP3   OH280665   0.105   5.268   5.597  0.0102  0.4979  0.6682
19725TIP3    H180666   0.014   5.290   5.578  0.3718  1.4664  0.0031
19725TIP3    H280667   0.100   5.192   5.654 -1.2052  0.2727  0.2713
19726TIP3   OH280668   3.166   4.175  13.219  0.5195  0.0750  0.4527
19726TIP3    H180669   3.153   4.097  13.164  0.8734 -1.0064  1.8733
19726TIP3    H280670   3.254   4.164  13.255  0.7427  1.3690  0.3002
19727TIP3   OH280671   3.498   6.663  13.980  0.3082 -0.0820 -0.2540
19727TIP3    H180672   3.429   6.622  14.033 -0.7256 -0.2868 -1.7299
19727TIP3    H280673   3.556   6.590  13.955 -0.8653 -0.4894 -1.8750
19728TIP3   OH280674   1.346   3.172  13.947  0.8473 -0.1263 -0.1002
19728TIP3    H180675   1.295   3.159  13.867 -1.6492  2.1594  1.0244
19728TIP3    H280676   1.398   3.251  13.930 -2.3461  2.5052  1.6647
19729TIP3   OH280677   4.968   4.890  13.514  0.3526 -0.1083 -0.5122
19729TIP3    H180678   5.006   4.975  13.494  3.7252 -1.4192 -0.1440
19729TIP3    H280679   5.032   4.827  13.482 -0.3619 -2.4423  2.3565
19730TIP3   OH280680   1.111   1.474  12.720  0.0373  0.1238  0.5493
19730TIP3    H180681   1.202   1.501  12.733  0.7829 -1.1923 -1.5632
19730TIP3    H280682   1.078   1.534  12.652 -0.3719  0.0096  0.6477
19731TIP3   OH280683   1.105   1.388   2.604 -0.1511  0.4100 -0.5582
19731TIP3    H180684   1.195   1.358   2.616 -0.2983 -1.1702 -3.0596
19731TIP3    H280685   1.075   1.409   2.693  2.5276  0.5864  0.3535
19732TIP3   OH280686   6.227   1.630  12.504 -0.0931  0.1575 -0.6747
19732TIP3    H180687   6.271   1.684  12.569  0.6406 -0.4626 -0.6450
19732TIP3    H280688   6.178   1.566  12.555  0.1750 -0.0858 -0.7163
19733TIP3   OH280689   1.027   0.220   2.307 -0.2984 -0.5182 -0.4914
19733TIP3    H180690   0.958   0.179   2.359  0.3446  0.6781  1.3739
19733TIP3    H280691   1.098   0.157   2.307 -0.8520 -1.1507 -1.1998
19734TIP3   OH280692   4.409   3.088  15.046  0.5858 -0.3276  0.5395
19734TIP3    H180693   4.477   3.152  15.028 -2.2725  2.3094 -1.3275
19734TIP3    H280694   4.412   3.076  15.141  0.2375  3.7348  1.1346
19735TIP3   OH280695   6.309   0.671   5.838 -0.9674  0.0591 -0.6279
19735TIP3    H180696   6.262   0.589   5.847  0.1920 -0.5620 -0.1508
19735TIP3    H280697   6.242   0.739   5.850 -1.6678 -0.8058  0.3910
19736TIP3   OH280698   1.165   5.952  16.370  0.1463 -0.2906  0.0594
19736TIP3    H180699   1.090   6.011  16.385 -0.1331 -0.4895 -0.5396
19736TIP3    H280700   1.217   5.959  16.450 -0.2548  0.2352  0.2794
19737TIP3   OH280701   4.233   3.760  12.083  0.5110  0.5557 -0.0134
19737TIP3    H180702   4.190   3.787  12.164  0.4947 -1.4214  0.6813
19737TIP3    H280703   4.322   3.793  12.090  0.3351  0.9182  0.5189
19738TIP3   OH280704   1.432   3.777  16.285  0.6510 -0.2259  0.1796
19738TIP3    H180705   1.415   3.727  16.205  0.8118 -2.3779  1.4355
19738TIP3    H280706   1.369   3.848  16.283 -0.0646 -0.8796 -1.3410
19739TIP3   OH280707   0.846   1.096   5.253  0.0339  0.0929  0.1765
19739TIP3    H180708   0.889   1.012   5.267 -0.9187 -0.0102  2.8071
19739TIP3    H280709   0.890   1.156   5.313 -1.4282  0.6783  0.6885
19740TIP3   OH280710   5.415   5.394   1.217 -0.1747  0.4621 -0.3706
19740TIP3    H180711   5.333   5.423   1.258 -0.7394 -2.9838  1.1128
19740TIP3    H280712   5.387   5.336   1.146  0.9724  0.2569 -0.6659
19741TIP3   OH280713   4.498   5.563  13.235  0.1828 -0.1185 -0.3075
19741TIP3    H180714   4.540   5.589  13.153 -0.5851 -0.7330 -0.8988
19741TIP3    H280715   4.410   5.600  13.229 -0.1405 -0.8540 -0.1192
19742TIP3   OH280716   6.104   1.073   4.127  0.3777  0.0704 -0.5218
19742TIP3    H180717   6.088   1.052   4.219 -1.3938  0.4527 -0.7326
19742TIP3    H280718   6.080   1.165   4.118  1.0157  0.1717 -1.2694
19743TIP3   OH280719   1.422   6.331   5.538  0.2221  0.1491 -0.2609
19743TIP3    H180720   1.410   6.422   5.567  0.8319  0.8408 -2.1194
19743TIP3    H280721   1.334   6.295   5.536 -0.1028  0.9181 -0.1922
19744TIP3   OH280722   0.619   3.511  15.700  0.1144 -0.4675  0.0354
19744TIP3    H180723   0.594   3.555  15.619  1.7738 -1.9155 -1.3074
19744TIP3    H280724   0.704   3.550  15.723  1.2711 -2.4328 -0.8036
19745TIP3   OH280725   5.711   3.910  15.907 -0.0193  0.5060 -0.9034
19745TIP3    H180726   5.744   3.991  15.867  1.3875  1.0996  1.3678
19745TIP3    H280727   5.696   3.933  15.998 -0.9766 -1.4354 -0.5510
19746TIP3   OH280728   5.328   4.594   4.669 -0.0206 -0.7136  0.0143
19746TIP3    H180729   5.312   4.617   4.760  1.0890 -1.0329  0.2916
19746TIP3    H280730   5.326   4.499   4.667  1.6908 -0.7621  0.0343
19747TIP3   OH280731   6.300   4.215   3.819  0.2880 -0.1296 -0.1568
19747TIP3    H180732   6.388   4.246   3.799 -0.3062  0.3387 -2.1355
19747TIP3    H280733   6.288   4.138   3.764 -0.3054 -0.5983  0.6075
19748TIP3   OH280734   3.617   2.551   4.654 -0.3092 -0.2861  0.3255
19748TIP3    H180735   3.674   2.604   4.599 -2.2452  1.7430  0.2017
19748TIP3    H280736   3.588   2.479   4.597 -0.1537  0.2867 -0.4758
19749TIP3   OH280737   1.597   3.690   3.607  0.3715  0.2283 -0.2390
19749TIP3    H180738   1.674   3.736   3.573 -1.4861  2.4444 -1.5731
19749TIP3    H280739   1.583   3.728   3.693  1.5583 -1.1896  0.6160
19750TIP3   OH280740   6.334   6.340   3.591 -0.2894  0.4646 -0.3729
19750TIP3    H180741   6.305   6.373   3.676  1.0900  0.7042  0.0189
19750TIP3    H280742   6.404   6.400   3.566  0.1098 -0.3220 -1.1329
19751TIP3   OH280743   1.584   6.692  10.736  0.0579 -0.2047 -0.0594
19751TIP3    H180744   1.523   6.669  10.667 -0.4055  0.2410  0.1948
19751TIP3    H280745   1.628   6.610  10.759 -1.4903 -0.8186  0.7772
19752TIP3   OH280746   4.202   3.476   5.878 -0.0506  0.0414  0.1085
19752TIP3    H180747   4.228   3.388   5.902  2.6665  0.8350  0.2547
19752TIP3    H280748   4.213   3.479   5.783 -0.0287  0.2400  0.1161
19753TIP3   OH280749   0.496   0.415   2.765 -0.1604 -0.8239 -0.4677
19753TIP3    H180750   0.475   0.505   2.744 -0.3123 -0.8530 -0.4404
19753TIP3    H280751   0.444   0.396   2.843 -1.0523 -1.3143 -1.1722
19754TIP3   OH280752   1.546   2.310  15.238 -0.3876  0.5066 -0.5212
19754TIP3    H180753   1.606   2.237  15.254  0.8541  1.3573 -1.2276
19754TIP3    H280754   1.525   2.343  15.325 -1.7994 -1.3359 -0.1174
19755TIP3   OH280755   6.163   2.771   6.815 -0.4651 -0.6139 -0.0199
19755TIP3    H180756   6.122   2.687   6.794 -1.3303  0.6783 -4.1159
19755TIP3    H280757   6.091   2.834   6.813  0.4813  0.5157  0.9094
19756TIP3   OH280758   3.266   0.393  13.265 -0.5674 -0.0492  0.0407
19756TIP3    H180759   3.204   0.333  13.222 -1.6913  0.6638  0.6372
19756TIP3    H280760   3.217   0.474  13.274  0.5871  0.6272  0.2348
19757TIP3   OH280761   0.082   5.806  12.158  0.0626 -0.0498 -0.4826
19757TIP3    H180762   0.172   5.786  12.131 -0.5008 -1.0008 -1.6859
19757TIP3    H280763   0.090   5.828  12.251  1.3502 -1.5156 -0.2144
19758TIP3   OH280764   3.895   1.772   0.864 -0.3323 -0.6528  0.9031
19758TIP3    H180765   3.941   1.819   0.934 -0.6251  0.2837  0.4774
19758TIP3    H280766   3.838   1.711   0.910 -1.0221  0.4260  1.5035
19759TIP3   OH280767   3.749   6.026   3.612  0.2878  0.0857  0.2119
19759TIP3    H180768   3.778   6.042   3.702 -0.6150  0.1872  0.4963
19759TIP3    H280769   3.663   5.984   3.622  0.1747  0.1197 -0.5983
19760TIP3   OH280770   5.541   1.195  17.242 -0.0705 -0.0063 -0.0840
19760TIP3    H180771   5.632   1.163  17.237 -0.1676 -0.2171 -0.5725
19760TIP3    H280772   5.504   1.149  17.318 -0.1228 -0.8522 -0.6101
19761TIP3   OH280773   6.236   2.811   6.176 -0.1072 -0.2741  0.1315
19761TIP3    H180774   6.197   2.858   6.249  0.6748 -0.9570  0.9941
19761TIP3    H280775   6.162   2.768   6.133 -0.8683  1.8970 -0.8019
19762TIP3   OH280776   0.054   3.373   0.186  0.4124 -0.0605 -0.3677
19762TIP3    H180777   0.092   3.458   0.166  1.3092 -0.1641  0.8291
19762TIP3    H280778  -0.038   3.381   0.162  0.1237  1.7910  1.3244
19763TIP3   OH280779   4.061   6.622   2.814  0.2726  0.4208 -0.3716
19763TIP3    H180780   4.023   6.627   2.901 -1.0907 -0.0555 -0.9247
19763TIP3    H280781   4.093   6.711   2.797  0.1502  0.6205  0.4289
19764TIP3   OH280782   1.249   4.849   1.561 -0.5366  1.2516  0.1905
19764TIP3    H180783   1.218   4.818   1.476  0.6360 -2.5302  1.0350
19764TIP3    H280784   1.344   4.834   1.558 -0.4548  1.3410  2.0190
19765TIP3   OH280785   5.551   1.468  11.144 -0.2801 -0.1920  0.2116
19765TIP3    H180786   5.507   1.509  11.070  0.7347  1.0219  0.2608
19765TIP3    H280787   5.495   1.394  11.168 -0.7092 -0.4755 -1.6424
19766TIP3   OH280788   1.663   3.212   3.685  0.4926  0.3752 -0.0488
19766TIP3    H180789   1.648   3.291   3.634 -0.6895 -0.1685 -0.5767
19766TIP3    H280790   1.621   3.229   3.769  1.8651  1.0148  0.5275
19767TIP3   OH280791   2.937   0.604  16.512 -0.0946  0.1875 -0.5744
19767TIP3    H180792   3.027   0.630  16.531 -0.7941  2.7839 -0.6761
19767TIP3    H280793   2.919   0.533  16.574  0.9542  1.8143  1.6351
19768TIP3   OH280794   1.407   6.404   1.516 -0.5036  0.0370  0.8779
19768TIP3    H180795   1.490   6.446   1.539  1.6101 -3.1148 -0.6235
19768TIP3    H280796   1.394   6.425   1.424 -0.1818 -1.3708  0.5054
19769TIP3   OH280797   1.535   6.698   1.617 -0.0999 -0.3269 -0.0430
19769TIP3    H180798   1.479   6.709   1.540  0.7370  0.1699 -0.5909
19769TIP3    H280799   1.502   6.763   1.680 -1.3639 -1.3468  0.3765
19770TIP3   OH280800   3.303   2.553   4.582  0.0285 -0.4161  0.3515
19770TIP3    H180801   3.247   2.475   4.582  0.0550 -0.4665 -1.2609
19770TIP3    H280802   3.296   2.586   4.492  1.9312  0.0672  0.3740
19771TIP3   OH280803   0.258   5.169   4.793 -0.5908 -0.3529  0.0991
19771TIP3    H180804   0.321   5.097   4.805 -0.4382  0.0067  1.6256
19771TIP3    H280805   0.283   5.234   4.860 -2.5632 -0.1849  0.7114
19772TIP3   OH280806   1.191   0.443   5.704 -0.0640  0.1864 -0.3690
19772TIP3    H180807   1.110   0.467   5.659  0.0201  0.5107 -0.3501
19772TIP3    H280808   1.174   0.462   5.796  0.6132  1.8741 -0.5679
19773TIP3   OH280809   2.657   0.233   1.569 -0.1980  0.0939  0.4647
19773TIP3    H180810   2.626   0.319   1.542 -0.4441 -0.1157  0.0877
19773TIP3    H280811   2.737   0.252   1.620 -0.1400  0.5267  0.2159
19774TIP3   OH280812   2.210   3.131   4.285  0.4723  0.0963 -0.8534
19774TIP3    H180813   2.171   3.046   4.302 -0.6495  0.3870 -1.9090
19774TIP3    H280814   2.252   3.155   4.368 -0.2570 -0.9207 -0.1802
19775TIP3   OH280815   6.412   2.543  12.156  0.0907 -0.4951 -0.0161
19775TIP3    H180816   6.401   2.482  12.229  1.4635 -1.4038 -0.5408
19775TIP3    H280817   6.327   2.543  12.112 -0.1922 -1.3501  0.5092
19776TIP3   OH280818   5.737   2.018  13.831 -0.4530  0.3850 -0.3049
19776TIP3    H180819   5.763   1.935  13.792 -1.1196 -0.1583  0.3853
19776TIP3    H280820   5.775   2.085  13.774  0.6709 -0.3866 -0.4841
19777TIP3   OH280821   0.733   0.147   0.289 -0.0507  0.4040 -0.2685
19777TIP3    H180822   0.739   0.153   0.384 -0.5439  0.6060 -0.2509
19777TIP3    H280823   0.684   0.224   0.263 -1.2372 -0.4270 -0.5554
19778TIP3   OH280824   2.325   0.982   0.678 -0.2565  0.4919 -0.3219
19778TIP3    H180825   2.389   1.048   0.653  0.1076  0.0291 -0.6243
19778TIP3    H280826   2.240   1.021   0.658 -0.0243  0.6975 -0.9021
19779TIP3   OH280827   5.647   5.430   5.169 -0.5387 -0.1187 -0.1102
19779TIP3    H180828   5.598   5.416   5.088  0.6973 -0.2499 -0.8396
19779TIP3    H280829   5.737   5.404   5.148 -0.3284 -0.7172  1.4736
19780TIP3   OH280830   2.449   1.313  16.054  0.0570 -0.0156  0.3908
19780TIP3    H180831   2.514   1.257  16.011  0.5961  1.7082 -1.1608
19780TIP3    H280832   2.370   1.260  16.058  0.7328 -1.1130 -0.4731
19781TIP3   OH280833   0.923   4.885  13.346  0.0395  0.1378 -0.3029
19781TIP3    H180834   0.925   4.924  13.259 -1.1865 -0.4552 -0.6075
19781TIP3    H280835   0.900   4.793  13.332 -2.9719  0.6472  0.7862
19782TIP3   OH280836   4.374   1.580   1.623 -0.0897 -0.1560 -0.7890
19782TIP3    H180837   4.430   1.569   1.699 -0.7524 -1.4988 -0.4826
19782TIP3    H280838   4.428   1.553   1.549 -0.7720 -2.9239 -0.3382
19783TIP3   OH280839   0.176   4.344  13.650 -0.2534 -0.0745  0.8064
19783TIP3    H180840   0.137   4.257  13.657  0.8923 -0.6282  0.4661
19783TIP3    H280841   0.267   4.328  13.623 -0.0305  1.2237  0.7246
19784TIP3   OH280842   1.726   0.343   4.319  0.5500  0.4630  0.4317
19784TIP3    H180843   1.805   0.374   4.274  0.2510 -2.2852 -2.1803
19784TIP3    H280844   1.654   0.385   4.272  0.3218 -0.6130 -0.2040
19785TIP3   OH280845   3.674   6.036   4.865  0.0933  0.5844 -0.4315
19785TIP3    H180846   3.585   6.003   4.881  0.4997 -1.0730 -1.4833
19785TIP3    H280847   3.731   5.976   4.914  0.5197  2.9367  2.0403
19786TIP3   OH280848   3.522   0.409  13.314 -1.3325  0.0076  0.3136
19786TIP3    H180849   3.430   0.383  13.315 -1.4401  0.3789  0.2470
19786TIP3    H280850   3.521   0.497  13.275 -1.2323  1.1186  2.7811
19787TIP3   OH280851   5.119   1.646  14.925  0.6524  0.6220 -0.3196
19787TIP3    H180852   5.167   1.591  14.864  0.7609  0.4561 -0.0851
19787TIP3    H280853   5.055   1.692  14.871 -0.1283 -0.5056 -0.3550
19788TIP3   OH280854   6.039   1.524   3.205  0.8063 -0.0194  0.1828
19788TIP3    H180855   6.104   1.549   3.139  0.7017 -1.2749 -0.4064
19788TIP3    H280856   6.088   1.518   3.287  1.2805 -0.2060 -0.1141
19789TIP3   OH280857   6.650   1.578  13.487  0.7629  0.0379  0.5881
19789TIP3    H180858   6.672   1.668  13.512  1.8626 -0.4418  1.4229
19789TIP3    H280859   6.557   1.570  13.507  0.6382  1.0176  0.4358
19790TIP3   OH280860   0.892   5.123   2.425 -0.0811  0.2337 -0.1824
19790TIP3    H180861   0.945   5.079   2.492  0.6289 -0.8848 -1.4607
19790TIP3    H280862   0.956   5.172   2.373 -0.6007  0.8927 -0.2003
19791TIP3   OH280863   1.638   1.679  15.402  0.0164 -0.2354  0.2350
19791TIP3    H180864   1.714   1.727  15.436 -0.7021  1.3969 -0.4056
19791TIP3    H280865   1.562   1.729  15.433 -0.7816 -1.5225  0.3708
19792TIP3   OH280866   5.966   3.218  12.762  0.1268  0.5835 -0.5372
19792TIP3    H180867   5.953   3.184  12.851  0.6093  0.4284 -0.5230
19792TIP3    H280868   6.037   3.165  12.726  1.3537  2.0258 -0.2789
19793TIP3   OH280869   1.451   0.406  13.536  0.2396  0.0042  0.1224
19793TIP3    H180870   1.415   0.439  13.618  0.1067 -0.7391  0.3680
19793TIP3    H280871   1.429   0.313  13.536  0.9508 -0.1689 -0.3695
19794TIP3   OH280872   3.827   6.789  14.065  0.1195  0.3077 -0.2838
19794TIP3    H180873   3.904   6.845  14.059  0.1855  0.2365 -0.0741
19794TIP3    H280874   3.834   6.731  13.988  1.3759 -1.1069  0.8581
19795TIP3   OH280875   2.353   0.477  12.412  0.4183 -0.0247  0.1802
19795TIP3    H180876   2.270   0.432  12.425 -0.6590  2.0200  0.5843
19795TIP3    H280877   2.341   0.530  12.333  1.5818 -0.2583 -0.1712
19796TIP3   OH280878   5.942   2.782   0.161 -0.3240  0.3349 -0.0999
19796TIP3    H180879   6.013   2.784   0.225 -0.7428  0.5449  0.3670
19796TIP3    H280880   5.912   2.691   0.162 -0.2622  0.3145 -0.0744
19797TIP3   OH280881   3.444   3.275   2.225  0.6999 -0.0732  0.6673
19797TIP3    H180882   3.369   3.334   2.241  0.9813  1.3002 -2.7310
19797TIP3    H280883   3.412   3.189   2.250 -2.3143  0.3817 -1.3724
19798TIP3   OH280884   2.960   3.229  14.283 -0.2828  0.3596  0.0579
19798TIP3    H180885   2.879   3.184  14.307  0.7566 -1.5450  0.1672
19798TIP3    H280886   2.957   3.235  14.187 -0.2810 -0.2770  0.0159
19799TIP3   OH280887   6.583   1.867   0.290 -0.2545  0.3025 -0.0485
19799TIP3    H180888   6.579   1.772   0.300 -0.9132  0.3643  0.2690
19799TIP3    H280889   6.677   1.885   0.278 -0.2792 -0.5348 -1.6956
19800TIP3   OH280890   3.699   4.744   2.697 -0.4125  0.0671 -0.5392
19800TIP3    H180891   3.735   4.829   2.669  1.4714 -0.2405  0.8374
19800TIP3    H280892   3.769   4.682   2.678 -0.5408 -0.6964  1.3992
19801TIP3   OH280893   1.228   0.891  11.181  0.1453  0.0077  0.2615
19801TIP3    H180894   1.303   0.895  11.121  0.0714 -1.4101  0.0584
19801TIP3    H280895   1.229   0.801  11.214 -0.9273  0.2491  0.9644
19802TIP3   OH280896   5.604   6.813   1.738 -0.0714 -0.8926 -0.0411
19802TIP3    H180897   5.566   6.741   1.687 -0.3680 -1.4785  0.9940
19802TIP3    H280898   5.686   6.777   1.772  0.9610  0.0411 -1.4379
19803TIP3   OH280899   5.767   4.256  16.939  0.1465  0.1502 -0.0293
19803TIP3    H180900   5.822   4.237  17.015  1.1743  0.5622 -0.6608
19803TIP3    H280901   5.806   4.204  16.868  0.4829  1.4114 -0.7818
19804TIP3   OH280902   6.418   0.369  14.412  0.0334  0.1773 -0.5607
19804TIP3    H180903   6.394   0.443  14.468 -0.4442  1.8661 -2.9010
19804TIP3    H280904   6.335   0.342  14.372  0.7671  0.7551 -2.5004
19805TIP3   OH280905   2.222   6.667   1.204 -0.2624  0.2937 -0.4769
19805TIP3    H180906   2.232   6.577   1.237 -0.6403  0.4621  0.1034
19805TIP3    H280907   2.128   6.678   1.194 -0.3063  1.0628  0.6854
19806TIP3   OH280908   6.164   3.106  11.846  0.5294 -0.5471 -0.1586
19806TIP3    H180909   6.240   3.075  11.797  0.3118 -0.5747 -0.4822
19806TIP3    H280910   6.094   3.046  11.821  0.0730  0.2892 -0.8872
19807TIP3   OH280911   4.410   6.251   3.076 -0.4190 -0.7560  0.1930
19807TIP3    H180912   4.320   6.282   3.086 -0.6391 -0.4939 -2.2454
19807TIP3    H280913   4.401   6.156   3.069 -0.5152 -0.7230 -0.1394
19808TIP3   OH280914   0.115   4.097   4.825 -0.8315 -0.0973  0.2790
19808TIP3    H180915   0.132   4.188   4.849 -0.5872  0.1063 -0.6430
19808TIP3    H280916   0.182   4.047   4.871  0.9477  0.4868 -1.6002
19809TIP3   OH280917   1.893   1.789  13.338 -0.2030 -0.3763 -0.1446
19809TIP3    H180918   1.806   1.749  13.336  0.1323 -1.1641  0.2487
19809TIP3    H280919   1.883   1.873  13.295 -0.9436 -0.8938 -0.9954
19810TIP3   OH280920   3.524   0.635  16.694 -0.5167 -0.1103  0.1370
19810TIP3    H180921   3.519   0.710  16.636 -0.7528 -0.9384 -0.9161
19810TIP3    H280922   3.618   0.624  16.710 -0.5371  1.1022  1.2325
19811TIP3   OH280923   6.641   3.747  12.386  0.1876 -0.6999 -0.3135
19811TIP3    H180924   6.562   3.735  12.439 -1.2301 -0.1005 -2.2298
19811TIP3    H280925   6.671   3.659  12.365  0.7686 -0.9378  1.4795
19812TIP3   OH280926   3.468   0.103  13.080  0.1024 -0.2623 -0.4732
19812TIP3    H180927   3.426   0.059  13.006  0.7528 -1.7639  0.0284
19812TIP3    H280928   3.433   0.058  13.157 -1.1731  1.8018  0.2012
19813TIP3   OH280929   5.752   2.688  12.610 -0.6871  0.5306 -0.2231
19813TIP3    H180930   5.804   2.767  12.595 -3.4158  2.2984 -0.8330
19813TIP3    H280931   5.738   2.651  12.523 -1.7943  0.9992 -0.2582
19814TIP3   OH280932   0.160   4.077  14.854 -0.3952  0.2060 -0.0609
19814TIP3    H180933   0.093   4.111  14.915 -0.8236 -1.7006  0.5556
19814TIP3    H280934   0.220   4.150  14.843 -1.6769  1.4198  0.6937
19815TIP3   OH280935   6.233   0.794   5.461  0.3176  0.2613  0.1973
19815TIP3    H180936   6.297   0.770   5.528  0.4800 -1.9187 -0.6912
19815TIP3    H280937   6.282   0.791   5.379 -0.7323 -0.7606 -0.4131
19816TIP3   OH280938   3.716   5.548  17.133  0.2532 -0.2627  0.2744
19816TIP3    H180939   3.677   5.558  17.046  1.9001  0.7687 -0.3576
19816TIP3    H280940   3.677   5.618  17.184 -0.3543 -0.5736  0.2479
19817TIP3   OH280941   3.457   2.626   6.178 -0.3367  0.2704  0.4606
19817TIP3    H180942   3.411   2.547   6.210 -0.1122  0.1295  0.4350
19817TIP3    H280943   3.547   2.615   6.208  0.5948 -1.2862 -2.6765
19818TIP3   OH280944   0.620   2.163  16.260 -0.1156 -0.2764  0.0241
19818TIP3    H180945   0.646   2.222  16.331  2.6458  0.7201 -1.7440
19818TIP3    H280946   0.678   2.087  16.269 -1.3964 -1.2438  0.2610
19819TIP3   OH280947   0.856   1.108  16.508 -0.4532  0.1388 -0.0005
19819TIP3    H180948   0.786   1.143  16.563 -0.2108  0.2914  0.2180
19819TIP3    H280949   0.812   1.056  16.442 -0.7904  0.4548 -0.0268
19820TIP3   OH280950   1.527   1.931  13.057 -0.5636  0.2896 -0.0715
19820TIP3    H180951   1.604   1.915  13.002  0.1991  0.5485  0.9182
19820TIP3    H280952   1.459   1.875  13.018  0.4717 -0.9519 -0.1663
19821TIP3   OH280953   4.276   1.711   1.885  0.1616 -0.0317  0.0070
19821TIP3    H180954   4.295   1.646   1.817  1.2371 -1.7912  1.9294
19821TIP3    H280955   4.182   1.704   1.900  0.4305 -1.9467  0.9471
19822TIP3   OH280956   2.036   5.694   4.558  0.1111 -0.0717 -0.3600
19822TIP3    H180957   2.036   5.691   4.653 -0.0882  0.6553 -0.3368
19822TIP3    H280958   2.103   5.630   4.532  0.9277  0.5105  0.2925
19823TIP3   OH280959   6.413   0.722  13.405 -0.9363 -0.5545 -0.1106
19823TIP3    H180960   6.372   0.774  13.336  0.4322  1.7653  0.7481
19823TIP3    H280961   6.346   0.714  13.472 -1.8370 -1.7077 -1.1144
19824TIP3   OH280962   3.932   2.091  13.828 -0.0642  0.7377 -0.3965
19824TIP3    H180963   3.859   2.141  13.792 -0.1925  0.9202  0.1030
19824TIP3    H280964   3.919   2.002  13.796 -0.3733  0.8228 -0.5082
19825TIP3   OH280965   4.164   0.898  11.860 -0.0870  0.1615 -0.0125
19825TIP3    H180966   4.091   0.950  11.894 -0.1807 -0.6368  1.0377
19825TIP3    H280967   4.230   0.963  11.835 -1.1332  0.8941 -0.9516
19826TIP3   OH280968   0.816   3.118   5.815  0.3510 -0.5308 -0.3797
19826TIP3    H180969   0.860   3.039   5.847 -0.1207 -0.4224  0.5424
19826TIP3    H280970   0.842   3.186   5.876  2.9133  0.6509 -2.6765
19827TIP3   OH280971   4.269   0.332   2.157  0.5364  0.0699 -0.1556
19827TIP3    H180972   4.238   0.257   2.208 -1.5882 -0.1560 -1.6766
19827TIP3    H280973   4.360   0.310   2.135  0.5685 -1.1312  1.0939
19828TIP3   OH280974   2.024   6.125   5.156  0.1650 -0.1425  0.1204
19828TIP3    H180975   2.092   6.159   5.214 -0.6701  0.5252  0.7177
19828TIP3    H280976   2.032   6.030   5.162 -0.0950 -0.0805  1.5472
19829TIP3   OH280977   1.314   4.830  11.383 -0.0245 -0.7511  0.3591
19829TIP3    H180978   1.266   4.843  11.302 -0.1228 -0.8965  0.3932
19829TIP3    H280979   1.252   4.851  11.452 -0.3035 -1.7574  0.4245
19830TIP3   OH280980   6.805   4.397   3.422 -0.1152  0.3528  0.2642
19830TIP3    H180981   6.804   4.490   3.401 -2.2574  0.3739  0.3171
19830TIP3    H280982   6.744   4.388   3.496 -1.2540 -1.3072 -0.8338
19831TIP3   OH280983   0.576   1.850  11.711 -0.4267  0.3981  0.0372
19831TIP3    H180984   0.610   1.906  11.640 -1.2962  2.4897  1.2192
19831TIP3    H280985   0.482   1.845  11.693 -0.7486  1.4433  1.3446
19832TIP3   OH280986   2.941   3.279  16.452  0.3447 -0.2869  0.5724
19832TIP3    H180987   2.898   3.293  16.537  1.5441 -0.0157  1.1545
19832TIP3    H280988   3.019   3.334  16.456  0.7280 -0.7500 -0.4677
19833TIP3   OH280989   6.697   1.965   4.597  0.0633  0.3003  0.0586
19833TIP3    H180990   6.674   2.041   4.650  1.1634  0.9159 -0.3439
19833TIP3    H280991   6.651   1.977   4.514 -0.2242  0.2278  0.2049
19834TIP3   OH280992   2.528   3.582  11.549 -0.5376 -0.2158  0.0533
19834TIP3    H180993   2.567   3.530  11.479  0.4093  0.0725  0.3558
19834TIP3    H280994   2.488   3.656  11.503  0.3713  0.1498 -0.1650
19835TIP3   OH280995   5.090   6.547  12.676  0.2745  0.4047  0.1604
19835TIP3    H180996   5.025   6.590  12.731  0.5345  2.6639 -1.2147
19835TIP3    H280997   5.174   6.562  12.720  0.1755 -0.1861  0.5530
19836TIP3   OH280998   3.460   4.258  14.035 -0.3114 -0.1323  0.2833
19836TIP3    H180999   3.447   4.351  14.016 -0.2189 -0.0286  0.7391
19836TIP3    H281000   3.371   4.222  14.037 -0.2469 -0.4990 -2.1728
19837TIP3   OH281001   6.042   5.779  12.129 -0.3827  0.3624  0.5974
19837TIP3    H181002   5.983   5.774  12.054 -0.3126 -1.1150  0.6313
19837TIP3    H281003   6.110   5.714  12.110 -1.1060 -1.0191  2.5771
19838TIP3   OH281004   6.263   3.908  12.561  0.2389  0.0586 -0.1295
19838TIP3    H181005   6.207   3.852  12.614 -1.1255 -0.4613 -2.0551
19838TIP3    H281006   6.334   3.850  12.532  0.0526 -0.1048 -0.2656
19839TIP3   OH281007   5.447   1.453  15.713  0.6620  0.1149  0.1589
19839TIP3    H181008   5.365   1.410  15.735  1.2031 -0.2565  1.4737
19839TIP3    H281009   5.470   1.503  15.791  1.5142  0.5042 -0.3272
19840TIP3   OH281010   0.692   2.725   4.077  0.2562 -0.2251 -0.0663
19840TIP3    H181011   0.749   2.784   4.027 -0.3197  0.4307  0.0575
19840TIP3    H281012   0.722   2.734   4.167  0.1444 -0.1031 -0.0422
19841TIP3   OH281013   4.132   3.140  15.819 -0.6953 -0.2989 -0.4536
19841TIP3    H181014   4.140   3.086  15.741  2.5087 -0.2359 -0.2646
19841TIP3    H281015   4.174   3.223  15.795 -2.6267  0.9375  0.3048
19842TIP3   OH281016   4.271   5.310   2.508 -0.0064  0.1907 -0.1605
19842TIP3    H181017   4.186   5.335   2.544 -0.7720 -0.9950 -1.0869
19842TIP3    H281018   4.251   5.237   2.450  1.5878  0.2509 -0.7966
19843TIP3   OH281019   3.092   2.197   1.016  0.3569 -0.3937  0.7789
19843TIP3    H181020   3.130   2.274   1.058  0.9249  0.6589 -1.6067
19843TIP3    H281021   3.015   2.177   1.070  0.4569  1.5640  1.7102
19844TIP3   OH281022   1.639   2.113  13.966  0.0387 -0.4185 -0.3460
19844TIP3    H181023   1.645   2.097  14.060 -1.0300 -1.6781 -0.4717
19844TIP3    H281024   1.720   2.076  13.931  0.5524  0.2773  0.1079
19845TIP3   OH281025   2.299   5.787  13.875 -0.4292 -0.2343 -0.4217
19845TIP3    H181026   2.351   5.843  13.932  0.4743 -1.4327 -0.0345
19845TIP3    H281027   2.241   5.847  13.828  1.4023  1.1498 -0.9786
19846TIP3   OH281028   4.661   1.830  10.724 -0.3928  0.7103 -0.2576
19846TIP3    H181029   4.656   1.814  10.819 -0.2095  3.7211  0.2921
19846TIP3    H281030   4.687   1.921  10.716  1.2469  0.0284 -3.2564
19847TIP3   OH281031   0.027   5.699  13.283 -0.0541 -0.1215  0.1215
19847TIP3    H181032   0.074   5.778  13.310 -0.0646 -0.5707  1.4923
19847TIP3    H281033  -0.017   5.669  13.362 -1.7998 -0.3100 -0.8992
19848TIP3   OH281034   4.737   2.573  12.444  0.1611 -0.2682 -0.0844
19848TIP3    H181035   4.814   2.544  12.395 -0.8276 -2.0096 -0.6467
19848TIP3    H281036   4.668   2.580  12.379 -0.2091  1.1313  0.4456
19849TIP3   OH281037   4.296   2.531   0.122 -0.0688 -0.0945  0.1570
19849TIP3    H181038   4.253   2.458   0.165 -0.7700  0.6664  0.7668
19849TIP3    H281039   4.232   2.561   0.057  1.0157 -1.3036 -1.5175
19850TIP3   OH281040   0.982   6.403  12.358 -0.4003 -0.1071 -0.1202
19850TIP3    H181041   1.003   6.495  12.374  1.0770 -0.6045  0.9778
19850TIP3    H281042   1.006   6.389  12.267  0.0970  0.4039 -0.0700
19851TIP3   OH281043   3.696   1.512  10.754 -0.5480 -0.0188 -0.0332
19851TIP3    H181044   3.652   1.430  10.730 -0.4390  0.0182 -0.3518
19851TIP3    H281045   3.788   1.496  10.735 -0.2013 -0.6264  2.0141
19852TIP3   OH281046   1.675   3.542  17.138 -0.2628  0.0843  0.2583
19852TIP3    H181047   1.654   3.611  17.201  1.5757  1.2788 -0.4188
19852TIP3    H281048   1.712   3.472  17.191  2.1328  1.4477  0.4390
19853TIP3   OH281049   4.215   2.516  14.472  0.1941  0.3675 -0.3492
19853TIP3    H181050   4.213   2.422  14.489 -0.0632  0.4309 -0.0284
19853TIP3    H281051   4.226   2.523  14.377  1.3569  0.0161 -0.2502
19854TIP3   OH281052   2.241   5.897   6.865  0.1780  0.3063  0.2891
19854TIP3    H181053   2.248   5.987   6.897  1.1592 -0.8289  3.5144
19854TIP3    H281054   2.148   5.877   6.870  0.1455  0.6298  1.1828
19855TIP3   OH281055   6.142   5.924   5.449 -0.1560  0.1026  0.2136
19855TIP3    H181056   6.143   5.859   5.378 -0.3476 -2.3931  2.4022
19855TIP3    H281057   6.049   5.943   5.463 -0.2506 -0.8975  1.0518
19856TIP3   OH281058   2.203   2.484  11.576 -0.6434  0.1747  0.0469
19856TIP3    H181059   2.229   2.547  11.508  0.2359  0.6641  0.8356
19856TIP3    H281060   2.222   2.398  11.537 -1.5493  0.3871 -0.9042
19857TIP3   OH281061   1.439   6.678   3.393  0.2331 -0.0903 -0.6112
19857TIP3    H181062   1.482   6.630   3.323 -0.0524  1.1735 -1.6700
19857TIP3    H281063   1.449   6.622   3.470  2.0226 -0.7173 -1.2847
19858TIP3   OH281064   5.594   2.694   4.420 -0.0055 -0.2897 -0.0390
19858TIP3    H181065   5.614   2.602   4.401 -2.5852 -0.8879 -0.0703
19858TIP3    H281066   5.539   2.722   4.348 -1.0744  0.6114  1.1085
19859TIP3   OH281067   1.293   1.967  12.323 -0.2153 -0.5466  0.4194
19859TIP3    H181068   1.358   2.036  12.336 -0.4302 -0.3715  0.5426
19859TIP3    H281069   1.240   1.997  12.249 -0.5573 -0.3977  0.7267
19860TIP3   OH281070   2.024   3.611  13.982  0.6034 -0.1495 -0.1838
19860TIP3    H181071   1.989   3.573  14.062 -0.8253  1.0861 -0.2011
19860TIP3    H281072   2.048   3.700  14.006  1.6369 -0.2741 -0.7422
19861TIP3   OH281073   4.163   4.801   3.496 -0.0798  0.0662  0.1743
19861TIP3    H181074   4.079   4.835   3.465  0.0352 -0.0713 -0.2914
19861TIP3    H281075   4.218   4.799   3.418  0.7055  1.2049  0.7023
19862TIP3   OH281076   3.275   1.883   0.403  0.1859 -0.0501 -0.5515
19862TIP3    H181077   3.275   1.796   0.443 -0.5640  0.3234  0.2997
19862TIP3    H281078   3.326   1.938   0.463 -1.1654  0.5747  0.0683
19863TIP3   OH281079   2.286   5.293  11.151 -0.3365 -0.1543  0.2132
19863TIP3    H181080   2.272   5.238  11.074  1.8186 -0.6739  0.1643
19863TIP3    H281081   2.332   5.370  11.117 -1.0245  0.4627  0.6880
19864TIP3   OH281082   1.080   6.424  11.677 -0.8896 -0.1313  0.1924
19864TIP3    H181083   1.108   6.338  11.643 -1.9555  1.0271 -3.8352
19864TIP3    H281084   1.151   6.483  11.652  0.0766  0.1971  3.3931
19865TIP3   OH281085   0.140   0.234   5.261 -0.2006 -1.0311 -0.5674
19865TIP3    H181086   0.186   0.198   5.185 -0.0391 -2.3117  0.1261
19865TIP3    H281087   0.055   0.190   5.261  0.3181 -2.0607  0.7799
19866TIP3   OH281088   1.316   6.611  15.957  0.3006 -0.7139  0.1691
19866TIP3    H181089   1.319   6.526  15.912 -0.6059 -1.6780  1.9138
19866TIP3    H281090   1.351   6.593  16.044 -0.4324  0.5981  0.7291
19867TIP3   OH281091   5.813   5.219   2.159  0.0330 -0.1610 -0.1478
19867TIP3    H181092   5.776   5.140   2.198  0.2885  0.7762  2.0806
19867TIP3    H281093   5.772   5.291   2.208  0.2925  1.0880 -1.6939
19868TIP3   OH281094   0.045   4.418   0.797 -0.1263  0.5502  0.2036
19868TIP3    H181095  -0.024   4.441   0.860  0.0844  1.8980 -0.0579
19868TIP3    H281096   0.047   4.322   0.799 -0.4035  0.5534  1.9537
19869TIP3   OH281097   3.267   4.699   5.445  0.3416  0.0424  0.2788
19869TIP3    H181098   3.345   4.668   5.400 -0.6933 -1.2653 -0.6663
19869TIP3    H281099   3.281   4.793   5.457  1.2164  0.1635 -1.5856
19870TIP3   OH281100   5.269   5.331  14.191  0.5849  0.1153  0.0139
19870TIP3    H181101   5.362   5.308  14.186  0.0350 -1.9247 -1.6116
19870TIP3    H281102   5.242   5.342  14.100 -0.5006  1.9648  0.5336
19871TIP3   OH281103   0.010   0.411  12.566  0.2998  0.1097 -0.0470
19871TIP3    H181104   0.064   0.360  12.506 -0.4477 -0.0536 -0.5749
19871TIP3    H281105  -0.015   0.349  12.635 -0.0609 -0.0711 -0.3415
19872TIP3   OH281106   5.844   0.941  12.298 -0.2068  0.4842  0.4709
19872TIP3    H181107   5.785   0.924  12.225  1.0973 -0.8414 -0.2775
19872TIP3    H281108   5.786   0.974  12.367 -1.5932  0.7599 -0.7849
19873TIP3   OH281109   5.851   2.652   3.244 -0.0406 -0.1039  0.5794
19873TIP3    H181110   5.829   2.698   3.325 -0.5203 -0.2997  0.5606
19873TIP3    H281111   5.906   2.579   3.271 -0.3985 -0.3069  0.7477
19874TIP3   OH281112   2.410   0.897  14.199  0.5741 -0.1606  0.2726
19874TIP3    H181113   2.450   0.817  14.163 -0.2741 -0.3667 -0.2237
19874TIP3    H281114   2.322   0.870  14.224  0.1391  0.7282 -0.3009
19875TIP3   OH281115   2.218   2.141  16.974 -0.5847 -0.1362 -0.0599
19875TIP3    H181116   2.233   2.125  17.067  2.2627 -0.1528 -0.4781
19875TIP3    H281117   2.126   2.167  16.968 -0.8940 -0.5038  2.6961
19876TIP3   OH281118   1.143   5.499   6.268  0.1626  0.0399 -0.7965
19876TIP3    H181119   1.104   5.488   6.354 -0.3949  0.6982 -0.9594
19876TIP3    H281120   1.206   5.571   6.279 -1.0757  1.2196 -1.3104
19877TIP3   OH281121   1.335   5.371  14.202  0.0244  0.3635 -0.1956
19877TIP3    H181122   1.242   5.364  14.180 -0.0667 -2.6024  0.9608
19877TIP3    H281123   1.336   5.407  14.291  0.0233  1.0616 -0.4740
19878TIP3   OH281124   6.037   0.243  14.450  0.6321 -0.7067  0.1055
19878TIP3    H181125   5.998   0.159  14.476  0.8706 -1.1627 -1.0157
19878TIP3    H281126   6.039   0.294  14.531 -0.0884 -1.5551  0.6640
19879TIP3   OH281127   4.970   1.700  16.037  0.0138 -0.3371 -0.3502
19879TIP3    H181128   4.910   1.755  15.988  0.3249 -0.6222 -1.0499
19879TIP3    H281129   4.913   1.635  16.080 -0.1619 -0.7424 -1.1890
19880TIP3   OH281130   4.819   4.844   2.937  0.3864 -0.1673  0.2341
19880TIP3    H181131   4.836   4.844   2.843  1.1423  1.0565  0.3530
19880TIP3    H281132   4.848   4.759   2.967 -0.2600 -0.7350 -0.7023
19881TIP3   OH281133   5.563   3.713  17.031 -0.5964 -0.7605  0.1762
19881TIP3    H181134   5.633   3.730  17.094 -0.5054 -1.5284  0.2838
19881TIP3    H281135   5.537   3.622  17.047 -0.0704 -1.1879 -1.3859
19882TIP3   OH281136   2.370   1.915  11.628 -0.9365 -0.2780 -0.2751
19882TIP3    H181137   2.351   1.993  11.679 -1.3206 -0.7867  0.3685
19882TIP3    H281138   2.412   1.948  11.548  0.9394  0.4318  0.9672
19883TIP3   OH281139   1.595   0.865  13.324 -0.0683 -0.0194 -0.1263
19883TIP3    H181140   1.591   0.840  13.232 -0.3096 -0.0258 -0.1135
19883TIP3    H281141   1.528   0.812  13.367 -1.5470  1.6389 -0.3234
19884TIP3   OH281142   5.321   5.159  11.102  0.3317 -0.8790 -0.0668
19884TIP3    H181143   5.337   5.174  11.009  0.0704 -2.0876 -0.3151
19884TIP3    H281144   5.408   5.158  11.142  0.3673  1.0286 -0.0708
19885TIP3   OH281145   6.628   4.350   4.653 -0.1856  0.0061 -0.3796
19885TIP3    H181146   6.689   4.409   4.607  1.3047 -1.3652 -0.2261
19885TIP3    H281147   6.607   4.283   4.589 -0.0509 -0.5522  0.1530
19886TIP3   OH281148   5.773   2.775  15.627 -0.2384  0.2002 -0.4844
19886TIP3    H181149   5.780   2.815  15.541  0.1288  0.3706 -0.3730
19886TIP3    H281150   5.792   2.682  15.612  1.8101  0.5663 -0.2625
19887TIP3   OH281151   4.256   5.073  11.120  0.4671 -0.3646 -0.2524
19887TIP3    H181152   4.308   5.133  11.067 -1.2429  1.3405 -0.0597
19887TIP3    H281153   4.193   5.033  11.059  0.1663 -0.3118  0.0177
19888TIP3   OH281154   2.845   4.367   4.656 -0.8015 -0.1039  0.3792
19888TIP3    H181155   2.861   4.458   4.630 -1.1074  0.2374  1.3653
19888TIP3    H281156   2.828   4.371   4.750 -0.1756 -1.2682  0.5581
19889TIP3   OH281157   6.312   3.467  14.596 -0.2670 -0.2144  0.3316
19889TIP3    H181158   6.406   3.463  14.578 -0.3805  0.2742 -0.4248
19889TIP3    H281159   6.277   3.386  14.558 -0.3113  0.1626 -0.4474
19890TIP3   OH281160   4.466   0.107  12.363 -0.3189  0.2629 -0.1472
19890TIP3    H181161   4.400   0.061  12.310 -0.3246 -0.7085  0.6837
19890TIP3    H281162   4.473   0.055  12.443  2.1270 -0.1661 -0.5996
19891TIP3   OH281163   0.465   5.911   4.499 -0.1101  0.1791 -0.3613
19891TIP3    H181164   0.491   5.853   4.571  0.3500 -0.1149 -0.7582
19891TIP3    H281165   0.407   5.857   4.445 -0.0915  0.2503 -0.4533
19892TIP3   OH281166   2.306   2.583  14.514  0.4088 -0.2675 -0.1265
19892TIP3    H181167   2.249   2.595  14.590 -0.3347  0.6256 -0.8022
19892TIP3    H281168   2.245   2.583  14.439  1.1570 -0.8025 -0.7375
19893TIP3   OH281169   5.101   2.769  16.264 -0.4398 -0.2785  0.5291
19893TIP3    H181170   5.147   2.754  16.347 -0.8843 -2.4915  0.3962
19893TIP3    H281171   5.171   2.771  16.198  0.0250  2.5982  1.0428
19894TIP3   OH281172   1.299   2.115   1.115 -0.5139  0.0098 -0.1414
19894TIP3    H181173   1.254   2.086   1.036  0.3035  1.2659 -1.0915
19894TIP3    H281174   1.313   2.209   1.101 -1.0259  0.3964  1.8227
19895TIP3   OH281175   3.018   2.168  11.568  0.5126  0.0672 -0.5154
19895TIP3    H181176   2.972   2.088  11.540  1.7146 -0.6987 -0.2996
19895TIP3    H281177   3.088   2.178  11.504  0.8546  0.5111 -0.0677
19896TIP3   OH281178   3.810   1.803  10.747  0.0836 -0.3143  0.6373
19896TIP3    H181179   3.798   1.708  10.747 -2.0478 -0.1051 -1.4214
19896TIP3    H281180   3.903   1.816  10.731  0.1297 -2.0642 -0.6523
19897TIP3   OH281181   3.305   0.445  16.556  0.0671  0.5885  0.2379
19897TIP3    H181182   3.342   0.479  16.637  0.1056  1.0858  0.0126
19897TIP3    H281183   3.311   0.517  16.494  0.2949  0.1202 -0.2922
19898TIP3   OH281184   1.470   1.430   2.478  0.0960  0.1826 -0.1883
19898TIP3    H181185   1.438   1.368   2.413  0.9964 -1.6006  1.0417
19898TIP3    H281186   1.561   1.404   2.494 -0.8996 -1.2322  3.8269
19899TIP3   OH281187   3.014   3.401   3.515 -0.0670 -0.6230 -0.3718
19899TIP3    H181188   2.981   3.439   3.434 -1.2955  0.3650  0.5689
19899TIP3    H281189   3.102   3.371   3.493 -0.1423  0.2051 -1.9009
19900TIP3   OH281190   3.566   3.179  12.357 -0.7736  0.6293 -0.4274
19900TIP3    H181191   3.590   3.222  12.275 -1.9106 -1.4688 -1.9233
19900TIP3    H281192   3.503   3.111  12.331  1.4743 -2.4235  1.6838
19901TIP3   OH281193   1.362   6.394   6.030 -0.0252  0.4922  0.5186
19901TIP3    H181194   1.352   6.325   5.964 -1.3622  0.7474  0.4351
19901TIP3    H281195   1.379   6.473   5.979 -1.7854  0.8271  0.4129
19902TIP3   OH281196   3.348   0.997   4.143  0.1424 -0.1083  0.8948
19902TIP3    H181197   3.413   0.961   4.203 -1.0818 -1.1796  1.5950
19902TIP3    H281198   3.267   0.951   4.165 -0.6270  0.4865 -0.6457
19903TIP3   OH281199   0.422   4.019  14.513  0.3388  0.2381  0.0606
19903TIP3    H181200   0.486   4.043  14.580 -1.2447  1.0540  1.2981
19903TIP3    H281201   0.358   4.090  14.513 -1.0836 -1.0089 -0.5160
19904TIP3   OH281202   1.220   0.216   5.952  0.2980 -0.1673 -0.4106
19904TIP3    H181203   1.179   0.294   5.989 -0.1091 -0.0881 -1.0333
19904TIP3    H281204   1.205   0.148   6.018 -1.9630 -0.4638 -1.2093
19905TIP3   OH281205   1.770   2.492   4.808 -0.0778  0.3380  0.2486
19905TIP3    H181206   1.710   2.428   4.846 -1.3860  2.0072  1.0485
19905TIP3    H281207   1.857   2.456   4.825 -0.7322 -0.2947  2.3865
19906TIP3   OH281208   2.197   6.365   1.229 -0.3912 -0.5340 -0.0068
19906TIP3    H181209   2.255   6.292   1.208  0.8024  1.3537 -3.6677
19906TIP3    H281210   2.141   6.374   1.152 -1.8502  1.1687  1.2123
19907TIP3   OH281211   1.033   1.225   5.073  0.1790  0.1362  0.3057
19907TIP3    H181212   0.964   1.180   5.121 -0.9821  1.5964  0.0462
19907TIP3    H281213   1.053   1.302   5.126 -0.0950  0.9928 -0.8181
19908TIP3   OH281214   1.897   1.892  14.212 -0.4880  0.5936  0.0892
19908TIP3    H181215   1.981   1.903  14.257  0.5214  0.7406 -1.7821
19908TIP3    H281216   1.835   1.942  14.264  0.3689 -0.3317  2.0662
19909TIP3   OH281217   5.895   5.499  16.866 -0.4953 -0.2173  0.1227
19909TIP3    H181218   5.972   5.462  16.909 -0.4940  1.3808  1.5765
19909TIP3    H281219   5.821   5.453  16.906 -0.4099  0.0175  0.5528
19910TIP3   OH281220   0.711   6.488  12.036 -0.1509  0.3323  0.4513
19910TIP3    H181221   0.731   6.486  12.129 -0.8086 -0.7404  0.5830
19910TIP3    H281222   0.785   6.533  11.996 -0.2325  1.4965  1.5751
19911TIP3   OH281223   6.329   0.834  16.647 -0.2189 -0.0682  0.8438
19911TIP3    H181224   6.412   0.881  16.641 -1.3151  2.0644  2.0634
19911TIP3    H281225   6.307   0.813  16.556  2.7237 -2.6967  0.6073
19912TIP3   OH281226   6.530   3.362   0.258  0.1182 -0.7772 -0.3194
19912TIP3    H181227   6.486   3.447   0.265 -0.2136 -0.7969 -2.1309
19912TIP3    H281228   6.523   3.325   0.346 -1.9984 -0.0297 -0.1467
19913TIP3   OH281229   3.335   1.968  14.662 -0.0679  0.0432  0.1386
19913TIP3    H181230   3.266   1.947  14.724 -1.3211  1.2379 -0.8270
19913TIP3    H281231   3.354   2.060  14.676  0.6568 -0.0398 -0.2541
19914TIP3   OH281232   4.235   4.909   1.154 -0.7885 -0.1741 -0.1139
19914TIP3    H181233   4.259   5.001   1.160 -0.8918 -0.1237 -0.4559
19914TIP3    H281234   4.196   4.889   1.239  1.8828 -0.6729  1.0338
19915TIP3   OH281235   4.052   2.176   1.782  0.1515  0.5502 -0.0229
19915TIP3    H181236   4.020   2.177   1.692  1.1760 -1.3224 -0.4238
19915TIP3    H281237   4.118   2.246   1.785 -0.4065  1.1017 -0.5214
19916TIP3   OH281238   5.685   5.914   6.170 -0.0708  0.0548 -0.2696
19916TIP3    H181239   5.736   5.833   6.177 -1.5323 -0.7083  2.3544
19916TIP3    H281240   5.743   5.975   6.125  0.3641 -2.9888 -4.0396
19917TIP3   OH281241   1.490   3.622   0.080  0.3885 -0.5740  0.2164
19917TIP3    H181242   1.441   3.541   0.094  1.1333 -1.3950 -1.7103
19917TIP3    H281243   1.439   3.670   0.015  1.4305 -0.8274 -0.8070
19918TIP3   OH281244   6.668   6.671   5.879 -0.4331  0.2156  0.2415
19918TIP3    H181245   6.642   6.725   5.954 -0.6327 -0.0065  0.3301
19918TIP3    H281246   6.763   6.685   5.872 -0.2205 -0.6240  1.2276
19919TIP3   OH281247   3.478   6.245   5.346 -0.3067  0.0531  0.2329
19919TIP3    H181248   3.468   6.212   5.257 -0.1760  1.5713 -0.3676
19919TIP3    H281249   3.571   6.231   5.367 -0.0623  0.7830 -0.3307
19920TIP3   OH281250   6.803   6.561  12.041  0.2245 -0.1161 -0.5182
19920TIP3    H181251   6.851   6.527  11.966 -0.9579  1.4021 -2.0162
19920TIP3    H281252   6.711   6.542  12.022 -0.0700  0.1238  0.6255
19921TIP3   OH281253   6.569   3.322  13.817  0.4055 -0.0439 -0.1522
19921TIP3    H181254   6.581   3.230  13.839 -1.7020 -0.7569 -1.7580
19921TIP3    H281255   6.608   3.330  13.730  2.2264  1.0208  0.7569
19922TIP3   OH281256   4.791   4.740   0.074  0.0800 -0.4191 -0.3798
19922TIP3    H181257   4.702   4.769   0.053 -0.1377 -0.8624 -0.0745
19922TIP3    H281258   4.843   4.768  -0.001  0.1247  1.9125  0.5002
19923TIP3   OH281259   5.183   4.256   6.793  0.2924 -0.5002 -0.5119
19923TIP3    H181260   5.172   4.262   6.698 -0.5478 -2.7920 -0.5762
19923TIP3    H281261   5.104   4.297   6.828 -0.3009 -1.3516 -0.8300
19924TIP3   OH281262   1.929   4.199  13.904 -0.0385 -0.4718 -0.2606
19924TIP3    H181263   1.861   4.144  13.943  1.0663 -2.0768 -0.5161
19924TIP3    H281264   1.957   4.149  13.827  1.3125  0.2502 -0.2370
19925TIP3   OH281265   4.590   6.087   0.926  0.0165  0.4294 -0.3906
19925TIP3    H181266   4.653   6.157   0.943 -0.0159  1.0648 -2.7507
19925TIP3    H281267   4.644   6.008   0.919  0.2693  0.5495  0.1685
19926TIP3   OH281268   2.706   1.682  16.974 -0.4281 -0.0144  0.0393
19926TIP3    H181269   2.698   1.724  16.889 -2.9178 -0.4945  0.0266
19926TIP3    H281270   2.744   1.597  16.955  1.9717  1.0581 -0.2209
19927TIP3   OH281271   0.679   5.045   2.639  0.1019  0.2304  0.5629
19927TIP3    H181272   0.687   4.950   2.638 -0.0639  0.2072  1.2155
19927TIP3    H281273   0.609   5.064   2.577  0.6136 -0.0268 -0.0925
19928TIP3   OH281274   2.403   6.519  16.822 -0.3477  0.0226 -0.0753
19928TIP3    H181275   2.476   6.575  16.798 -0.4598 -0.5871 -1.8947
19928TIP3    H281276   2.412   6.442  16.767 -1.2311 -0.9616  1.1060
19929TIP3   OH281277   0.522   4.998  16.791  0.7026  0.0315 -0.2980
19929TIP3    H181278   0.436   5.034  16.812  0.4719 -0.7048  0.0062
19929TIP3    H281279   0.556   5.055  16.722 -0.2151  0.0399 -0.7388
19930TIP3   OH281280   6.263   1.943   2.704  0.7771 -0.1129  0.0013
19930TIP3    H181281   6.335   2.003   2.684  0.8142  0.1347  0.8644
19930TIP3    H281282   6.192   2.000   2.733  0.5685 -0.4325  0.1194
19931TIP3   OH281283   2.302   3.441   1.061 -0.5471  0.8973  0.2739
19931TIP3    H181284   2.358   3.379   1.108 -0.2804  1.5779  0.8747
19931TIP3    H281285   2.235   3.387   1.019  0.1334  0.1407  0.1566
19932TIP3   OH281286   3.241   4.980  12.386  0.4750  0.4626 -0.5196
19932TIP3    H181287   3.309   4.987  12.319 -0.2005 -0.0783 -1.2706
19932TIP3    H281288   3.285   5.003  12.468  1.2243  1.4814 -1.2007
19933TIP3   OH281289   5.336   6.798   5.767  0.3383  0.0063  0.5245
19933TIP3    H181290   5.299   6.764   5.849  0.6185 -0.0669  0.6195
19933TIP3    H281291   5.431   6.794   5.780  0.4061  4.2810  2.0047
19934TIP3   OH281292   5.371   2.210  13.795  0.1763  0.3076  0.2315
19934TIP3    H181293   5.293   2.184  13.747  1.6046  1.0192 -2.5548
19934TIP3    H281294   5.347   2.292  13.839 -1.0259 -0.1591  0.4519
19935TIP3   OH281295   5.808   6.341  14.875 -0.1842 -0.0210 -0.3934
19935TIP3    H181296   5.818   6.292  14.956 -0.1796  0.3634 -0.1617
19935TIP3    H281297   5.824   6.432  14.899 -1.5872  0.2813 -0.5411
19936TIP3   OH281298   5.196   4.323   6.192 -0.5210  0.0124  0.2450
19936TIP3    H181299   5.193   4.392   6.259  2.0389 -0.1601  0.6060
19936TIP3    H281300   5.182   4.242   6.241 -0.1657  0.0150  0.3560
19937TIP3   OH281301   3.895   6.216   6.344  0.1524  0.6993 -0.1686
19937TIP3    H181302   3.984   6.251   6.334  0.7343 -0.7909 -0.3292
19937TIP3    H281303   3.847   6.285   6.388  1.7178  1.0507  1.0336
19938TIP3   OH281304   5.501   0.510  12.341 -0.4537 -0.2092  0.4084
19938TIP3    H181305   5.580   0.457  12.341 -0.0619  0.3670 -0.2049
19938TIP3    H281306   5.429   0.447  12.335 -0.0094 -0.6850  0.0846
19939TIP3   OH281307   1.982   1.032  16.203 -0.1049  0.4479 -0.6429
19939TIP3    H181308   1.934   0.956  16.171 -2.7818  1.8691 -0.1505
19939TIP3    H281309   2.043   0.996  16.268  0.0288 -1.4843 -1.8115
19940TIP3   OH281310   3.330   4.969   5.455 -0.0272 -0.2188 -0.7829
19940TIP3    H181311   3.331   4.986   5.549  0.9750 -1.4311 -0.5706
19940TIP3    H281312   3.282   5.044   5.418  1.4303  1.3870  0.4586
19941TIP3   OH281313   1.302   1.603  17.245 -0.2308 -0.0840 -0.0734
19941TIP3    H181314   1.247   1.544  17.296 -0.6106  0.4122  0.1054
19941TIP3    H281315   1.240   1.667  17.209 -0.0954 -1.0077 -1.9836
19942TIP3   OH281316   1.928   6.712  13.065 -0.4530  0.0830  0.0970
19942TIP3    H181317   1.869   6.638  13.055 -1.0922  0.6629 -0.5433
19942TIP3    H281318   1.881   6.772  13.124  0.5008 -0.4697  1.4209
19943TIP3   OH281319   3.806   5.273  12.880  0.5977 -0.4297  0.0359
19943TIP3    H181320   3.797   5.191  12.832  0.7807  0.2450 -1.1740
19943TIP3    H281321   3.882   5.260  12.936  1.3312 -0.6922 -1.0033
19944TIP3   OH281322   6.634   3.933  13.590  0.0746 -0.2407 -0.5916
19944TIP3    H181323   6.612   3.959  13.680 -0.9093  0.1318 -0.9361
19944TIP3    H281324   6.702   3.867  13.601 -0.1788 -0.3494  0.4473
19945TIP3   OH281325   4.883   1.613  16.735 -0.4979  0.2598  0.2365
19945TIP3    H181326   4.939   1.671  16.683  0.3257 -0.9670 -0.2942
19945TIP3    H281327   4.799   1.613  16.690 -0.0360 -0.1443 -0.6523
19946TIP3   OH281328   1.747   4.774   0.974 -0.4614  0.2350 -0.1873
19946TIP3    H181329   1.727   4.782   1.067 -0.3640 -1.0281 -0.0522
19946TIP3    H281330   1.823   4.716   0.970 -0.5957  0.1099 -1.0591
19947TIP3   OH281331   6.043   2.360   5.124 -0.2203  0.1106  0.1704
19947TIP3    H181332   6.097   2.397   5.194 -0.1976  1.0439 -0.3296
19947TIP3    H281333   6.076   2.401   5.045 -0.5443 -0.6072 -0.3410
19948TIP3   OH281334   0.984   1.770   3.279 -0.0214 -0.9042 -0.0826
19948TIP3    H181335   1.015   1.680   3.270  0.4683 -0.7839  0.3779
19948TIP3    H281336   0.889   1.763   3.275 -0.0609 -1.6581  1.6921
19949TIP3   OH281337   3.915   2.791   3.246 -0.0286  0.0919  0.2434
19949TIP3    H181338   3.975   2.824   3.179  0.1816  0.2666  0.5156
19949TIP3    H281339   3.870   2.869   3.278  0.2430  0.0771  0.6675
19950TIP3   OH281340   0.883   6.070   4.558  0.4295  0.3590 -0.2885
19950TIP3    H181341   0.936   6.077   4.638  0.2980  0.3455 -0.2006
19950TIP3    H281342   0.806   6.124   4.576  0.4564  0.4543 -0.4521
19951TIP3   OH281343   3.063   6.159   5.110  0.2699  0.2777 -0.4253
19951TIP3    H181344   3.067   6.080   5.056  1.0260 -1.1563  1.6735
19951TIP3    H281345   3.078   6.128   5.199 -0.7569  2.6245  0.6030
19952TIP3   OH281346   5.323   5.223  14.811 -0.3698 -0.4491  0.2210
19952TIP3    H181347   5.390   5.220  14.743  0.1868 -0.8200  0.7842
19952TIP3    H281348   5.245   5.258  14.766 -0.1012 -0.9875 -0.6737
19953TIP3   OH281349   2.514   5.760  12.886  0.3446 -0.3814  0.0581
19953TIP3    H181350   2.545   5.850  12.885 -0.8943  0.0682  1.2004
19953TIP3    H281351   2.563   5.719  12.958  2.3943 -1.1874 -1.7360
19954TIP3   OH281352   2.526   5.356  17.221  0.2151  0.2173 -0.4422
19954TIP3    H181353   2.445   5.314  17.248  0.9599  0.6475  2.6551
19954TIP3    H281354   2.595   5.311  17.270  1.7043  0.8468 -1.8749
19955TIP3   OH281355   1.093   2.375  16.518  0.2881 -0.0964  0.2064
19955TIP3    H181356   1.026   2.429  16.561 -1.2630 -0.4302 -1.7026
19955TIP3    H281357   1.139   2.435  16.460  0.6971 -0.1596  0.4660
19956TIP3   OH281358   5.548   3.615   1.913 -0.2987 -0.3824  0.3677
19956TIP3    H181359   5.488   3.544   1.890  0.3888 -1.0432  0.5950
19956TIP3    H281360   5.624   3.571   1.949  0.0240  0.4908  0.7664
19957TIP3   OH281361   4.289   6.132  15.469  0.2195 -0.2377  0.0376
19957TIP3    H181362   4.219   6.087  15.516  2.7524 -1.7619  2.5472
19957TIP3    H281363   4.280   6.103  15.378 -1.7012 -1.2564  0.5218
19958TIP3   OH281364   4.655   6.074  13.903 -0.0460 -0.4837 -0.5371
19958TIP3    H181365   4.587   6.071  13.970 -0.0167 -0.2994 -0.4993
19958TIP3    H281366   4.735   6.047  13.948  0.0674  0.1172 -0.3799
19959TIP3   OH281367   0.577   1.042   1.365 -0.0331 -0.0684 -0.2555
19959TIP3    H181368   0.655   0.994   1.337 -0.0185 -1.3221  1.7851
19959TIP3    H281369   0.504   0.993   1.327  0.0252 -1.1591  1.0201
19960TIP3   OH281370   4.997   3.884  15.082 -0.8189  0.0350  0.1544
19960TIP3    H181371   4.994   3.970  15.039  0.3422  0.9257  1.7890
19960TIP3    H281372   4.907   3.865  15.106 -1.1325  0.6454 -0.5367
19961TIP3   OH281373   2.769   0.246  16.863 -0.3383  0.5458 -0.7483
19961TIP3    H181374   2.838   0.207  16.917 -1.9019  1.1166  1.7542
19961TIP3    H281375   2.702   0.178  16.858 -0.6651  0.8946 -1.0675
19962TIP3   OH281376   0.377   5.618   5.178 -0.2145  0.1544 -0.4104
19962TIP3    H181377   0.319   5.541   5.175 -1.2175  0.9230 -1.0260
19962TIP3    H281378   0.398   5.629   5.270  0.6835 -1.4064 -0.3969
19963TIP3   OH281379   5.313   4.368  16.701 -0.2671 -0.2268  0.3141
19963TIP3    H181380   5.245   4.315  16.658 -0.4447 -0.5801  1.0225
19963TIP3    H281381   5.325   4.326  16.786  0.9067 -0.2179  0.1558
19964TIP3   OH281382   0.318   2.154   1.647  0.7207 -0.8117  0.2360
19964TIP3    H181383   0.281   2.187   1.729  2.8103 -1.1042  1.3382
19964TIP3    H281384   0.273   2.071   1.632 -0.3462 -0.3107  0.5642
19965TIP3   OH281385   3.924   2.053   5.544 -0.2174 -0.0305 -0.0952
19965TIP3    H181386   3.883   1.972   5.576  0.7244  0.0777  1.4510
19965TIP3    H281387   4.001   2.024   5.495  0.7383 -0.0512  1.3884
19966TIP3   OH281388   0.375   4.319   3.093 -0.1198  0.3363  0.7397
19966TIP3    H181389   0.281   4.305   3.092 -0.0229 -0.3974 -1.0485
19966TIP3    H281390   0.413   4.233   3.106  0.2965  0.7588  2.3699
19967TIP3   OH281391   5.071   4.054  12.264  0.3847 -0.1616  0.2051
19967TIP3    H181392   4.998   4.048  12.325  1.1170 -0.9162  1.0167
19967TIP3    H281393   5.071   3.970  12.218  0.9831 -0.3165  0.4857
19968TIP3   OH281394   5.727   2.060   5.290 -0.0799 -0.3745  0.4506
19968TIP3    H181395   5.801   2.009   5.324  2.4821  2.0786 -1.2518
19968TIP3    H281396   5.710   2.125   5.358 -0.7853 -1.0179  0.8977
19969TIP3   OH281397   1.351   0.300   4.498  0.2060  0.0624  0.1649
19969TIP3    H181398   1.325   0.300   4.590 -1.6319 -0.6937 -0.3318
19969TIP3    H281399   1.383   0.212   4.481  0.8946  0.3054  0.1520
19970TIP3   OH281400   5.323   6.620  12.801  0.2999  0.1410 -0.2871
19970TIP3    H181401   5.384   6.684  12.839  1.0958 -0.9957  0.4276
19970TIP3    H281402   5.380   6.549  12.771 -0.4792  0.2881 -2.1205
19971TIP3   OH281403   1.760   0.582  13.047 -0.6324 -0.0538  0.0097
19971TIP3    H181404   1.722   0.507  13.000 -1.3804 -0.8071  1.7860
19971TIP3    H281405   1.695   0.652  13.036 -0.4900 -0.0196 -0.6415
19972TIP3   OH281406   3.957   6.776  13.035  0.5179  0.3101 -0.3354
19972TIP3    H181407   3.864   6.759  13.050 -0.1232  1.2163 -2.9998
19972TIP3    H281408   3.981   6.840  13.102 -0.2310 -1.4763  1.6880
19973TIP3   OH281409   4.633   2.907   1.671 -0.0090 -0.5848  0.1119
19973TIP3    H181410   4.683   2.893   1.591  1.0074 -0.7944  0.7741
19973TIP3    H281411   4.636   3.001   1.686 -1.2568 -0.3985 -0.7666
19974TIP3   OH281412   4.829   4.144   4.532  0.1404  0.1219  0.5397
19974TIP3    H181413   4.862   4.099   4.610  0.6012 -0.0585  0.2376
19974TIP3    H281414   4.907   4.168   4.483 -0.1943 -1.3583 -0.7647
19975TIP3   OH281415   3.972   6.088   1.452  0.9892 -0.1841 -0.4598
19975TIP3    H181416   4.064   6.063   1.449  1.2259  0.7574 -1.2202
19975TIP3    H281417   3.973   6.184   1.451 -0.0752 -0.1738 -3.2732
19976TIP3   OH281418   3.533   6.418   6.401 -0.4044 -0.5033 -0.3415
19976TIP3    H181419   3.508   6.327   6.389  1.2888 -1.0209 -0.1242
19976TIP3    H281420   3.452   6.467   6.389 -1.1174 -1.9434 -1.6191
19977TIP3   OH281421   4.305   2.053  11.951 -0.2570  0.2864  0.6676
19977TIP3    H181422   4.309   1.958  11.961 -1.1448 -0.0733 -2.1688
19977TIP3    H281423   4.212   2.075  11.962 -0.1256  0.7792  0.8254
19978TIP3   OH281424   3.784   1.596  16.184 -0.6137  0.2813  0.1770
19978TIP3    H181425   3.857   1.658  16.178 -1.2549  1.0654  0.4661
19978TIP3    H281426   3.753   1.588  16.094  0.2292 -0.5434 -0.0497
19979TIP3   OH281427   6.471   2.719   1.825 -0.1821 -0.1792  0.1424
19979TIP3    H181428   6.510   2.671   1.751  0.8289  0.5011  0.2194
19979TIP3    H281429   6.535   2.709   1.896 -0.9174 -0.4113  0.7770
19980TIP3   OH281430   5.682   5.975  12.921  1.1172  0.0844  0.1883
19980TIP3    H181431   5.715   6.059  12.954 -2.6063  2.3870 -1.5737
19980TIP3    H281432   5.652   5.929  12.999  2.3391  0.7649  1.0817
19981TIP3   OH281433   0.138   5.198   2.374  0.2101  0.2491 -0.4158
19981TIP3    H181434   0.088   5.121   2.402  1.8083 -0.6122  0.1479
19981TIP3    H281435   0.170   5.236   2.456  0.6432  0.6703 -0.7793
19982TIP3   OH281436   4.058   4.452   2.804 -0.0848 -0.1448  0.8219
19982TIP3    H181437   4.028   4.543   2.808  1.2297  0.3701 -0.5366
19982TIP3    H281438   3.981   4.402   2.778 -0.3682  0.8194 -0.1936
19983TIP3   OH281439   5.297   4.706  12.151 -0.3782 -0.4109  0.3608
19983TIP3    H181440   5.320   4.715  12.058 -1.2709 -0.2940  0.1444
19983TIP3    H281441   5.244   4.784  12.170  1.1088  0.3895  1.3894
19984TIP3   OH281442   0.079   2.176  15.854 -0.8798 -0.4246  0.0002
19984TIP3    H181443   0.030   2.198  15.775 -0.6562 -0.7728 -0.2378
19984TIP3    H281444   0.012   2.160  15.920 -1.0208  2.7165  0.6591
19985TIP3   OH281445   2.809   3.078   3.831 -0.5205 -0.5502 -0.3376
19985TIP3    H181446   2.762   3.105   3.752 -1.4143 -0.2409  0.2870
19985TIP3    H281447   2.742   3.037   3.886  0.0822 -0.7306  0.2744
19986TIP3   OH281448   5.014   2.819  13.758  0.0478 -0.0213  0.2224
19986TIP3    H181449   4.928   2.857  13.779  0.3181  0.6522  0.1172
19986TIP3    H281450   4.995   2.727  13.740 -0.4671 -0.1946  1.5742
19987TIP3   OH281451   1.905   2.952  11.871 -0.3539 -0.3114 -0.4603
19987TIP3    H181452   1.883   2.984  11.958 -2.8142  0.5474 -1.3491
19987TIP3    H281453   1.926   2.860  11.884 -0.9963 -0.2604  1.0165
19988TIP3   OH281454   6.021   3.621  11.068 -0.0199 -0.7674 -0.0802
19988TIP3    H181455   6.006   3.544  11.013 -0.1157 -0.7864 -0.0284
19988TIP3    H281456   6.116   3.626  11.077 -0.0057 -0.7846 -0.2192
19989TIP3   OH281457   2.443   3.775  13.775 -0.2387 -0.4932 -0.1484
19989TIP3    H181458   2.396   3.696  13.746 -0.0353 -0.9880  0.8309
19989TIP3    H281459   2.536   3.750  13.771 -0.1951 -0.4669  0.6063
19990TIP3   OH281460   3.013   3.233  11.315 -0.2379  0.9015  0.3529
19990TIP3    H181461   3.005   3.149  11.270 -0.7848  0.7402  0.7577
19990TIP3    H281462   3.011   3.211  11.408  0.7241  1.2547  0.4610
19991TIP3   OH281463   4.953   1.900  12.835  0.3874 -0.9012 -0.3733
19991TIP3    H181464   4.958   1.926  12.743 -0.5690  2.5458  0.4430
19991TIP3    H281465   5.043   1.906  12.867  0.2705  1.0963 -0.3419
19992TIP3   OH281466   1.582   4.571   5.802  0.4169  0.2974  0.3362
19992TIP3    H181467   1.596   4.665   5.814 -1.0263  0.4535  0.8299
19992TIP3    H281468   1.668   4.532   5.818  1.1314  1.5650 -0.2968
19993TIP3   OH281469   4.120   6.350  11.917 -0.2570 -0.2838 -0.4044
19993TIP3    H181470   4.166   6.430  11.892  0.3534 -0.2785  0.6953
19993TIP3    H281471   4.183   6.302  11.971 -1.6968 -0.0339  1.5598
19994TIP3   OH281472   3.758   2.158  16.089  0.1573  0.2368 -0.0425
19994TIP3    H181473   3.714   2.156  16.004 -2.5993 -0.4754  1.3744
19994TIP3    H281474   3.707   2.219  16.142 -0.1379 -1.8835  2.1792
19995TIP3   OH281475   0.183   1.312   2.485  1.0123 -0.2627  0.1519
19995TIP3    H181476   0.100   1.319   2.532  0.6380 -1.4120 -0.3022
19995TIP3    H281477   0.249   1.345   2.546  0.3170 -0.0912  0.8143
19996TIP3   OH281478   2.752   2.097   3.346  0.0671 -0.4121 -0.4733
19996TIP3    H181479   2.776   2.151   3.271 -2.2798 -1.3467 -1.9740
19996TIP3    H281480   2.804   2.017   3.336 -0.8224 -0.8653 -1.5797
19997TIP3   OH281481   3.915   2.340  15.404 -0.0007  0.0606  0.6320
19997TIP3    H181482   3.992   2.363  15.456  0.0573  1.2471  0.0258
19997TIP3    H281483   3.947   2.338  15.314 -0.4426 -0.5154  0.4846
19998TIP3   OH281484   3.827   6.505  16.837  0.4250  0.4405  0.7529
19998TIP3    H181485   3.855   6.420  16.873  0.5181 -0.0439 -0.4359
19998TIP3    H281486   3.823   6.490  16.743 -1.4774  1.2051  0.7010
19999TIP3   OH281487   3.804   4.498  15.597 -0.9561 -0.1381 -0.0331
19999TIP3    H181488   3.783   4.577  15.647 -0.3972  0.4498 -0.7139
19999TIP3    H281489   3.754   4.429  15.640  0.9942 -0.0396  2.6183
20000TIP3   OH281490   3.215   4.869  17.225 -0.3523  0.3126 -0.1587
20000TIP3    H181491   3.301   4.827  17.231 -1.3336 -1.8294 -0.5549
20000TIP3    H281492   3.225   4.952  17.271  1.9733  0.1590 -0.3492
20001TIP3   OH281493   1.507   4.604   5.133 -0.4371 -0.6253  0.4061
20001TIP3    H181494   1.590   4.579   5.092 -1.0585 -0.6439 -0.8524
20001TIP3    H281495   1.498   4.544   5.207 -1.0950 -3.0600 -1.5920
20002TIP3   OH281496   5.154   2.566  10.355 -0.4561 -0.6287 -0.0011
20002TIP3    H181497   5.123   2.629  10.421 -0.0511 -0.7596  0.3156
20002TIP3    H281498   5.214   2.509  10.403  1.4831  0.5819 -0.9779
20003TIP3   OH281499   5.293   3.198  12.407  0.0628 -0.0610 -0.1330
20003TIP3    H181500   5.356   3.235  12.345  0.0009  1.4484  0.6878
20003TIP3    H281501   5.230   3.151  12.353  2.1572 -2.0360 -0.9511
20004TIP3   OH281502   0.352   2.193  11.069 -0.2629 -0.4858  0.3112
20004TIP3    H181503   0.379   2.186  10.978  0.9863  1.3081  0.5250
20004TIP3    H281504   0.433   2.184  11.119 -0.5960  0.9402  1.1397
20005TIP3   OH281505   1.105   5.325   4.987 -0.1646 -0.2482 -0.2506
20005TIP3    H181506   1.025   5.306   5.035 -0.3317  0.1850 -0.3486
20005TIP3    H281507   1.174   5.281   5.036  0.1364  2.8610  2.2657
20006TIP3   OH281508   6.101   4.091  11.484 -0.1764  0.4682  0.0640
20006TIP3    H181509   6.015   4.065  11.519  0.3129 -1.3663 -0.0566
20006TIP3    H281510   6.158   4.016  11.503  0.9586  0.9138 -1.5122
20007TIP3   OH281511   6.075   4.935  12.540  0.5170 -0.5201  0.0114
20007TIP3    H181512   6.027   4.893  12.468  1.2678 -2.0900  0.4129
20007TIP3    H281513   6.007   4.968  12.598 -0.0993  0.5480 -1.2926
20008TIP3   OH281514   5.241   1.539  16.449  0.7355 -0.1192 -0.3858
20008TIP3    H181515   5.250   1.511  16.540  3.1758 -0.5272 -0.7190
20008TIP3    H281516   5.330   1.537  16.414 -0.1779 -0.0733 -2.8224
20009TIP3   OH281517   3.374   5.702   2.060 -0.0075  0.4436 -0.1234
20009TIP3    H181518   3.464   5.720   2.032  0.9793  1.2183  3.2115
20009TIP3    H281519   3.375   5.611   2.089 -0.2507  0.5016  0.0736
20010TIP3   OH281520   3.984   5.199  11.441 -0.0942 -0.3909  0.4370
20010TIP3    H181521   4.069   5.185  11.400  0.2591  1.9312  0.2795
20010TIP3    H281522   3.920   5.184  11.371  0.1905 -1.7651  0.4616
20011TIP3   OH281523   1.880   3.491  16.595  0.1805 -0.1404  0.4455
20011TIP3    H181524   1.831   3.437  16.657  1.1371 -1.4593  0.0829
20011TIP3    H281525   1.852   3.458  16.509  0.4099  0.2660  0.2136
20012TIP3   OH281526   4.615   5.050   0.104  0.6551 -0.0078  0.2630
20012TIP3    H181527   4.603   4.987   0.033 -0.9771  1.8930 -1.1873
20012TIP3    H281528   4.584   5.133   0.069  0.6992  1.1776  2.8811
20013TIP3   OH281529   3.364   5.881  16.905  0.2839  0.5010  0.5761
20013TIP3    H181530   3.283   5.831  16.915 -0.5813  1.5229 -1.0606
20013TIP3    H281531   3.336   5.972  16.908  1.2304  0.8628 -0.9775
20014TIP3   OH281532   1.225   6.586   7.028  1.2137  0.1482 -0.2548
20014TIP3    H181533   1.220   6.668   6.978 -1.1341  0.7849  0.9923
20014TIP3    H281534   1.174   6.523   6.977 -0.7254  0.6559  1.0131
20015TIP3   OH281535   6.667   1.426  15.239 -0.3038 -0.4063 -0.0466
20015TIP3    H181536   6.728   1.479  15.188 -1.3072 -0.8293 -1.7248
20015TIP3    H281537   6.672   1.462  15.327  1.1405  0.6227 -0.5290
20016TIP3   OH281538   3.380   4.360  12.549 -0.4856 -0.1264  0.0433
20016TIP3    H181539   3.413   4.428  12.491  0.7715 -2.0467 -1.5242
20016TIP3    H281540   3.290   4.388  12.570  0.3701  2.5678  0.3543
20017TIP3   OH281541   2.812   3.918   0.020 -0.1449  0.0609  0.4314
20017TIP3    H181542   2.789   3.946   0.109 -0.9266 -0.2597  0.3342
20017TIP3    H281543   2.742   3.858  -0.005  1.9537 -2.6790  0.9569
20018TIP3   OH281544   0.361   4.322  15.177 -0.1761  0.2466 -0.2583
20018TIP3    H181545   0.368   4.351  15.268  0.6756 -0.9599  0.0690
20018TIP3    H281546   0.321   4.235  15.183 -2.1613  1.0633 -1.1877
20019TIP3   OH281547   6.206   0.726  15.186  0.5596  0.2935  0.1576
20019TIP3    H181548   6.294   0.706  15.153  0.4244  0.2299 -0.1597
20019TIP3    H281549   6.222   0.767  15.272  0.9464  1.2539 -0.3631
20020TIP3   OH281550   0.468   3.000   0.772  0.1974  0.1794 -0.3926
20020TIP3    H181551   0.547   3.030   0.728  1.0794 -1.8823 -0.2861
20020TIP3    H281552   0.448   2.916   0.731 -2.0230  0.7145 -0.5000
20021TIP3   OH281553   0.528   5.095  10.933 -0.2268  0.4155 -0.0917
20021TIP3    H181554   0.616   5.062  10.919 -1.4837 -2.1382 -2.6063
20021TIP3    H281555   0.527   5.181  10.889  1.0511  0.5980  0.2214
20022TIP3   OH281556   3.419   2.343  13.831  0.1851 -0.2224 -0.2693
20022TIP3    H181557   3.494   2.386  13.789  0.3268 -0.1105  0.1023
20022TIP3    H281558   3.445   2.332  13.922 -0.7539  0.9691  0.1566
20023TIP3   OH281559   5.814   6.490   0.090  0.7001  0.0622  0.1620
20023TIP3    H181560   5.751   6.492   0.017  1.6650  1.0019 -0.6512
20023TIP3    H281561   5.861   6.407   0.078 -0.7475 -0.9228  1.1027
20024TIP3   OH281562   5.394   4.855  16.882  0.1129  0.2577 -0.4980
20024TIP3    H181563   5.457   4.803  16.932 -0.6399 -0.6487 -0.4691
20024TIP3    H281564   5.418   4.841  16.791  1.0998  1.4113 -0.4302
20025TIP3   OH281565   3.810   6.609   0.692  0.0807 -0.2103  0.4724
20025TIP3    H181566   3.760   6.527   0.695  0.6513 -0.5027  3.7472
20025TIP3    H281567   3.743   6.678   0.691 -0.3838 -0.6627  0.2983
20026TIP3   OH281568   3.451   0.658   0.440  0.9555 -0.2253 -0.3285
20026TIP3    H181569   3.403   0.637   0.520 -0.1232 -3.2629 -1.6794
20026TIP3    H281570   3.542   0.669   0.468  0.2437  0.9021  1.5988
20027TIP3   OH281571   6.055   1.642  16.841 -0.2157 -0.4013 -0.0541
20027TIP3    H181572   6.009   1.725  16.834  0.9163  0.1144 -1.4744
20027TIP3    H281573   6.013   1.598  16.916 -0.5153  1.6105  1.0010
20028TIP3   OH281574   3.214   4.850  15.364 -0.4946 -0.7880  0.0741
20028TIP3    H181575   3.191   4.763  15.395 -0.2918 -0.4086  1.3410
20028TIP3    H281576   3.150   4.870  15.296 -1.5332 -1.2782  0.8889
20029TIP3   OH281577   6.423   3.570  12.798  0.1138 -0.5599 -0.4014
20029TIP3    H181578   6.447   3.597  12.886  0.4790  1.0091 -0.9653
20029TIP3    H281579   6.449   3.478  12.793  2.5359  0.0563  0.2590
20030TIP3   OH281580   4.864   5.571   4.822 -0.2444  0.0003  0.0153
20030TIP3    H181581   4.883   5.510   4.750  1.1012  1.6792 -1.0873
20030TIP3    H281582   4.783   5.537   4.860  0.5312 -2.5404 -0.4849
20031TIP3   OH281583   1.972   2.048   1.321 -0.4564 -0.6387 -0.4503
20031TIP3    H181584   2.025   2.097   1.384  0.2187 -1.7909 -0.1011
20031TIP3    H281585   2.036   2.001   1.268 -1.0310  0.3104 -1.9886
20032TIP3   OH281586   2.305   3.642   0.369 -0.0474 -0.4524  0.2762
20032TIP3    H181587   2.270   3.588   0.440  0.9928  1.2257  2.0722
20032TIP3    H281588   2.234   3.703   0.348 -0.9542 -1.9946 -1.2619
20033TIP3   OH281589   4.534   4.521  12.811 -0.1939  0.4395  0.4330
20033TIP3    H181590   4.573   4.487  12.891 -1.5167  1.5140  1.5348
20033TIP3    H281591   4.590   4.486  12.741  0.3366 -1.3785  1.7303
20034TIP3   OH281592   0.485   0.517  11.150  0.4070  0.3947  0.3634
20034TIP3    H181593   0.420   0.449  11.132  0.2613  0.5934  0.1289
20034TIP3    H281594   0.433   0.596  11.164  0.5927  0.5249  0.3147
20035TIP3   OH281595   6.513   5.283   4.040 -0.1596 -0.3166 -0.7463
20035TIP3    H181596   6.570   5.234   3.981  0.7562 -1.1563  0.8215
20035TIP3    H281597   6.525   5.242   4.125 -1.9956  0.4458 -0.1007
20036TIP3   OH281598   1.134   1.017   3.691  0.1028 -0.2401 -1.3840
20036TIP3    H181599   1.080   1.096   3.697 -0.1646 -0.2656 -3.2648
20036TIP3    H281600   1.168   1.018   3.602  0.7526 -1.8477 -1.1714
20037TIP3   OH281601   2.867   0.577   5.479  0.0113  0.1532 -0.2665
20037TIP3    H181602   2.834   0.495   5.517 -0.1486  1.1035  1.6817
20037TIP3    H281603   2.950   0.593   5.525 -0.9107  2.0910  0.7888
20038TIP3   OH281604   4.547   1.460  10.268 -0.3467 -0.3584 -0.0904
20038TIP3    H181605   4.538   1.524  10.340  1.6356 -0.3441  0.1886
20038TIP3    H281606   4.470   1.474  10.214 -1.0128  0.8275  1.1168
20039TIP3   OH281607   3.562   6.592   5.043  0.0375  0.1296  0.1552
20039TIP3    H181608   3.643   6.540   5.052  0.6697  1.3188  1.7299
20039TIP3    H281609   3.492   6.532   5.069  0.4879 -0.6921 -0.5004
20040TIP3   OH281610   0.913   0.087   1.453 -0.7470 -0.0367 -0.0049
20040TIP3    H181611   0.927   0.012   1.512 -2.4483  0.8537  1.5822
20040TIP3    H281612   0.884   0.047   1.371 -0.2129 -1.1932  0.3456
20041TIP3   OH281613   5.637   2.566  13.539  0.3930 -0.1575 -0.2889
20041TIP3    H181614   5.600   2.638  13.589 -0.7382 -1.0508  0.1847
20041TIP3    H281615   5.695   2.521  13.600 -0.3387 -0.7505 -0.0292
20042TIP3   OH281616   5.316   6.073   1.172 -0.1417  0.0681 -0.6812
20042TIP3    H181617   5.269   6.022   1.106 -0.0265  0.5426 -1.1357
20042TIP3    H281618   5.247   6.106   1.230 -0.1642 -1.1078 -0.0185
20043TIP3   OH281619   5.294   5.208  11.514 -0.6162 -0.3698  0.0269
20043TIP3    H181620   5.344   5.138  11.470 -1.1070 -1.1334  0.6796
20043TIP3    H281621   5.311   5.286  11.461 -0.1214 -0.9988 -0.7536
20044TIP3   OH281622   6.444   0.271  15.155  0.3934  0.2991 -0.4415
20044TIP3    H181623   6.382   0.201  15.131 -1.8477  1.6419  1.1852
20044TIP3    H281624   6.516   0.226  15.198 -1.4440 -0.9924  1.3821
20045TIP3   OH281625   4.804   6.302  15.404  0.0593 -0.2490 -0.2973
20045TIP3    H181626   4.786   6.378  15.460 -1.9406  0.5477 -1.9485
20045TIP3    H281627   4.891   6.273  15.430  0.0232  1.3737  1.7663
20046TIP3   OH281628   3.910   4.092  14.417  0.2025 -0.0899 -0.2000
20046TIP3    H181629   3.870   4.171  14.381 -0.0349 -0.3386 -0.4831
20046TIP3    H281630   4.003   4.113  14.425  0.3936 -0.3256 -1.7497
20047TIP3   OH281631   0.626   2.354   1.205  0.3669 -0.1659 -0.0846
20047TIP3    H181632   0.558   2.418   1.225 -0.6546 -0.8967 -1.1226
20047TIP3    H281633   0.653   2.321   1.291  0.1390  0.8734  0.3930
20048TIP3   OH281634   5.403   1.610   4.377 -0.4521 -0.0647 -0.1566
20048TIP3    H181635   5.381   1.547   4.446  0.8799 -0.1920  0.1672
20048TIP3    H281636   5.335   1.677   4.382  0.5957  0.8703  2.4746
20049TIP3   OH281637   0.580   0.725   0.343 -0.2372 -0.3884  0.0081
20049TIP3    H181638   0.668   0.709   0.309 -0.5651 -0.5840 -0.7524
20049TIP3    H281639   0.573   0.821   0.347  0.1496 -0.3751  0.4475
20050TIP3   OH281640   4.621   4.815  11.879 -0.1777  0.6209  0.2081
20050TIP3    H181641   4.639   4.738  11.934 -1.5331  0.0538 -0.1130
20050TIP3    H281642   4.587   4.881  11.940  0.4871  0.7869  0.4019
20051TIP3   OH281643   4.000   3.820  14.558  0.5248 -0.5325  0.1374
20051TIP3    H181644   3.988   3.840  14.651 -0.7834 -1.2208  0.1189
20051TIP3    H281645   3.914   3.833  14.519  1.4998  1.8423 -1.3958
20052TIP3   OH281646   1.500   4.932  13.777  0.3044  0.6288  0.2791
20052TIP3    H181647   1.468   4.869  13.842  1.0383  0.6155  0.6247
20052TIP3    H281648   1.431   4.999  13.773 -1.1216 -0.8766 -1.0773
20053TIP3   OH281649   1.899   4.681   2.296  0.2895  0.1465  0.1533
20053TIP3    H181650   1.988   4.670   2.329 -0.5217  0.4216  2.5393
20053TIP3    H281651   1.843   4.651   2.368 -1.5447 -2.6102 -2.2737
20054TIP3   OH281652   2.771   5.278   0.644  0.5151  0.3631 -0.3155
20054TIP3    H181653   2.704   5.216   0.672  0.4401  0.9880  0.9147
20054TIP3    H281654   2.780   5.338   0.717  2.0665  0.5775 -0.6656
20055TIP3   OH281655   3.875   3.301   2.921 -0.3124  0.0298 -0.2001
20055TIP3    H181656   3.960   3.258   2.909 -0.3708 -0.0118 -0.4605
20055TIP3    H281657   3.888   3.359   2.995 -0.2686 -0.5408  0.2478
20056TIP3   OH281658   5.203   0.169   0.084  0.2155  0.0289  0.2890
20056TIP3    H181659   5.279   0.141   0.033  0.7728  1.6139  0.2106
20056TIP3    H281660   5.142   0.204   0.019  0.0890  0.2244  0.5115
20057TIP3   OH281661   4.192   2.252  14.566 -0.0767 -0.3950  0.4090
20057TIP3    H181662   4.160   2.167  14.538 -0.5869 -0.0356 -0.1238
20057TIP3    H281663   4.125   2.284  14.627  1.2367 -1.3631  2.4154
20058TIP3   OH281664   1.826   6.678  13.970  0.0785  0.8050 -0.0691
20058TIP3    H181665   1.882   6.601  13.972  1.8182  2.0170 -0.5616
20058TIP3    H281666   1.781   6.677  14.055 -1.4613 -1.8133 -0.8568
20059TIP3   OH281667   6.036   1.264   0.407  0.2636  0.1604  0.0999
20059TIP3    H181668   6.013   1.334   0.468  1.4089  0.0984  0.6173
20059TIP3    H281669   6.064   1.309   0.327  1.9378  0.3428  0.7634
20060TIP3   OH281670   1.141   0.081   0.312  0.0453  0.1038 -0.4044
20060TIP3    H181671   1.149  -0.013   0.325  0.9538  0.0890 -1.1080
20060TIP3    H281672   1.117   0.091   0.220 -0.9300  0.5218 -0.1188
20061TIP3   OH281673   3.110   4.160  13.642  0.1667 -0.1379 -0.0213
20061TIP3    H181674   3.049   4.203  13.582  0.6058 -0.3898 -0.6662
20061TIP3    H281675   3.192   4.208  13.630 -0.0938  0.6758  1.3942
20062TIP3   OH281676   3.348   3.294  13.465  0.3667 -0.5663 -0.4044
20062TIP3    H181677   3.253   3.296  13.470  0.4787  1.4539  1.7695
20062TIP3    H281678   3.373   3.218  13.518  0.0251 -0.2698  0.1828
20063TIP3   OH281679   3.845   2.512   3.626  0.2232  0.2095 -0.3925
20063TIP3    H181680   3.750   2.505   3.617  0.3547 -0.1394 -1.5781
20063TIP3    H281681   3.863   2.606   3.617 -0.2316  0.5797  2.2413
20064TIP3   OH281682   0.168   0.802   5.936 -0.0440  0.0234  0.0175
20064TIP3    H181683   0.249   0.851   5.947  0.3153 -0.5093 -0.2319
20064TIP3    H281684   0.195   0.710   5.940 -0.7316 -0.1584  0.6489
20065TIP3   OH281685   0.631   6.096  16.714  0.3110  0.4596 -0.0595
20065TIP3    H181686   0.594   6.151  16.645 -1.5159  0.7724  1.1196
20065TIP3    H281687   0.679   6.028  16.667  0.0754  1.3279 -1.5999
20066TIP3   OH281688   0.101   1.200  14.207  0.2710  0.1522 -0.1945
20066TIP3    H181689   0.153   1.168  14.281  0.1166  0.6613  0.1347
20066TIP3    H281690   0.154   1.180  14.130  2.0151  2.7169  0.2979
20067TIP3   OH281691   5.461   1.435   0.183  0.2460  0.5531 -0.2599
20067TIP3    H181692   5.417   1.504   0.233  0.4913  0.7906 -0.3679
20067TIP3    H281693   5.476   1.365   0.246 -2.3209 -0.4772 -0.7334
20068TIP3   OH281694   3.811   1.374   2.177 -0.4036 -0.4118 -0.2292
20068TIP3    H181695   3.877   1.309   2.154  0.1836  0.4183 -0.9194
20068TIP3    H281696   3.800   1.363   2.271  0.0527 -1.1706 -0.2516
20069TIP3   OH281697   3.219   1.220  12.697  0.3711  0.0803  0.0716
20069TIP3    H181698   3.292   1.178  12.652 -0.0494 -0.1187 -0.4308
20069TIP3    H281699   3.195   1.159  12.766  0.6182  0.1026  0.1768
20070TIP3   OH281700   6.139   4.701  14.042  0.2806 -0.1016  0.2692
20070TIP3    H181701   6.049   4.685  14.071  0.5844 -0.4538  1.0372
20070TIP3    H281702   6.142   4.795  14.027 -0.8300 -0.3709 -1.9049
20071TIP3   OH281703   4.053   6.066  11.434 -0.0713 -0.8169 -0.0918
20071TIP3    H181704   3.981   6.124  11.458  0.3425  0.5021 -1.8761
20071TIP3    H281705   4.108   6.119  11.376  1.6332 -2.2162  0.1931
20072TIP3   OH281706   5.489   0.044  13.149  0.0441  0.2272 -0.1575
20072TIP3    H181707   5.523   0.007  13.068  2.1880 -0.7351  1.1577
20072TIP3    H281708   5.419  -0.015  13.175  1.2225 -1.0355  0.1679
20073TIP3   OH281709   3.284   3.895  13.857 -0.0165  1.0300  0.2317
20073TIP3    H181710   3.265   3.804  13.879  0.0870  1.4729  2.2053
20073TIP3    H281711   3.379   3.898  13.847 -0.0534  0.8537 -0.1811
20074TIP3   OH281712   4.244   0.713  14.606  0.0005 -0.2569 -0.3110
20074TIP3    H181713   4.173   0.659  14.640 -1.9453  2.1488 -0.4470
20074TIP3    H281714   4.278   0.662  14.532 -1.1721 -1.7311  0.1268
20075TIP3   OH281715   2.729   3.749  15.034 -0.0832  0.0625 -0.4011
20075TIP3    H181716   2.788   3.774  14.963  0.5047 -0.8867 -0.2511
20075TIP3    H281717   2.714   3.655  15.021 -0.1703 -0.0644  0.5860
20076TIP3   OH281718   4.158   6.400  14.627 -0.6626  0.5389 -0.0146
20076TIP3    H181719   4.228   6.365  14.572 -1.1083 -0.2978 -0.0657
20076TIP3    H281720   4.083   6.410  14.567 -0.4267  1.9806 -0.0900
20077TIP3   OH281721   3.525   4.244   4.649  0.0251  0.3036  0.0941
20077TIP3    H181722   3.552   4.197   4.728  1.1066  1.5529  0.5043
20077TIP3    H281723   3.604   4.250   4.596 -0.5436  0.0402 -0.7931
20078TIP3   OH281724   2.408   5.453   1.023  0.1876 -0.5873  0.2404
20078TIP3    H181725   2.343   5.388   1.050 -0.5019  0.0195  0.0449
20078TIP3    H281726   2.368   5.537   1.045  0.6517 -0.1903 -0.4443
20079TIP3   OH281727   4.084   5.210   6.044 -0.3049  0.4383 -0.1631
20079TIP3    H181728   4.078   5.280   5.980  0.5832  1.7747  1.1930
20079TIP3    H281729   4.166   5.165   6.023 -0.3846  0.4087 -0.4117
20080TIP3   OH281730   2.430   3.524   4.540  0.2567 -0.2170  0.4132
20080TIP3    H181731   2.468   3.465   4.475  0.0717  0.8571 -0.7033
20080TIP3    H281732   2.477   3.607   4.527 -0.3278  0.2316  1.1104
20081TIP3   OH281733   5.676   5.482  15.748  0.2206  0.6792  0.3485
20081TIP3    H181734   5.722   5.410  15.706  0.8804  1.5597 -0.4714
20081TIP3    H281735   5.583   5.462  15.734  0.3888 -0.1842  0.4407
20082TIP3   OH281736   5.853   6.813  12.298  0.6352  0.1786 -0.3226
20082TIP3    H181737   5.793   6.757  12.347 -2.7526  1.7820 -2.4337
20082TIP3    H281738   5.908   6.752  12.249 -0.4406 -1.3423  0.3413
20083TIP3   OH281739   6.049   0.360  13.429 -0.4197  0.5094 -0.3435
20083TIP3    H181740   6.106   0.435  13.414  0.6155 -0.4445 -1.2905
20083TIP3    H281741   5.968   0.398  13.465  0.0511  2.0668 -0.8780
20084TIP3   OH281742   0.389   1.795  15.940  0.3338  0.5271  0.6296
20084TIP3    H181743   0.446   1.817  15.867 -1.6085  0.1990 -1.0249
20084TIP3    H281744   0.363   1.704  15.924 -0.9335  0.7810  1.1669
20085TIP3   OH281745   3.606   4.205  16.019  0.1940 -0.4515  0.2367
20085TIP3    H181746   3.523   4.199  16.066  0.9122 -0.7358  1.5074
20085TIP3    H281747   3.606   4.293  15.981 -0.2169 -0.0524  1.1475
20086TIP3   OH281748   1.869   6.051   2.799 -0.0808 -0.3499 -0.2500
20086TIP3    H181749   1.964   6.052   2.806 -0.0081 -2.0297 -0.7518
20086TIP3    H281750   1.839   6.092   2.880  1.0498 -1.2629  0.6535
20087TIP3   OH281751   3.415   4.638   6.127  0.3847 -0.0113 -0.1223
20087TIP3    H181752   3.373   4.585   6.059  0.5949 -1.1462  0.6054
20087TIP3    H281753   3.417   4.580   6.204  2.0868  0.4719  0.2214
20088TIP3   OH281754   5.077   3.356   0.464  0.2143 -0.4251 -1.3373
20088TIP3    H181755   5.097   3.382   0.554 -1.6099 -0.0208 -1.0455
20088TIP3    H281756   5.097   3.433   0.412  0.7427 -0.4789 -1.2215
20089TIP3   OH281757   5.527   3.942  12.750  0.2390 -0.1455 -0.1089
20089TIP3    H181758   5.507   3.933  12.843 -0.8241 -1.8177 -0.4706
20089TIP3    H281759   5.492   4.028  12.725  0.0747  0.0843  0.9129
20090TIP3   OH281760   5.370   0.188  15.448 -0.3274 -0.3148  0.3996
20090TIP3    H181761   5.427   0.262  15.471  0.0306 -0.6001  0.4366
20090TIP3    H281762   5.286   0.228  15.425 -0.5520  0.0185  1.7447
20091TIP3   OH281763   4.018   6.069  15.053  0.1136  0.0151  0.1343
20091TIP3    H181764   3.994   5.977  15.046  1.4373 -0.2978 -0.5009
20091TIP3    H281765   3.998   6.093  15.144 -0.7144 -0.7534  0.1528
20092TIP3   OH281766   1.848   0.398   4.766 -0.2634  0.1296  0.0397
20092TIP3    H181767   1.795   0.335   4.718  0.8913 -0.8976  0.0818
20092TIP3    H281768   1.838   0.481   4.718  0.1299 -0.6598 -1.4186
20093TIP3   OH281769   1.646   3.805   2.615 -0.0615  0.3323 -0.0023
20093TIP3    H181770   1.581   3.862   2.576 -1.6522 -0.9234  0.7563
20093TIP3    H281771   1.688   3.859   2.682 -1.5005  0.6453  0.6711
20094TIP3   OH281772   2.837   1.762   5.947  0.0562 -0.0215 -0.9353
20094TIP3    H181773   2.818   1.802   6.032  2.3991 -2.3297  0.7572
20094TIP3    H281774   2.931   1.774   5.935  0.1888 -1.9387 -1.9947
20095TIP3   OH281775   0.369   0.691  15.773 -0.2493 -0.1227 -0.0957
20095TIP3    H181776   0.416   0.636  15.711  1.5510 -0.3432  1.4323
20095TIP3    H281777   0.287   0.713  15.728  1.1886  0.0815 -2.7100
20096TIP3   OH281778   4.369   1.303   1.491  0.1432 -0.2059 -0.0536
20096TIP3    H181779   4.332   1.294   1.403 -1.2712  1.0350  0.3842
20096TIP3    H281780   4.445   1.360   1.479 -1.1189  1.4735 -0.2175
20097TIP3   OH281781   6.773   1.875   2.103 -0.0031 -0.6549 -0.6173
20097TIP3    H181782   6.862   1.911   2.107  0.2701 -1.3909  0.1863
20097TIP3    H281783   6.718   1.949   2.078  0.4673  0.5003  1.5877
20098TIP3   OH281784   2.879   6.643  15.864  0.2876 -0.2991  0.2662
20098TIP3    H181785   2.967   6.627  15.898  0.5205  0.0554 -0.1624
20098TIP3    H281786   2.823   6.643  15.942  0.9569  1.5368  0.7778
20099TIP3   OH281787   5.991   1.300  15.847  0.4566  0.3042  0.4406
20099TIP3    H181788   5.974   1.246  15.925  0.5543  0.6848  0.7290
20099TIP3    H281789   5.911   1.350  15.835  0.8610  1.0741  0.9675
20100TIP3   OH281790   0.043   6.210  11.532 -0.2006 -0.6327  0.2258
20100TIP3    H181791   0.128   6.221  11.575 -0.0268 -0.4660 -0.1612
20100TIP3    H281792   0.030   6.115  11.530 -0.2792 -0.6341  0.7840
20101TIP3   OH281793   5.608   3.733  11.711 -0.2859 -0.2174  0.6312
20101TIP3    H181794   5.614   3.817  11.666 -1.6694 -0.5663 -0.2459
20101TIP3    H281795   5.693   3.692  11.697 -0.0962  0.4401 -0.1686
20102TIP3   OH281796   3.238   4.015   0.415 -0.3162 -0.1152  0.2789
20102TIP3    H181797   3.196   4.057   0.340 -0.8553  2.3563  1.8931
20102TIP3    H281798   3.327   3.996   0.385 -0.0268  2.2887 -0.5154
20103TIP3   OH281799   3.427   4.918   1.074 -0.8730 -0.0651 -0.4164
20103TIP3    H181800   3.414   4.823   1.078 -1.5088 -0.0137 -1.2302
20103TIP3    H281801   3.341   4.956   1.089 -0.2461  0.4591  2.1473
20104TIP3   OH281802   6.603   2.785   0.365  0.0126 -0.3969 -0.5438
20104TIP3    H181803   6.686   2.776   0.412 -1.0342  0.1963  1.4789
20104TIP3    H281804   6.543   2.725   0.409 -1.3120  1.0246 -0.3414
20105TIP3   OH281805   0.381   0.340  17.008 -0.4042 -0.4406 -0.1215
20105TIP3    H181806   0.360   0.369  16.919  0.7568 -0.6754 -0.4731
20105TIP3    H281807   0.461   0.288  16.999 -0.1633 -0.2948  1.0872
20106TIP3   OH281808   5.028   6.471  14.300  0.6024  0.2075 -0.3546
20106TIP3    H181809   5.008   6.522  14.378 -0.8014 -0.4252 -0.2826
20106TIP3    H281810   5.034   6.536  14.230  0.1828  0.6112 -0.0201
20107TIP3   OH281811   6.144   5.580   3.228  0.9122  0.5321  0.4004
20107TIP3    H181812   6.155   5.659   3.281  1.9496  0.8270 -0.2199
20107TIP3    H281813   6.057   5.589   3.190  2.0743  2.8530 -1.9568
20108TIP3   OH281814   0.864   1.962   1.584 -0.0699 -0.2328 -0.4489
20108TIP3    H181815   0.780   1.945   1.627  0.1727 -1.4958 -0.4589
20108TIP3    H281816   0.924   1.896   1.620  0.8185  0.3981 -0.7425
20109TIP3   OH281817   5.366   1.241   2.248  0.4727  0.6319 -0.3628
20109TIP3    H181818   5.351   1.176   2.180 -3.1573  1.0303 -0.0543
20109TIP3    H281819   5.420   1.309   2.207  0.5576 -0.4268 -1.9968
20110TIP3   OH281820   0.865   1.411  11.588 -0.1900  0.3350 -0.6504
20110TIP3    H181821   0.928   1.387  11.655 -0.7506 -0.9773 -0.5873
20110TIP3    H281822   0.824   1.491  11.621  0.8338  0.7284 -0.3034
20111TIP3   OH281823   4.605   4.299  11.842  0.1570  0.0575  0.5908
20111TIP3    H181824   4.515   4.265  11.849 -0.4666  1.6165  0.4333
20111TIP3    H281825   4.613   4.324  11.749  0.6125  0.2776  0.6886
20112TIP3   OH281826   2.870   0.999   2.306 -0.3556 -0.4778  1.2352
20112TIP3    H181827   2.827   0.919   2.277 -0.1860 -1.0472  2.5048
20112TIP3    H281828   2.866   1.057   2.231 -1.2603 -1.3682  0.5779
20113TIP3   OH281829   4.845   0.325  15.585  0.5126  0.1492 -0.0435
20113TIP3    H181830   4.896   0.248  15.560 -0.0424 -0.4513  0.6483
20113TIP3    H281831   4.850   0.383  15.509  2.0575  0.0201 -0.0532
20114TIP3   OH281832   3.057   2.513  14.365 -0.2525 -0.3484  0.0456
20114TIP3    H181833   3.087   2.426  14.390 -1.9094 -0.4075  1.8730
20114TIP3    H281834   3.008   2.499  14.284  1.3022 -0.7735 -0.8556
20115TIP3   OH281835   1.214   0.199   1.604  0.5627 -0.3634  0.1293
20115TIP3    H181836   1.150   0.152   1.549  1.3481 -1.9833  0.5853
20115TIP3    H281837   1.278   0.133   1.629  1.4304  0.8556  1.2012
20116TIP3   OH281838   1.634   0.444  12.831  0.3691 -0.5723 -0.0480
20116TIP3    H181839   1.541   0.458  12.848  0.6855 -0.0067  1.2356
20116TIP3    H281840   1.657   0.510  12.766  0.1729  0.1237  0.5910
20117TIP3   OH281841   3.308   3.201  15.814 -0.7251  0.4823 -0.5974
20117TIP3    H181842   3.288   3.204  15.907  0.0910 -0.5152 -0.3770
20117TIP3    H281843   3.230   3.164  15.774 -0.7059 -0.0096 -0.1857
20118TIP3   OH281844   3.076   3.068   5.619  0.3791  0.1903 -0.3239
20118TIP3    H181845   3.103   3.130   5.550  0.3820 -0.3726 -0.8334
20118TIP3    H281846   3.020   3.005   5.573  0.7900 -0.4835  0.0901
20119TIP3   OH281847   4.643   5.563   3.732 -0.0366 -0.2578 -0.5689
20119TIP3    H181848   4.595   5.642   3.756  0.4795 -0.2781  0.5449
20119TIP3    H281849   4.729   5.574   3.773 -0.7166 -2.4397  1.5375
20120TIP3   OH281850   2.504   3.023   0.565  0.2369 -0.1071  0.1780
20120TIP3    H181851   2.568   2.967   0.520  1.8731  1.2268  0.7612
20120TIP3    H281852   2.458   3.068   0.494  1.4163  0.4892 -0.2266
20121TIP3   OH281853   0.901   3.954  13.449 -0.1925  0.9548 -0.4243
20121TIP3    H181854   0.980   3.904  13.466 -0.5338  1.3064  2.4332
20121TIP3    H281855   0.928   4.045  13.460 -0.6220  1.1606 -1.0618
20122TIP3   OH281856   6.613   6.690  14.541  0.2269 -0.5454 -0.7505
20122TIP3    H181857   6.642   6.770  14.585  2.3236 -1.6706  0.0040
20122TIP3    H281858   6.693   6.652  14.506 -0.7293 -2.3692 -0.9985
20123TIP3   OH281859   6.568   3.199  11.885  0.4887 -0.5142 -0.8161
20123TIP3    H181860   6.512   3.259  11.935  0.8164  0.1521 -1.2331
20123TIP3    H281861   6.533   3.112  11.903  1.8652 -0.4844  2.1792
20124TIP3   OH281862   4.036   2.341   4.490  0.6041 -0.4278 -0.1967
20124TIP3    H181863   3.963   2.371   4.545  0.9689  1.2970 -0.6508
20124TIP3    H281864   4.056   2.415   4.433  0.8216 -1.8831 -2.0720
20125TIP3   OH281865   5.326   3.057  11.524 -0.5271  0.0308  0.1534
20125TIP3    H181866   5.267   3.020  11.590  0.2134  0.0250  0.8116
20125TIP3    H281867   5.402   3.000  11.524  1.0265  2.0476  1.8277
20126TIP3   OH281868   1.546   0.849   3.031 -0.1692 -0.4527  0.7658
20126TIP3    H181869   1.545   0.781   2.964 -1.6568 -4.0533  4.2074
20126TIP3    H281870   1.617   0.824   3.090  0.4983  2.0862  1.0888
20127TIP3   OH281871   5.591   5.115  17.108  0.0078 -0.0193  0.1265
20127TIP3    H181872   5.535   5.099  17.183  0.3321  0.4108  0.4604
20127TIP3    H281873   5.678   5.087  17.136  0.3260  1.0763  0.2648
20128TIP3   OH281874   0.240   0.315  11.718 -0.4727 -0.2344  0.8915
20128TIP3    H181875   0.158   0.280  11.754  0.6810 -0.7015  3.1250
20128TIP3    H281876   0.284   0.356  11.792  0.8120  1.0210 -0.5313
20129TIP3   OH281877   1.048   3.077  13.835  0.1091 -0.6405  0.6670
20129TIP3    H181878   1.040   3.173  13.839  0.0911 -0.6262  0.3142
20129TIP3    H281879   1.089   3.060  13.750 -0.2545 -0.9696  0.5559
20130TIP3   OH281880   2.453   5.290  12.593 -0.5770 -0.3842 -0.0416
20130TIP3    H181881   2.541   5.290  12.632 -0.4092  4.4175 -0.1048
20130TIP3    H281882   2.465   5.251  12.507  1.1639 -1.2361  0.5509
20131TIP3   OH281883   1.970   5.905   6.614 -0.1088 -0.4677 -0.1069
20131TIP3    H181884   1.903   5.943   6.671  1.7284  0.8824  1.2118
20131TIP3    H281885   1.930   5.903   6.527 -1.2748  1.8732  0.3356
20132TIP3   OH281886   3.867   6.789  10.502 -0.5706 -0.2249 -0.2312
20132TIP3    H181887   3.791   6.731  10.497 -0.3591 -0.4078 -1.3043
20132TIP3    H281888   3.901   6.792  10.413  0.0600  0.6942  0.0346
20133TIP3   OH281889   0.270   1.044   2.464  0.2551  0.1183 -0.2333
20133TIP3    H181890   0.257   1.138   2.478  0.9838 -0.1887  2.9286
20133TIP3    H281891   0.183   1.006   2.470 -0.0244  0.5785 -1.3859
20134TIP3   OH281892   5.898   3.895  14.804 -0.2275 -0.3428  0.2496
20134TIP3    H181893   5.838   3.969  14.813  1.2070  1.1051 -1.7737
20134TIP3    H281894   5.860   3.842  14.734 -0.7213 -0.9962  1.0103
20135TIP3   OH281895   3.750   2.544   1.617  0.4222  0.6900  0.5295
20135TIP3    H181896   3.695   2.602   1.669  1.4371  0.3927  1.9544
20135TIP3    H281897   3.732   2.456   1.651 -0.8840  0.1646 -1.4098
20136TIP3   OH281898   6.410   6.430  17.128 -0.7669 -0.1980 -0.7181
20136TIP3    H181899   6.338   6.419  17.189  0.0309  0.1697  0.2962
20136TIP3    H281900   6.388   6.509  17.079 -1.1375 -0.1796 -0.5178
20137TIP3   OH281901   2.037   0.127   1.454  0.2838 -0.3554  0.0797
20137TIP3    H181902   2.107   0.110   1.391 -0.6179  1.8057 -1.5714
20137TIP3    H281903   2.050   0.219   1.480 -2.0640  0.1400 -0.4191
20138TIP3   OH281904   2.865   1.171  11.958 -0.1036  0.6446 -0.2382
20138TIP3    H181905   2.859   1.216  12.042 -1.3336  0.6056 -0.3067
20138TIP3    H281906   2.807   1.096  11.966  0.8748 -0.1761 -0.6280
20139TIP3   OH281907   3.911   3.901  14.810 -0.1216  0.8909  0.4883
20139TIP3    H181908   3.940   3.942  14.891  0.0664 -1.0302  1.4161
20139TIP3    H281909   3.846   3.962  14.774  0.4272  2.1642  1.6277
20140TIP3   OH281910   4.867   1.339  13.150  0.4023  0.3222  0.1458
20140TIP3    H181911   4.947   1.382  13.119 -0.3041  0.7914 -1.0648
20140TIP3    H281912   4.896   1.255  13.184  1.4422  0.5739 -0.1103
20141TIP3   OH281913   6.337   1.796  14.127 -0.2740 -0.1193 -0.0428
20141TIP3    H181914   6.430   1.777  14.140 -0.3724  0.6609  2.1347
20141TIP3    H281915   6.297   1.776  14.212 -1.7092  1.6489 -0.2694
20142TIP3   OH281916   3.913   1.383   0.351  0.2760  0.6803 -0.0996
20142TIP3    H181917   3.901   1.383   0.446  0.4469  1.4077 -0.0775
20142TIP3    H281918   3.992   1.435   0.336  2.0479 -2.0098 -0.4285
20143TIP3   OH281919   5.658   1.540  13.630 -0.4040  0.1454  0.2254
20143TIP3    H181920   5.576   1.533  13.678  0.1551 -2.4346  0.8936
20143TIP3    H281921   5.633   1.529  13.538 -1.1757  2.6953  0.1024
20144TIP3   OH281922   2.103   5.991  13.090 -0.1150  0.1708  0.1322
20144TIP3    H181923   2.183   6.011  13.139 -0.3481  0.4724  0.3954
20144TIP3    H281924   2.057   5.927  13.145  0.1469 -0.3265 -0.2227
20145TIP3   OH281925   2.577   2.164   2.196  0.1419  0.6908  0.6902
20145TIP3    H181926   2.584   2.102   2.268  0.0504  1.0164  0.9829
20145TIP3    H281927   2.510   2.128   2.139 -0.1876  0.7163  1.0601
20146TIP3   OH281928   2.389   0.218  14.332 -0.5324 -0.0648  0.3167
20146TIP3    H181929   2.310   0.272  14.337 -0.2141  0.3097  1.6208
20146TIP3    H281930   2.376   0.151  14.399  1.5042  1.7110  2.5603
20147TIP3   OH281931   6.091   1.866  16.500 -0.4351 -0.1691 -0.3536
20147TIP3    H181932   6.164   1.922  16.528 -0.8980  0.2524  0.0263
20147TIP3    H281933   6.107   1.782  16.544 -1.6298  0.7521  1.9619
20148TIP3   OH281934   4.029   4.039   5.238  0.3392 -0.7740  0.0172
20148TIP3    H181935   4.019   4.024   5.144  0.9315 -2.0520  0.1471
20148TIP3    H281936   4.054   3.953   5.273  0.3008 -0.2628  1.3124
20149TIP3   OH281937   4.903   6.053   1.120 -0.0540 -0.0809  0.7288
20149TIP3    H181938   4.866   6.000   1.049  0.5012 -1.0109  1.1143
20149TIP3    H281939   4.957   6.119   1.076  1.7032 -1.7320  0.2979
20150TIP3   OH281940   3.239   5.475   3.552  0.3125  0.3248 -0.4278
20150TIP3    H181941   3.325   5.450   3.586  1.2084  2.3622 -1.1001
20150TIP3    H281942   3.195   5.519   3.625 -0.3092 -1.0512  0.0287
20151TIP3   OH281943   5.125   3.478   5.362 -0.0652  0.1178  0.1498
20151TIP3    H181944   5.182   3.514   5.294  1.2329 -1.6120  0.2874
20151TIP3    H281945   5.179   3.478   5.441 -1.1332  0.9018  0.8959
20152TIP3   OH281946   5.896   1.429   4.738  0.2234 -0.4127  0.3761
20152TIP3    H181947   5.878   1.336   4.733  1.2551 -0.5798 -0.7004
20152TIP3    H281948   5.862   1.465   4.655  1.7932 -0.2184 -0.2096
20153TIP3   OH281949   0.674   2.297  15.149  0.7304  0.0766 -0.3798
20153TIP3    H181950   0.634   2.214  15.121  0.2354  0.3228 -0.4221
20153TIP3    H281951   0.624   2.322  15.227 -0.5465  1.4149 -1.6111
20154TIP3   OH281952   0.646   4.653  14.077 -0.4133  0.0742  1.0001
20154TIP3    H181953   0.715   4.642  14.142  1.1244 -0.0454 -0.6226
20154TIP3    H281954   0.613   4.564  14.061  2.5877 -0.6237 -1.9470
20155TIP3   OH281955   4.152   5.524   5.543  0.6953  0.0060 -0.1172
20155TIP3    H181956   4.197   5.598   5.583 -0.8031  0.5146  0.6568
20155TIP3    H281957   4.080   5.563   5.493  0.0561 -0.9076  0.0743
20156TIP3   OH281958   6.492   4.150   4.493  0.1109  0.1651 -0.0366
20156TIP3    H181959   6.432   4.131   4.565 -0.5474  1.1243 -0.3372
20156TIP3    H281960   6.438   4.145   4.414  1.1003 -2.2574 -0.6227
20157TIP3   OH281961   0.515   0.798  14.466 -0.0222  0.2236 -0.4638
20157TIP3    H181962   0.531   0.751  14.548 -1.3768 -0.1787 -0.4179
20157TIP3    H281963   0.517   0.890  14.490 -2.5324  0.0852  0.4617
20158TIP3   OH281964   5.762   5.112   0.211 -0.2689 -0.2472 -0.2927
20158TIP3    H181965   5.746   5.162   0.291 -0.3618 -1.1215  0.2414
20158TIP3    H281966   5.726   5.026   0.229  1.7396 -1.1477 -0.4212
20159TIP3   OH281967   4.928   1.734   2.383  0.0626  0.1376  0.1327
20159TIP3    H181968   4.947   1.821   2.416 -0.5681  0.6612 -0.8663
20159TIP3    H281969   4.908   1.682   2.461 -0.1299  1.0297  0.6794
20160TIP3   OH281970   0.190   2.752   2.227 -0.0865  0.1121  0.3004
20160TIP3    H181971   0.267   2.808   2.240 -1.2617  1.5891  1.0380
20160TIP3    H281972   0.226   2.668   2.199  1.7657  0.9586  0.0767
20161TIP3   OH281973   1.395   4.029  11.983  0.5731  0.4519  0.0520
20161TIP3    H181974   1.418   3.977  11.906  1.4116 -0.3031  0.7928
20161TIP3    H281975   1.379   3.965  12.052 -0.3349  1.1146  0.4667
20162TIP3   OH281976   2.152   5.452  16.949 -0.0453  0.2393 -0.5701
20162TIP3    H181977   2.245   5.433  16.946  0.2905  1.8149 -0.4338
20162TIP3    H281978   2.116   5.389  17.012  1.1195  0.3986  0.2624
20163TIP3   OH281979   3.754   3.384  15.887  0.5297  0.1150  0.4137
20163TIP3    H181980   3.844   3.409  15.865  0.3859 -0.8821 -1.4641
20163TIP3    H281981   3.759   3.290  15.907 -0.0246  0.1421  0.6861
20164TIP3   OH281982   3.547   4.867  14.862  0.2483 -0.0102 -0.1864
20164TIP3    H181983   3.494   4.833  14.933 -0.1180  2.2482  0.6660
20164TIP3    H281984   3.484   4.891  14.793  0.4925 -0.9742 -0.7505
20165TIP3   OH281985   0.712   0.152  15.838  0.1436  0.0368  0.3664
20165TIP3    H181986   0.730   0.119  15.750  2.0225  0.9437  0.3769
20165TIP3    H281987   0.667   0.080  15.882  0.2058 -0.8453 -0.9758
20166TIP3   OH281988   1.919   5.865   3.607 -0.3888  0.0698 -0.0627
20166TIP3    H181989   1.919   5.955   3.576 -0.9241 -0.1621 -0.7441
20166TIP3    H281990   1.866   5.867   3.687 -1.2993  0.1627 -0.6653
20167TIP3   OH281991   5.860   3.522  12.328  0.2670 -0.3585 -0.0361
20167TIP3    H181992   5.818   3.597  12.370  1.0253  0.0898 -0.0850
20167TIP3    H281993   5.793   3.453  12.332 -0.1951  0.1121  0.5975
20168TIP3   OH281994   4.284   4.532   0.800 -0.3425  0.4641  0.0129
20168TIP3    H181995   4.270   4.564   0.889 -1.6420 -1.3569  0.5098
20168TIP3    H281996   4.368   4.486   0.804  0.1179  1.2847  0.0092
20169TIP3   OH281997   6.323   2.892  13.510  0.5082 -0.4686  1.2505
20169TIP3    H181998   6.400   2.944  13.490 -0.2264 -0.1144 -0.7900
20169TIP3    H281999   6.345   2.804  13.480 -0.1078 -0.2273  0.0722
20170TIP3   OH282000   2.926   4.031  14.232 -0.0036 -0.3154 -0.3465
20170TIP3    H182001   2.896   3.940  14.236  1.2488 -0.7365 -0.2753
20170TIP3    H282002   2.984   4.041  14.308 -0.0860  0.5337 -0.3874
20171TIP3   OH282003   4.440   1.495  11.244 -0.0715 -0.1345 -0.4682
20171TIP3    H182004   4.459   1.462  11.156 -0.8281 -1.9992  0.0392
20171TIP3    H282005   4.392   1.576  11.229 -1.1105 -0.9665 -1.8056
20172TIP3   OH282006   2.522   2.406   3.421 -0.4485 -0.4168  0.1634
20172TIP3    H182007   2.474   2.424   3.502  1.2330  1.3316  0.8110
20172TIP3    H282008   2.496   2.477   3.361  1.2034  0.4736  0.4804
20173TIP3   OH282009   1.089   3.493  11.749 -0.1228  0.5178 -0.5983
20173TIP3    H182010   1.043   3.512  11.667  1.1576 -3.9297 -2.5178
20173TIP3    H282011   1.172   3.538  11.741 -0.9237  1.9939 -0.7185
20174TIP3   OH282012   5.386   1.626  11.005  0.4967 -0.2278 -0.0135
20174TIP3    H182013   5.387   1.691  10.935  0.2080  0.4370  0.5891
20174TIP3    H282014   5.298   1.633  11.043  0.8444 -0.1698  0.7956
20175TIP3   OH282015   3.141   1.643  14.384 -0.2399  0.1808 -0.0395
20175TIP3    H182016   3.096   1.588  14.448 -0.3381  2.1259  1.6251
20175TIP3    H282017   3.071   1.683  14.334 -0.1522 -1.7444 -1.7749
20176TIP3   OH282018   3.641   3.775  15.327 -0.1843 -0.3605 -0.0601
20176TIP3    H182019   3.630   3.691  15.282  0.9023 -0.3803 -0.3116
20176TIP3    H282020   3.665   3.836  15.257  0.4698 -0.1634  0.3347
20177TIP3   OH282021   1.897   4.855  14.546  0.2498  0.3944 -0.5787
20177TIP3    H182022   1.817   4.888  14.505  0.5176  1.2446 -0.4260
20177TIP3    H282023   1.884   4.870  14.640 -0.3412 -1.5039 -0.3410
20178TIP3   OH282024   2.151   5.969  13.702 -0.2837  0.1812  0.3371
20178TIP3    H182025   2.058   5.947  13.694 -0.2549  0.3606 -0.4990
20178TIP3    H282026   2.160   6.053  13.658  0.2154  0.3321  0.7185
20179TIP3   OH282027   1.579   2.063   2.800  0.0296 -0.4393  0.8147
20179TIP3    H182028   1.633   2.132   2.762 -1.4677 -0.2944 -1.0951
20179TIP3    H282029   1.601   2.065   2.893  1.3234  1.4017  0.5067
20180TIP3   OH282030   6.134   2.250  11.422  0.1270  0.2496  0.1560
20180TIP3    H182031   6.157   2.215  11.336  1.6446  2.6908 -0.4936
20180TIP3    H282032   6.046   2.286  11.410 -1.4486 -3.1134  0.8266
20181TIP3   OH282033   3.415   5.656   6.484  0.4944  0.5963  0.4901
20181TIP3    H182034   3.380   5.570   6.509  1.5364  0.4704  1.5558
20181TIP3    H282035   3.350   5.718   6.517  1.6039  0.4072  3.1753
20182TIP3   OH282036   0.446   2.416  11.715  0.3916  0.4666  0.1384
20182TIP3    H182037   0.484   2.503  11.728 -1.6695  1.3570  0.3999
20182TIP3    H282038   0.521   2.357  11.709  1.7786  2.0896  1.2958
20183TIP3   OH282039   4.920   4.614   5.494  0.0215  0.4246  0.8266
20183TIP3    H182040   4.825   4.614   5.505  0.0640 -1.9661  1.4343
20183TIP3    H282041   4.939   4.531   5.452  2.0278  0.0363  2.4468
20184TIP3   OH282042   4.020   0.674   6.713  0.0938 -0.0586 -0.3897
20184TIP3    H182043   4.037   0.583   6.686 -0.0849  0.0387 -0.8451
20184TIP3    H282044   3.947   0.702   6.657 -0.1466  0.2210  0.0631
20185TIP3   OH282045   1.212   1.291   5.323  0.4767 -0.2652  0.0379
20185TIP3    H182046   1.238   1.285   5.231  2.1452  0.2664  0.4572
20185TIP3    H282047   1.249   1.212   5.363  2.2449  0.9446  0.8246
20186TIP3   OH282048   3.301   4.103  15.770  0.2234 -0.2277  0.1789
20186TIP3    H182049   3.225   4.145  15.729  1.2992  1.9084  0.2873
20186TIP3    H282050   3.372   4.117  15.708  0.6908 -1.6391  0.3773
20187TIP3   OH282051   0.476   1.580  11.277 -0.2478  0.4244  0.0714
20187TIP3    H182052   0.458   1.499  11.229 -1.0133  0.8025 -0.2852
20187TIP3    H282053   0.553   1.559  11.330 -0.5393 -0.5859  0.1120
20188TIP3   OH282054   3.707   5.929   3.886  0.4503 -0.9942  0.0307
20188TIP3    H182055   3.792   5.967   3.867 -0.3241 -0.6200 -2.9618
20188TIP3    H282056   3.725   5.836   3.902  1.5221 -0.7513  0.2583
20189TIP3   OH282057   3.355   6.019   5.845 -0.2582  0.1122  0.2202
20189TIP3    H182058   3.328   5.941   5.796  0.1877 -1.0931  1.8354
20189TIP3    H282059   3.446   6.033   5.820 -0.5440  0.5403 -0.5988
20190TIP3   OH282060   4.386   4.333  15.221 -0.3939 -0.2814 -0.3585
20190TIP3    H182061   4.364   4.304  15.309  0.4550 -2.8848 -0.9418
20190TIP3    H282062   4.365   4.426  15.219 -0.3938 -0.1943  2.5898
20191TIP3   OH282063   4.836   6.555   2.491 -0.2917  0.4066  0.5843
20191TIP3    H182064   4.836   6.524   2.582  1.0583 -0.0435  0.4433
20191TIP3    H282065   4.833   6.650   2.498 -0.3300  0.3696  1.0963
20192TIP3   OH282066   4.595   6.462   3.355  0.1285 -0.1604 -0.5032
20192TIP3    H182067   4.577   6.465   3.449  2.4498  1.1249 -0.0491
20192TIP3    H282068   4.615   6.370   3.338  1.2312 -0.1418  0.5911
20193TIP3   OH282069   2.735   5.997   2.497  0.4152  0.0074  0.1971
20193TIP3    H182070   2.771   5.999   2.408 -0.6582  0.5857 -0.2410
20193TIP3    H282071   2.783   5.928   2.541 -0.7683 -2.0355 -1.5990
20194TIP3   OH282072   5.956   4.568   5.269  0.2742  0.0628 -0.5464
20194TIP3    H182073   6.000   4.497   5.316 -0.0303 -0.2959 -0.8053
20194TIP3    H282074   5.920   4.624   5.339  0.0608 -0.3198 -0.3512
20195TIP3   OH282075   6.810   2.916   6.512  0.4940  0.0463 -0.2785
20195TIP3    H182076   6.874   2.874   6.569  0.1176  0.4549  0.4602
20195TIP3    H282077   6.777   2.845   6.457  0.2469 -0.5308  0.5997
20196TIP3   OH282078   3.399   6.160   2.553  0.3422 -0.3445 -0.2522
20196TIP3    H182079   3.367   6.226   2.492  1.3410 -0.3983 -0.8535
20196TIP3    H282080   3.391   6.200   2.639  0.6303  0.4337 -0.5844
20197TIP3   OH282081   3.340   1.906   2.739 -0.1548  0.2112  0.2829
20197TIP3    H182082   3.349   1.952   2.656  0.0637 -1.7998 -0.8438
20197TIP3    H282083   3.247   1.881   2.743  0.1582 -1.0355 -0.1006
20198TIP3   OH282084   0.227   1.663  13.749  0.0060  0.2461 -0.1245
20198TIP3    H182085   0.296   1.600  13.726 -0.0754 -0.4018  1.3807
20198TIP3    H282086   0.192   1.691  13.664  2.0822  0.5471 -0.9116
20199TIP3   OH282087   5.016   1.878   5.868  0.0636  0.3528  0.5980
20199TIP3    H182088   4.970   1.868   5.785 -3.0337  1.0198  2.1426
20199TIP3    H282089   5.005   1.970   5.890  1.0329  0.2237  1.6408
20200TIP3   OH282090   6.813   0.759   0.199 -0.4168  0.1030  0.5799
20200TIP3    H182091   6.802   0.666   0.218 -0.6937 -0.4615 -2.1253
20200TIP3    H282092   6.854   0.761   0.112 -0.8577  2.5117  0.3929
20201TIP3   OH282093   4.408   0.621  16.639 -0.2943 -0.1739 -0.1398
20201TIP3    H182094   4.501   0.639  16.656 -0.1166  0.7192 -1.9691
20201TIP3    H282095   4.408   0.555  16.570 -1.0208  0.1786 -0.4814
20202TIP3   OH282096   1.387   1.640   1.228 -0.2255 -0.0867 -0.7289
20202TIP3    H182097   1.297   1.670   1.241 -0.1184  0.9006 -2.1541
20202TIP3    H282098   1.386   1.550   1.260 -1.9484 -0.3832 -1.5247
20203TIP3   OH282099   2.442   1.952  11.160  0.4263  0.8226  0.1160
20203TIP3    H182100   2.527   1.994  11.145  1.1673 -1.6677 -3.0044
20203TIP3    H282101   2.457   1.860  11.142 -2.7933  0.2200  0.2672
20204TIP3   OH282102   0.565   6.769   1.757  0.9109  0.0913  0.4981
20204TIP3    H182103   0.499   6.699   1.759  1.1486 -0.1222  1.7671
20204TIP3    H282104   0.527   6.836   1.700  0.2979 -0.7058 -0.0548
20205TIP3   OH282105   1.189   6.588  14.642 -0.0479 -0.3155  0.0510
20205TIP3    H182106   1.114   6.594  14.584  0.5275  1.4399 -0.5561
20205TIP3    H282107   1.193   6.496  14.668 -1.2378 -0.7993 -1.4426
20206TIP3   OH282108   5.640   1.372   2.988 -0.2095  0.3559  0.2367
20206TIP3    H182109   5.642   1.453   3.040 -0.4566 -0.3288  1.3230
20206TIP3    H282110   5.589   1.311   3.041  1.2925 -1.0120  0.1358
20207TIP3   OH282111   5.588   6.588   2.137 -0.6492 -0.6970 -0.1046
20207TIP3    H182112   5.603   6.493   2.142  1.8641 -0.3778 -0.8287
20207TIP3    H282113   5.578   6.615   2.229 -1.0510 -1.6157  0.1270
20208TIP3   OH282114   4.211   4.146   1.147  0.8886 -0.4419  0.6507
20208TIP3    H182115   4.239   4.093   1.221 -0.4377 -0.7533  0.9476
20208TIP3    H282116   4.261   4.227   1.155  2.2356 -1.2561  0.7275
20209TIP3   OH282117   2.547   1.243  14.514  0.4991  0.4240  0.3815
20209TIP3    H182118   2.555   1.220  14.606  0.8729  1.1403  0.5338
20209TIP3    H282119   2.453   1.248  14.498  0.4062 -1.3553  0.3004
20210TIP3   OH282120   4.974   6.630   4.931 -0.4127  0.3872  0.4163
20210TIP3    H182121   5.055   6.674   4.907 -0.7066 -0.2138 -1.7379
20210TIP3    H282122   5.001   6.540   4.950 -0.2008  0.8257  2.3066
20211TIP3   OH282123   0.356   5.543  12.416 -0.3653  0.3867 -0.8955
20211TIP3    H182124   0.366   5.475  12.483  0.4920  0.6087 -0.7943
20211TIP3    H282125   0.278   5.517  12.367 -0.0915 -0.6255 -0.8030
20212TIP3   OH282126   2.218   4.185  12.889  0.4461 -0.1133 -0.4698
20212TIP3    H182127   2.157   4.258  12.902 -0.6571 -0.6383 -2.5408
20212TIP3    H282128   2.178   4.112  12.937  0.6863  0.1750  0.1798
20213TIP3   OH282129   1.660   5.531   2.080 -0.0700  0.1739 -0.3242
20213TIP3    H182130   1.678   5.549   1.987  0.0660 -0.6764 -0.4731
20213TIP3    H282131   1.744   5.501   2.115 -0.0453  0.7988  0.1520
20214TIP3   OH282132   0.304   5.665   1.293  0.1871  0.4915 -1.2003
20214TIP3    H182133   0.388   5.648   1.335 -0.8617 -1.3520  0.2000
20214TIP3    H282134   0.285   5.757   1.313  0.5718  0.1471  0.7853
20215TIP3   OH282135   2.727   1.383  13.769  0.9538  1.2026 -0.4201
20215TIP3    H182136   2.707   1.290  13.755  0.8520  1.2466 -0.5655
20215TIP3    H282137   2.678   1.429  13.701  1.3004  1.3330 -0.5870
20216TIP3   OH282138   4.880   2.185   1.137 -0.7470 -0.0772  0.0877
20216TIP3    H182139   4.959   2.237   1.153 -0.8107 -0.3002  1.1494
20216TIP3    H282140   4.819   2.246   1.096  0.1354 -0.0229 -1.1780
20217TIP3   OH282141   2.009   6.724   4.578  0.0162  0.0046 -0.1245
20217TIP3    H182142   2.025   6.645   4.630  0.9237  0.8301  0.8900
20217TIP3    H282143   2.096   6.764   4.569 -0.7247  2.0116  1.2456
20218TIP3   OH282144   4.837   5.506  16.705 -0.2056  0.2729  0.6784
20218TIP3    H182145   4.890   5.565  16.651  1.7880 -1.2893  0.8640
20218TIP3    H282146   4.901   5.456  16.756 -1.8254 -2.1462  0.4433
20219TIP3   OH282147   0.677   6.486  16.625 -0.1728  0.4730  0.1204
20219TIP3    H182148   0.610   6.417  16.631  0.4938 -0.2387 -0.4298
20219TIP3    H282149   0.733   6.471  16.701  2.8890 -2.7715 -2.5533
20220TIP3   OH282150   6.729   3.477  11.584  0.1591  0.3598  0.2241
20220TIP3    H182151   6.643   3.484  11.625  0.0057  1.4553 -0.2729
20220TIP3    H282152   6.749   3.383  11.586 -0.0951  0.3279  2.2752
20221TIP3   OH282153   0.934   5.881  16.869 -0.1035  0.4609 -0.7268
20221TIP3    H182154   0.940   5.878  16.965 -0.1091 -1.9719 -0.7575
20221TIP3    H282155   1.014   5.836  16.840  0.0470  1.4714 -1.8662
20222TIP3   OH282156   6.782   1.062   2.218 -0.2565 -0.2202 -0.0106
20222TIP3    H182157   6.785   1.077   2.313  0.4459 -1.5335  0.1912
20222TIP3    H282158   6.690   1.070   2.195 -0.1869  2.2668  0.4077
20223TIP3   OH282159   4.616   4.424   1.943  0.6880  0.3082 -0.0449
20223TIP3    H182160   4.529   4.395   1.970 -0.0527 -0.0739 -2.7104
20223TIP3    H282161   4.621   4.515   1.972  0.3565 -0.3563  2.2171
20224TIP3   OH282162   5.154   6.280  12.681  0.6184  0.2873  0.6151
20224TIP3    H182163   5.123   6.279  12.771  0.7479  2.5550  0.7110
20224TIP3    H282164   5.166   6.373  12.660  0.2952 -0.1719 -1.8300
20225TIP3   OH282165   1.788   4.390  13.492 -0.4744 -0.2417  0.1041
20225TIP3    H182166   1.796   4.399  13.397 -0.5053  0.7580  0.1986
20225TIP3    H282167   1.865   4.338  13.517  0.5391  1.0469 -0.2434
20226TIP3   OH282168   1.803   1.155  15.275 -0.1402 -0.0484  0.1059
20226TIP3    H182169   1.815   1.074  15.226  0.5500  0.1936 -0.1390
20226TIP3    H282170   1.783   1.127  15.364 -0.6817 -0.4880 -0.1543
20227TIP3   OH282171   4.128   2.607  11.917  0.4449 -0.6493 -0.4806
20227TIP3    H182172   4.162   2.531  11.870  0.1965 -0.6754 -0.6180
20227TIP3    H282173   4.036   2.612  11.892 -0.0580 -1.5289  1.1560
20228TIP3   OH282174   3.517   3.849  13.724 -0.2585 -0.2233 -0.3098
20228TIP3    H182175   3.548   3.763  13.751  2.5686  0.5291 -0.9480
20228TIP3    H282176   3.518   3.846  13.628 -3.1049 -0.4399 -0.3859
20229TIP3   OH282177   0.498   5.790   3.299 -0.3755  0.3608 -0.2004
20229TIP3    H182178   0.453   5.729   3.358  0.9267 -0.3466  0.0704
20229TIP3    H282179   0.586   5.753   3.289  0.3466  2.0625 -0.2288
20230TIP3   OH282180   2.859   6.646   3.343  0.9128  0.4041 -0.5555
20230TIP3    H182181   2.932   6.585   3.355  0.1066 -0.2919  0.9362
20230TIP3    H282182   2.876   6.716   3.406 -1.8594 -1.8598  2.9348
20231TIP3   OH282183   6.512   4.912  11.435  0.4729 -0.3220  0.0193
20231TIP3    H182184   6.479   4.918  11.345  0.0518  0.2627  0.2077
20231TIP3    H282185   6.456   4.972  11.484  3.3734  2.6434 -0.0775
20232TIP3   OH282186   3.801   5.105   4.004  0.4939  0.2135 -0.0550
20232TIP3    H182187   3.782   5.022   4.047 -0.0110  0.9162  1.0877
20232TIP3    H282188   3.894   5.100   3.981 -0.0153 -1.5435 -1.9488
20233TIP3   OH282189   3.794   4.227   6.422 -0.1523  0.0913  0.4215
20233TIP3    H182190   3.807   4.216   6.516 -0.1388  0.9548  0.5276
20233TIP3    H282191   3.873   4.272   6.392 -1.3341  2.2932  0.4842
20234TIP3   OH282192   2.057   3.243   2.436 -0.1397  0.5378 -0.6446
20234TIP3    H182193   2.051   3.330   2.476 -1.0284  0.8156 -1.3828
20234TIP3    H282194   2.078   3.260   2.345 -0.9447 -0.0012 -0.9337
20235TIP3   OH282195   1.734   0.297   2.062  0.3325 -0.1657  0.4408
20235TIP3    H182196   1.760   0.388   2.044  0.7500 -0.6683 -1.4981
20235TIP3    H282197   1.775   0.278   2.147 -0.2899  1.6615  1.1917
20236TIP3   OH282198   4.017   1.596   4.602 -0.1252 -0.1189 -0.0582
20236TIP3    H182199   4.036   1.629   4.689  1.7981 -1.7446  0.1945
20236TIP3    H282200   3.935   1.547   4.612 -0.4272  0.5259  0.6159
20237TIP3   OH282201   6.683   3.383  13.581  0.0751  0.2138 -0.3911
20237TIP3    H182202   6.669   3.458  13.524  0.3952 -0.7368 -1.7365
20237TIP3    H282203   6.776   3.363  13.573  0.0564 -0.1224  0.2065
20238TIP3   OH282204   1.512   2.870   3.243  0.2333 -0.0980  0.5366
20238TIP3    H182205   1.529   2.856   3.150 -0.3797 -0.5512  0.4835
20238TIP3    H282206   1.458   2.949   3.246  1.0260  0.4481  0.5845
20239TIP3   OH282207   5.525   3.199  15.670  0.0070 -0.7981  0.7512
20239TIP3    H182208   5.468   3.272  15.649 -1.1855 -0.8926  3.4220
20239TIP3    H282209   5.470   3.121  15.660  0.5839 -1.1549  0.2783
20240TIP3   OH282210   4.834   5.871   0.870 -0.0541  0.0782  0.4178
20240TIP3    H182211   4.831   5.787   0.915  2.4513 -0.7123 -0.7627
20240TIP3    H282212   4.917   5.869   0.821 -1.1024  2.2362 -1.5678
20241TIP3   OH282213   1.510   3.413  15.637 -0.0098 -0.1905 -0.1560
20241TIP3    H182214   1.603   3.409  15.616 -0.0723 -0.8710 -0.3143
20241TIP3    H282215   1.468   3.357  15.572 -0.5493  0.2537 -0.1929
20242LIG      S82216   3.923   3.429  16.674  0.3400 -0.4544  0.1467
20242LIG     F182217   3.105   3.284  17.542  0.2482 -0.3366  0.3343
20242LIG     F282218   3.063   3.571  17.548 -0.1506  0.4073  0.6761
20242LIG     N182219   3.726   3.167  16.698 -0.2979 -0.0093 -0.4116
20242LIG     N282220   3.028   3.168  17.045  0.2804  0.2807 -0.1373
20242LIG     C182221   3.605   3.205  16.776 -0.6600  0.0174 -0.2873
20242LIG     C282222   3.746   3.236  16.568  0.4656  0.4152  0.1225
20242LIG     C382223   3.852   3.167  16.780 -0.2128 -0.1628  0.0342
20242LIG     C482224   3.579   3.104  16.889  0.2251 -0.1815  0.3270
20242LIG     C582225   3.764   3.387  16.582 -0.1401  0.0348  0.2858
20242LIG     C682226   3.905   3.312  16.810  0.4662 -0.5540 -0.8409
20242LIG     C782227   3.438   3.127  16.932 -0.1421 -0.1591 -0.6430
20242LIG     C882228   2.962   3.297  17.069  0.4977 -0.1608 -0.2214
20242LIG     C982229   3.394   3.244  16.994  0.3259 -0.1178 -0.0911
20242LIG    C1082230   3.343   3.026  16.898 -0.0881 -0.1052 -0.2283
20242LIG    C1182231   3.166   3.159  17.009  0.1442 -0.3725  0.0269
20242LIG    C1282232   3.260   3.262  17.034 -0.7058  0.1295 -0.1561
20242LIG    C1382233   3.206   3.047  16.936 -0.1801 -0.2315 -0.3022
20242LIG    C1482234   2.998   3.360  17.201 -0.3690 -0.5965  0.0120
20242LIG    C1582235   2.810   3.279  17.060  0.0172 -1.0573 -0.4794
20242LIG    C1682236   3.027   3.288  17.321  0.6056  0.0626  0.2758
20242LIG    C1782237   2.982   3.502  17.212  0.0068 -0.0239  0.5296
20242LIG    C1882238   3.056   3.361  17.439 -0.3965  0.2931  0.0422
20242LIG    C1982239   2.995   3.568  17.328  0.4684 -0.3189 -0.1453
20242LIG    C2082240   3.040   3.498  17.441  0.3522 -0.4091  0.4854
20242LIG     H182241   3.509   3.217  16.723 -1.8536 -0.5625  1.6974
20242LIG     H282242   3.623   3.303  16.825 -1.3275  0.2501 -0.5144
20242LIG     H382243   3.651   3.223  16.513 -0.8423  4.5542  1.2508
20242LIG     H482244   3.828   3.190  16.509  0.1255  1.7689 -1.4291
20242LIG     H582245   3.919   3.107  16.714  0.9519  0.6295  0.4883
20242LIG     H682246   3.840   3.122  16.881 -0.6470 -0.9864 -0.3789
20242LIG     H782247   3.652   3.130  16.969 -2.4779  2.7811  2.0012
20242LIG     H882248   3.582   2.999  16.853  0.9863 -0.5101  1.3351
20242LIG     H982249   3.774   3.435  16.483 -0.2135  0.4531  0.4796
20242LIG    H1082250   3.671   3.425  16.629  0.4203  2.6213 -0.5984
20242LIG    H1182251   3.838   3.357  16.887  0.9558 -0.1719 -0.6339
20242LIG    H1282252   4.001   3.305  16.866  0.2961 -0.8842 -0.5885
20242LIG    H1382253   3.000   3.369  16.994 -0.1743  2.5385  1.9185
20242LIG    H1482254   3.463   3.323  17.021  1.0973 -0.4081 -1.1560
20242LIG    H1582255   3.370   2.939  16.840  0.3319  0.5300 -0.9911
20242LIG    H1682256   2.970   3.109  16.985 -0.3155  0.9908 -0.2654
20242LIG    H1782257   3.231   3.345  17.097 -0.3298 -1.3821  2.0766
20242LIG    H1882258   3.139   2.971  16.898  3.8032 -3.9057 -0.2830
20242LIG    H1982259   2.770   3.241  16.963 -0.2660  0.3792 -0.9402
20242LIG    H2082260   2.759   3.377  17.073  0.3790 -0.8808 -0.3886
20242LIG    H2182261   2.778   3.204  17.135 -3.1509 -2.1299 -2.7895
20242LIG    H2282262   3.028   3.181  17.326  0.2534 -0.0152 -1.0066
20242LIG    H2382263   2.971   3.565  17.125 -0.6713 -3.6295 -2.1097
20242LIG    H2482264   2.997   3.675  17.342  0.6347 -0.4850  1.1419
   6.82013   6.82013  17.29240
